Title
81392
    1CHL1    C3    1   0.792   5.458  10.326 -0.1353 -0.6607 -0.5517
    1CHL1    H3    2   0.875   5.384  10.337  0.6596  0.2529 -0.2437
    1CHL1    O3    3   0.742   5.470  10.457  0.1099  0.2355  0.1438
    1CHL1   H3'    4   0.815   5.498  10.513 -0.1131  1.5549 -0.1912
    1CHL1    C4    5   0.868   5.587  10.275 -0.1020 -0.2378  0.6612
    1CHL1   H4A    6   0.802   5.676  10.291 -0.7819 -0.5509 -0.3096
    1CHL1   H4B    7   0.946   5.596  10.353 -1.7411 -1.4286  2.5459
    1CHL1    C5    8   0.922   5.573  10.131  0.0701 -0.4673 -1.1670
    1CHL1    C6    9   1.049   5.593  10.102  0.1946  0.1898  0.3308
    1CHL1    H6   10   1.122   5.617  10.181 -0.2768 -0.9956  1.1576
    1CHL1    C7   11   1.099   5.593   9.962 -0.6486 -0.3416 -0.4271
    1CHL1   H7A   12   1.168   5.678   9.943  0.3900 -0.7923  1.1555
    1CHL1   H7B   13   1.167   5.507   9.953  0.3208  0.2930  0.6789
    1CHL1    C8   14   0.992   5.601   9.847 -0.2075 -0.0110 -0.1426
    1CHL1    H8   15   0.957   5.706   9.844  2.1178  0.7858 -1.9399
    1CHL1   C14   16   1.053   5.544   9.722 -1.3014 -0.1896  0.2517
    1CHL1   H14   17   1.070   5.436   9.743 -0.5136  0.1177  1.2481
    1CHL1   C15   18   1.188   5.600   9.668  0.4093  0.2850 -0.0778
    1CHL1  H15A   19   1.184   5.711   9.664  0.7327  0.3187  0.4863
    1CHL1  H15B   20   1.267   5.552   9.730 -2.1570 -0.3684  2.9407
    1CHL1   C16   21   1.191   5.543   9.531  0.2903 -0.5734  0.6260
    1CHL1  H16A   22   1.205   5.623   9.455 -0.9020 -1.5402 -0.6764
    1CHL1  H16B   23   1.266   5.462   9.515  0.5198 -0.2964  0.2762
    1CHL1   C17   24   1.046   5.490   9.496 -0.5337 -0.0740 -0.1503
    1CHL1   H17   25   1.059   5.384   9.525  0.3569 -0.0543 -0.4228
    1CHL1   C13   26   0.953   5.544   9.605  0.5552 -0.4397 -0.4780
    1CHL1   C18   27   0.919   5.686   9.563  0.5438  0.2366 -0.0063
    1CHL1  H18A   28   0.887   5.757   9.643 -0.7346 -1.1322  0.7426
    1CHL1  H18B   29   0.999   5.748   9.519  0.1766  0.4452 -0.3869
    1CHL1  H18C   30   0.837   5.691   9.488  1.1029  0.3017 -0.6147
    1CHL1   C12   31   0.836   5.457   9.648  0.5330  0.8945  0.5896
    1CHL1  H12A   32   0.764   5.453   9.564  1.1385 -1.1700  0.0884
    1CHL1  H12B   33   0.879   5.354   9.656  0.3037  0.6292 -1.1929
    1CHL1   C11   34   0.766   5.492   9.778  0.4171  0.2859 -0.0576
    1CHL1  H11A   35   0.702   5.582   9.765 -1.1467 -0.7414  0.2634
    1CHL1  H11B   36   0.692   5.414   9.806 -0.4103  0.8236 -0.6729
    1CHL1    C9   37   0.874   5.508   9.891 -0.5551 -0.3308 -0.3103
    1CHL1    H9   38   0.922   5.411   9.915  0.8375  0.3872 -0.1279
    1CHL1   C10   39   0.815   5.539  10.030  0.0458  0.2257  0.1789
    1CHL1   C19   40   0.727   5.667  10.008 -0.3510  0.2834 -0.8195
    1CHL1  H19A   41   0.646   5.656   9.934 -0.2052 -0.6015 -0.8583
    1CHL1  H19B   42   0.673   5.703  10.098 -1.0159 -0.5196 -0.8948
    1CHL1  H19C   43   0.803   5.742   9.974  2.7242 -1.9352  0.6895
    1CHL1    C1   44   0.737   5.419  10.082  0.4487 -0.0059  0.4264
    1CHL1   H1A   45   0.644   5.404  10.023  1.2682 -1.1711 -0.6167
    1CHL1   H1B   46   0.805   5.333  10.066 -0.3772 -0.8965  1.5354
    1CHL1    C2   47   0.690   5.412  10.229 -0.6541  1.0515  0.5860
    1CHL1   H2A   48   0.667   5.307  10.254 -0.7674  0.8236 -0.4230
    1CHL1   H2B   49   0.603   5.480  10.240 -1.9951 -0.7729  1.8172
    1CHL1   C20   50   1.014   5.481   9.344  0.4478  0.6958  0.1703
    1CHL1   H20   51   0.995   5.581   9.299 -1.4472 -0.1513 -1.0725
    1CHL1   C21   52   0.868   5.415   9.321  0.2268 -0.3736 -0.1766
    1CHL1  H21A   53   0.852   5.408   9.211  0.9481 -0.7163 -0.2679
    1CHL1  H21B   54   0.802   5.487   9.373 -0.1786  0.0854 -1.2892
    1CHL1  H21C   55   0.854   5.312   9.360 -0.3178 -0.5832 -0.9044
    1CHL1   C22   56   1.125   5.394   9.268  0.0532 -0.1107  0.1697
    1CHL1  H22A   57   1.219   5.453   9.275  0.1663 -0.3666  0.9383
    1CHL1  H22B   58   1.135   5.293   9.314  2.0976  0.1923  0.4993
    1CHL1   C23   59   1.108   5.382   9.114 -0.2262 -0.3150  0.4045
    1CHL1  H23A   60   1.185   5.314   9.071 -0.8118 -1.0956  0.5548
    1CHL1  H23B   61   1.012   5.327   9.098  0.2130 -0.2815 -3.0597
    1CHL1   C24   62   1.121   5.524   9.040  0.1566 -0.1732  0.3606
    1CHL1  H24A   63   1.034   5.588   9.066  1.2337  0.6911  2.0616
    1CHL1  H24B   64   1.216   5.569   9.077 -0.2487  1.1271 -0.1382
    1CHL1   C25   65   1.121   5.536   8.891  0.4924 -0.5275  0.3103
    1CHL1   H25   66   1.220   5.499   8.856  0.0761 -1.3284 -0.0439
    1CHL1   C26   67   1.012   5.444   8.831 -0.5467 -0.0202 -0.7625
    1CHL1  H26A   68   0.921   5.466   8.891 -0.5195 -0.3210 -0.6090
    1CHL1  H26B   69   0.987   5.479   8.728 -3.9305  2.1525  0.6209
    1CHL1  H26C   70   1.037   5.336   8.840  1.4720  0.5428  1.2125
    1CHL1   C27   71   1.102   5.683   8.845  0.0876 -0.3657 -0.0732
    1CHL1  H27A   72   1.170   5.758   8.891 -1.0860 -0.1294  1.3477
    1CHL1  H27B   73   1.134   5.686   8.738 -1.0733  0.0842 -0.4320
    1CHL1  H27C   74   1.002   5.723   8.871  0.1200  0.3701 -1.0053
    2CHL1    C3   75   1.364   3.254  10.086 -0.1032  0.7587  0.0349
    2CHL1    H3   76   1.473   3.252  10.069 -0.1402 -3.3490 -0.7673
    2CHL1    O3   77   1.346   3.273  10.222 -0.1203  0.6409  0.1228
    2CHL1   H3'   78   1.254   3.251  10.237 -0.0755  0.8688  0.7998
    2CHL1    C4   79   1.296   3.360   9.999  0.4751 -0.1801 -0.4954
    2CHL1   H4A   80   1.192   3.348  10.037  1.2516  2.4275  2.9062
    2CHL1   H4B   81   1.343   3.453  10.036 -0.5616  0.3069 -0.3715
    2CHL1    C5   82   1.317   3.319   9.850 -0.1449  0.2046 -0.1082
    2CHL1    C6   83   1.369   3.412   9.768  0.0463  1.0154  0.2730
    2CHL1    H6   84   1.387   3.517   9.796  0.6189  1.1456 -0.5419
    2CHL1    C7   85   1.383   3.388   9.620  0.3312 -0.6555  0.3076
    2CHL1   H7A   86   1.345   3.480   9.571 -1.3521 -0.8034  1.2779
    2CHL1   H7B   87   1.487   3.368   9.585  0.0958  0.9927 -1.4533
    2CHL1    C8   88   1.301   3.264   9.570 -0.1043  0.2280 -0.8194
    2CHL1    H8   89   1.197   3.300   9.559  0.0850  0.5000 -1.8057
    2CHL1   C14   90   1.342   3.224   9.431  0.0138 -0.2342  0.3037
    2CHL1   H14   91   1.447   3.188   9.434 -0.2966 -1.3570 -1.0498
    2CHL1   C15   92   1.352   3.336   9.325  0.2610 -0.0013 -0.0698
    2CHL1  H15A   93   1.259   3.393   9.346 -1.1171 -1.6868 -1.3298
    2CHL1  H15B   94   1.450   3.385   9.342  0.7938 -1.9027  3.3441
    2CHL1   C16   95   1.342   3.256   9.198  0.6265 -0.8555  0.4863
    2CHL1  H16A   96   1.252   3.292   9.144  2.3856  1.2091 -1.2741
    2CHL1  H16B   97   1.437   3.271   9.142  0.3225 -1.6598 -0.2833
    2CHL1   C17   98   1.325   3.106   9.229  0.6000  0.2610  0.4417
    2CHL1   H17   99   1.423   3.054   9.232  0.4323 -0.1177 -0.5316
    2CHL1   C13  100   1.267   3.112   9.368 -0.1850 -0.4780  0.1689
    2CHL1   C18  101   1.114   3.146   9.361  0.3311  0.4466  0.7098
    2CHL1  H18A  102   1.072   3.051   9.321  0.1533  0.4634  0.8549
    2CHL1  H18B  103   1.068   3.170   9.459  2.5397  0.4993  1.8038
    2CHL1  H18C  104   1.096   3.230   9.291  1.7903  1.3618  1.3775
    2CHL1   C12  105   1.279   2.984   9.454 -0.0800 -0.4989  0.5736
    2CHL1  H12A  106   1.220   2.897   9.418 -1.0839 -0.0048  1.0030
    2CHL1  H12B  107   1.386   2.955   9.451  0.2225  0.5363  0.6869
    2CHL1   C11  108   1.247   3.016   9.607  0.3719  0.1939  0.6736
    2CHL1  H11A  109   1.137   3.022   9.614  0.2833  0.1078 -0.4979
    2CHL1  H11B  110   1.294   2.934   9.666 -1.0136  1.4748  3.7966
    2CHL1    C9  111   1.319   3.145   9.661  0.6843 -0.1699 -0.2784
    2CHL1    H9  112   1.427   3.121   9.659  0.5972 -0.5475 -0.4537
    2CHL1   C10  113   1.279   3.173   9.807 -0.7155  0.4240 -0.3948
    2CHL1   C19  114   1.125   3.163   9.829 -0.6756 -0.2554 -0.5307
    2CHL1  H19A  115   1.074   3.222   9.750  3.7865 -0.1379 -3.6757
    2CHL1  H19B  116   1.081   3.061   9.833  0.2994 -0.7886 -2.2865
    2CHL1  H19C  117   1.093   3.205   9.927 -0.1661 -2.2699  0.5569
    2CHL1    C1  118   1.338   3.073   9.904  0.3348 -0.4340 -0.7853
    2CHL1   H1A  119   1.298   2.971   9.886 -3.0002  1.0598 -2.8879
    2CHL1   H1B  120   1.447   3.082   9.887 -0.0234  2.6318 -2.0198
    2CHL1    C2  121   1.309   3.109  10.052 -0.0570 -0.3675  0.5835
    2CHL1   H2A  122   1.368   3.046  10.122  1.1809 -0.2878 -0.3496
    2CHL1   H2B  123   1.202   3.122  10.079 -0.5664  0.2837 -1.5243
    2CHL1   C20  124   1.250   3.030   9.118 -0.0527 -0.0157  0.3322
    2CHL1   H20  125   1.147   3.073   9.116 -1.3050 -2.8190 -0.8814
    2CHL1   C21  126   1.231   2.876   9.151  0.0016 -0.1428 -0.3530
    2CHL1  H21A  127   1.243   2.819   9.057 -1.1076  0.1998 -0.7107
    2CHL1  H21B  128   1.134   2.855   9.200  1.6835 -1.3616  2.7452
    2CHL1  H21C  129   1.305   2.841   9.227 -2.1237 -3.9813  0.2281
    2CHL1   C22  130   1.318   3.049   8.978  0.2624 -0.3366  0.5805
    2CHL1  H22A  131   1.340   3.156   8.957 -0.0166 -0.0649  1.6066
    2CHL1  H22B  132   1.412   2.989   8.971  1.1886  0.9777  1.1902
    2CHL1   C23  133   1.224   3.014   8.862  0.0496 -0.0131 -0.1102
    2CHL1  H23A  134   1.187   2.909   8.852 -2.5397  0.7047  1.0857
    2CHL1  H23B  135   1.134   3.075   8.880  1.3093  1.6455  0.8577
    2CHL1   C24  136   1.286   3.050   8.723  0.6759  0.7062 -0.4889
    2CHL1  H24A  137   1.308   3.158   8.716 -0.2999  0.8671 -1.3896
    2CHL1  H24B  138   1.378   2.990   8.707  0.9513  1.5249 -2.1815
    2CHL1   C25  139   1.181   3.027   8.610 -0.0433 -0.1850 -0.6910
    2CHL1   H25  140   1.137   2.927   8.627  0.4020 -0.5237 -1.4902
    2CHL1   C26  141   1.077   3.136   8.597  0.4021 -0.3484 -0.5428
    2CHL1  H26A  142   1.006   3.116   8.513 -0.5318  1.0747 -0.1300
    2CHL1  H26B  143   1.013   3.141   8.687 -0.2498 -1.5760 -0.9187
    2CHL1  H26C  144   1.120   3.233   8.563 -0.1616  0.1098  0.0247
    2CHL1   C27  145   1.254   3.023   8.469 -0.1263  0.0994 -0.2900
    2CHL1  H27A  146   1.326   2.939   8.452  0.5839  0.4705  0.7956
    2CHL1  H27B  147   1.175   3.020   8.391 -0.6662 -0.1942  0.2627
    2CHL1  H27C  148   1.309   3.119   8.458 -1.3294  0.9581  0.9556
    3CHL1    C3  149   2.286   2.773  10.282 -0.2009 -0.5099  0.3146
    3CHL1    H3  150   2.351   2.683  10.266  1.4614  1.1031 -3.0232
    3CHL1    O3  151   2.271   2.785  10.421  0.1942  0.1019 -0.7515
    3CHL1   H3'  152   2.257   2.876  10.447 -1.2113 -0.5189  0.8635
    3CHL1    C4  153   2.366   2.896  10.223 -0.4565  0.5497  0.0285
    3CHL1   H4A  154   2.311   2.991  10.239 -1.6864 -0.1715  0.1780
    3CHL1   H4B  155   2.464   2.911  10.275  0.2623 -0.7924 -0.8869
    3CHL1    C5  156   2.378   2.891  10.072  0.9194  0.0033  0.2078
    3CHL1    C6  157   2.497   2.900  10.013  1.0726  0.3476  0.1512
    3CHL1    H6  158   2.579   2.914  10.085  0.5771  1.4918  0.5042
    3CHL1    C7  159   2.523   2.905   9.864 -0.4328  0.0571 -0.6655
    3CHL1   H7A  160   2.601   2.978   9.836 -0.6847  0.2115 -0.9633
    3CHL1   H7B  161   2.564   2.806   9.834  0.4622 -0.8895  3.1180
    3CHL1    C8  162   2.389   2.935   9.798  0.0739  0.6245  0.3280
    3CHL1    H8  163   2.363   3.038   9.831 -3.6317  0.1085 -0.5845
    3CHL1   C14  164   2.412   2.922   9.650 -0.3237 -0.1880 -0.2680
    3CHL1   H14  165   2.426   2.814   9.631 -0.4239 -0.3039  0.2990
    3CHL1   C15  166   2.541   2.980   9.587 -0.7426  0.4228  0.7396
    3CHL1  H15A  167   2.566   3.078   9.634 -1.0726  1.4104 -1.0333
    3CHL1  H15B  168   2.620   2.901   9.592  0.6087  1.6686 -0.0286
    3CHL1   C16  169   2.510   3.004   9.440  0.2844  0.0397 -0.4174
    3CHL1  H16A  170   2.504   3.114   9.422 -0.3350 -0.3722 -3.0626
    3CHL1  H16B  171   2.571   2.954   9.362  0.2592  2.5776 -2.1890
    3CHL1   C17  172   2.371   2.941   9.420 -0.0471  0.4439 -1.0290
    3CHL1   H17  173   2.385   2.831   9.417 -1.7308  0.1802 -0.5521
    3CHL1   C13  174   2.305   2.960   9.559 -0.2190  0.1133 -0.0804
    3CHL1   C18  175   2.270   3.108   9.585  0.0374 -0.3125 -0.1393
    3CHL1  H18A  176   2.233   3.123   9.688 -0.0977  0.0827 -0.2462
    3CHL1  H18B  177   2.347   3.185   9.564 -3.0022  2.7312 -1.0064
    3CHL1  H18C  178   2.176   3.127   9.529  0.2040 -1.0529 -0.7027
    3CHL1   C12  179   2.190   2.858   9.598  0.5779  0.4780 -0.0247
    3CHL1  H12A  180   2.101   2.876   9.533 -0.0032 -2.8304 -0.3196
    3CHL1  H12B  181   2.234   2.758   9.577 -3.3165 -1.6449  1.1026
    3CHL1   C11  182   2.144   2.864   9.752  0.2246 -0.1853 -0.3185
    3CHL1  H11A  183   2.094   2.963   9.764  0.8991  0.0758  0.4607
    3CHL1  H11B  184   2.067   2.789   9.778  0.1872  0.4365  1.5715
    3CHL1    C9  185   2.269   2.851   9.848 -0.6335  0.3460  0.1811
    3CHL1    H9  186   2.306   2.746   9.846  0.6042  0.6947  2.0919
    3CHL1   C10  187   2.233   2.866   9.997 -0.2084 -1.3531 -0.1965
    3CHL1   C19  188   2.146   3.003  10.012 -0.2180  0.1587  0.3982
    3CHL1  H19A  189   2.113   3.024  10.116 -0.3252  0.4743  0.3001
    3CHL1  H19B  190   2.204   3.083   9.962  0.5982 -0.9895 -0.5554
    3CHL1  H19C  191   2.049   2.993   9.959 -1.0580  1.4063  1.6503
    3CHL1    C1  192   2.166   2.749  10.061 -0.2691 -0.2313  0.1040
    3CHL1   H1A  193   2.063   2.745  10.019  0.8994 -2.9406 -2.9692
    3CHL1   H1B  194   2.225   2.659  10.031  0.2152  0.6412 -1.6836
    3CHL1    C2  195   2.150   2.762  10.212 -0.4779 -0.0763 -0.0933
    3CHL1   H2A  196   2.098   2.672  10.252  1.4716 -2.0100 -1.6054
    3CHL1   H2B  197   2.087   2.850  10.235  1.8355  1.1109  2.2233
    3CHL1   C20  198   2.304   2.986   9.294 -0.8348  0.1298  0.6000
    3CHL1   H20  199   2.247   3.080   9.309  1.2344  1.5579  0.0047
    3CHL1   C21  200   2.206   2.873   9.254  0.2315 -0.1997  0.3490
    3CHL1  H21A  201   2.253   2.774   9.269 -0.6378 -0.2853  3.1894
    3CHL1  H21B  202   2.159   2.884   9.154  1.8694  1.0220 -0.3483
    3CHL1  H21C  203   2.128   2.879   9.334  0.3904  0.9150  0.4423
    3CHL1   C22  204   2.407   3.030   9.183  0.3543  0.1259 -0.1607
    3CHL1  H22A  205   2.450   3.127   9.216 -2.2428  1.9056 -1.5572
    3CHL1  H22B  206   2.489   2.957   9.167 -0.1126 -1.0644  2.2967
    3CHL1   C23  207   2.342   3.064   9.042 -0.6577  0.4048  0.2402
    3CHL1  H23A  208   2.303   2.965   9.009  0.9848 -0.5745  1.1107
    3CHL1  H23B  209   2.266   3.144   9.048 -0.0970  1.1334 -1.7448
    3CHL1   C24  210   2.453   3.103   8.932  0.3101 -0.4901  0.0849
    3CHL1  H24A  211   2.509   3.191   8.968 -0.5315 -0.2056  0.7513
    3CHL1  H24B  212   2.524   3.017   8.927 -1.6983 -2.3568  1.4539
    3CHL1   C25  213   2.392   3.143   8.795  0.3733  0.3109 -1.1667
    3CHL1   H25  214   2.323   3.225   8.824  1.1872  0.0986  1.6944
    3CHL1   C26  215   2.500   3.196   8.697  0.2973 -0.2853 -0.1371
    3CHL1  H26A  216   2.556   3.272   8.756  0.4225  0.8182 -1.6475
    3CHL1  H26B  217   2.568   3.113   8.666 -0.7855 -0.8194 -1.1443
    3CHL1  H26C  218   2.452   3.230   8.604  0.1606 -0.6692 -0.2105
    3CHL1   C27  219   2.320   3.022   8.731 -0.4017  0.0253 -0.0124
    3CHL1  H27A  220   2.395   2.946   8.701  0.6365  1.4021 -1.0350
    3CHL1  H27B  221   2.249   2.974   8.802  1.9452 -0.3566  2.2086
    3CHL1  H27C  222   2.259   3.051   8.643  0.9760  0.2312 -0.9321
    4CHL1    C3  223   1.835   5.095  10.508 -0.0679  0.4755  0.5115
    4CHL1    H3  224   1.806   4.989  10.490  2.5744 -0.0339 -1.3242
    4CHL1    O3  225   1.832   5.134  10.646 -0.0283 -0.4280 -0.1980
    4CHL1   H3'  226   1.884   5.215  10.647 -0.3725 -0.2074  0.7404
    4CHL1    C4  227   1.977   5.105  10.447 -1.1601  0.3015 -0.2775
    4CHL1   H4A  228   2.016   5.207  10.468 -2.3103  0.9400 -1.1028
    4CHL1   H4B  229   2.047   5.034  10.495 -2.2979 -0.0838  0.8559
    4CHL1    C5  230   1.991   5.094  10.294 -0.0950  0.6047 -0.2576
    4CHL1    C6  231   2.075   5.001  10.239  0.4318  0.3950 -0.5098
    4CHL1    H6  232   2.148   4.952  10.304  0.7348  0.4375 -0.8178
    4CHL1    C7  233   2.082   4.987  10.091 -0.1632 -0.1488 -0.1810
    4CHL1   H7A  234   2.187   4.971  10.059  0.2968 -0.9835  1.5968
    4CHL1   H7B  235   2.035   4.889  10.070  1.0448 -1.1088  1.3919
    4CHL1    C8  236   2.030   5.105  10.012  0.0252  0.2843 -0.3642
    4CHL1    H8  237   2.097   5.194  10.013 -0.4807  0.6653  0.8855
    4CHL1   C14  238   2.016   5.068   9.866 -0.1389 -0.2189  0.0456
    4CHL1   H14  239   1.936   4.991   9.859  0.7131 -1.2016  0.8943
    4CHL1   C15  240   2.135   4.998   9.802 -0.3137  0.4545  0.2475
    4CHL1  H15A  241   2.230   5.051   9.824  0.2401  0.5476 -2.1524
    4CHL1  H15B  242   2.141   4.895   9.843  0.8405  0.7186  0.7603
    4CHL1   C16  243   2.102   4.999   9.658  0.8162  0.0230  0.3422
    4CHL1  H16A  244   2.192   5.018   9.597 -0.3774 -1.9742 -2.1985
    4CHL1  H16B  245   2.065   4.902   9.620 -0.5997  0.8163 -0.3964
    4CHL1   C17  246   1.978   5.095   9.639 -0.0664 -0.2173  0.3773
    4CHL1   H17  247   1.893   5.023   9.643  1.3240 -1.9400  0.4237
    4CHL1   C13  248   1.963   5.180   9.771  0.4159  0.0903 -0.7498
    4CHL1   C18  249   2.063   5.302   9.769  0.3130 -0.4355 -0.6669
    4CHL1  H18A  250   2.009   5.389   9.726 -0.2843 -1.1011 -1.2715
    4CHL1  H18B  251   2.095   5.338   9.869 -0.3762 -0.2595 -0.5042
    4CHL1  H18C  252   2.155   5.277   9.711 -0.7352 -0.6128 -2.3237
    4CHL1   C12  253   1.818   5.221   9.816 -0.6463  0.4940 -0.4609
    4CHL1  H12A  254   1.774   5.313   9.771  0.0911  0.9987 -0.1659
    4CHL1  H12B  255   1.746   5.139   9.795 -2.6115  2.5958 -2.4615
    4CHL1   C11  256   1.823   5.254   9.974  0.5882 -0.1996 -0.5245
    4CHL1  H11A  257   1.876   5.352   9.973 -2.0079  1.3176 -2.3899
    4CHL1  H11B  258   1.726   5.284  10.018  1.3039  0.2289  0.8098
    4CHL1    C9  259   1.893   5.151  10.058 -0.1787 -0.4028 -0.0069
    4CHL1    H9  260   1.822   5.066  10.051 -3.6617  1.9624  3.0946
    4CHL1   C10  261   1.886   5.178  10.214 -0.7386  0.5723 -0.0585
    4CHL1   C19  262   1.950   5.320  10.242  0.4171  0.3315  0.5195
    4CHL1  H19A  263   1.908   5.399  10.176  0.0740  1.2656  1.8161
    4CHL1  H19B  264   1.936   5.364  10.343  1.7273  1.6768  0.1565
    4CHL1  H19C  265   2.057   5.312  10.215  0.6512  0.9290  1.2496
    4CHL1    C1  266   1.750   5.152  10.271 -0.6641  0.0728 -0.0194
    4CHL1   H1A  267   1.681   5.223  10.220  0.5488  1.1134 -0.2689
    4CHL1   H1B  268   1.719   5.049  10.244 -1.0963  0.4607 -1.0574
    4CHL1    C2  269   1.742   5.171  10.422  0.6160 -0.1669 -0.7829
    4CHL1   H2A  270   1.639   5.136  10.444  0.0662  1.1733 -1.1389
    4CHL1   H2B  271   1.741   5.280  10.444  0.9170 -0.4430  0.7139
    4CHL1   C20  272   1.969   5.167   9.504 -0.0856  0.1226 -0.1251
    4CHL1   H20  273   2.064   5.224   9.504 -1.5417  2.7153  0.3748
    4CHL1   C21  274   1.860   5.269   9.498 -0.0018  1.2160  0.4540
    4CHL1  H21A  275   1.861   5.303   9.392 -2.4604 -0.1805 -0.1003
    4CHL1  H21B  276   1.888   5.355   9.562  3.6557 -0.2146  1.0220
    4CHL1  H21C  277   1.758   5.231   9.518 -0.3784  1.3382 -1.0844
    4CHL1   C22  278   1.960   5.071   9.385 -0.8718 -0.5809  0.6713
    4CHL1  H22A  279   1.981   5.133   9.296  0.8212 -0.9389  0.7924
    4CHL1  H22B  280   2.047   5.003   9.399  0.0551  0.7535  1.7258
    4CHL1   C23  281   1.825   4.991   9.363 -0.5190  0.0712 -0.5949
    4CHL1  H23A  282   1.809   4.932   9.456 -2.7835  0.0174 -0.9613
    4CHL1  H23B  283   1.739   5.059   9.344 -1.4031 -0.9577 -0.4013
    4CHL1   C24  284   1.832   4.886   9.245 -0.3639 -0.3496  0.0921
    4CHL1  H24A  285   1.931   4.836   9.256 -0.4148 -0.7273 -1.0475
    4CHL1  H24B  286   1.749   4.813   9.243 -1.6060  1.0123 -1.7596
    4CHL1   C25  287   1.823   4.968   9.107 -0.5785 -0.0874 -0.0628
    4CHL1   H25  288   1.881   5.062   9.118 -2.2007  1.0991 -1.1541
    4CHL1   C26  289   1.896   4.885   8.991  0.4689  0.0882 -1.0187
    4CHL1  H26A  290   1.998   4.854   9.025  0.0706  0.1851  0.3307
    4CHL1  H26B  291   1.827   4.800   8.973 -1.2904  1.2288  0.0259
    4CHL1  H26C  292   1.903   4.946   8.899 -1.7848  0.7945 -0.7693
    4CHL1   C27  293   1.680   4.998   9.071  0.5116 -0.1567 -0.0064
    4CHL1  H27A  294   1.626   5.040   9.159 -1.0781  0.5277 -1.2677
    4CHL1  H27B  295   1.669   5.063   8.981 -1.1379 -0.4381 -0.0442
    4CHL1  H27C  296   1.632   4.900   9.050  1.1052 -0.3739 -0.3518
    5CHL1    C3  297   3.152   2.773  10.107 -0.0190 -0.0115  0.5426
    5CHL1    H3  298   3.041   2.769  10.110 -0.0342 -0.3569 -0.3690
    5CHL1    O3  299   3.195   2.795  10.241 -0.2245  0.0609  0.0217
    5CHL1   H3'  300   3.199   2.889  10.259 -0.0072  0.4485 -1.8484
    5CHL1    C4  301   3.217   2.650  10.046  0.0351  0.4333 -0.0825
    5CHL1   H4A  302   3.326   2.664  10.066 -0.0446 -1.4006  2.0280
    5CHL1   H4B  303   3.188   2.565  10.111 -1.1418  0.4130 -0.6197
    5CHL1    C5  304   3.200   2.627   9.899  0.1942 -0.6613  0.0839
    5CHL1    C6  305   3.168   2.506   9.855  0.0613  0.3392  0.6097
    5CHL1    H6  306   3.135   2.428   9.925  1.2244 -1.2659 -0.5154
    5CHL1    C7  307   3.157   2.470   9.701 -0.2044  0.7653 -0.2432
    5CHL1   H7A  308   3.203   2.374   9.669  1.3708  1.3958  0.0048
    5CHL1   H7B  309   3.048   2.461   9.682 -0.2345  0.2904  0.1443
    5CHL1    C8  310   3.209   2.583   9.619  0.2824  0.0367  1.0627
    5CHL1    H8  311   3.319   2.570   9.609 -0.0444 -0.7137 -2.6235
    5CHL1   C14  312   3.158   2.569   9.473 -0.1285  0.0315 -0.0086
    5CHL1   H14  313   3.048   2.586   9.477  0.1169  1.5476  1.4154
    5CHL1   C15  314   3.179   2.425   9.408  0.4390  0.2789 -0.5417
    5CHL1  H15A  315   3.283   2.391   9.427 -0.0112 -0.0900  1.4553
    5CHL1  H15B  316   3.095   2.365   9.449 -0.0358 -0.5141 -2.5865
    5CHL1   C16  317   3.162   2.451   9.261  0.4110  0.5967 -0.6900
    5CHL1  H16A  318   3.256   2.410   9.219 -0.7093  0.4472 -3.2617
    5CHL1  H16B  319   3.069   2.410   9.216  0.1585 -0.0755  0.4087
    5CHL1   C17  320   3.136   2.601   9.250  0.2862  0.6845 -0.0591
    5CHL1   H17  321   3.027   2.609   9.272  0.8836 -0.1284  3.9673
    5CHL1   C13  322   3.206   2.665   9.376 -0.5776  0.5913  0.4988
    5CHL1   C18  323   3.360   2.649   9.371  0.2087 -1.1041 -1.2456
    5CHL1  H18A  324   3.412   2.710   9.293  0.8744  1.0810  0.7927
    5CHL1  H18B  325   3.420   2.689   9.455 -1.0128  2.9290 -2.0759
    5CHL1  H18C  326   3.399   2.545   9.363 -1.6808 -1.9599  0.0973
    5CHL1   C12  327   3.167   2.805   9.419  0.7889 -0.9743 -0.2963
    5CHL1  H12A  328   3.204   2.884   9.351  2.0929 -0.3884  1.0346
    5CHL1  H12B  329   3.057   2.822   9.414  0.9477  0.2224  0.0569
    5CHL1   C11  330   3.211   2.835   9.562  0.1472 -0.6147 -0.2563
    5CHL1  H11A  331   3.321   2.848   9.555  0.3781 -1.9846  0.5655
    5CHL1  H11B  332   3.161   2.928   9.597 -2.7608 -1.8150 -0.8968
    5CHL1    C9  333   3.172   2.725   9.669  0.1579 -0.0300 -1.0242
    5CHL1    H9  334   3.062   2.734   9.675  0.0817 -1.3444 -0.0512
    5CHL1   C10  335   3.232   2.753   9.814  0.2564  0.4087 -0.2269
    5CHL1   C19  336   3.377   2.783   9.820  0.3869 -0.2610 -0.6394
    5CHL1  H19A  337   3.438   2.713   9.759  0.0404 -0.4148 -0.8129
    5CHL1  H19B  338   3.393   2.877   9.762  0.7874 -0.0870 -0.2547
    5CHL1  H19C  339   3.422   2.801   9.920  0.2834  1.1653 -0.8219
    5CHL1    C1  340   3.145   2.878   9.882 -0.2656 -0.2705  0.0131
    5CHL1   H1A  341   3.152   2.969   9.819 -3.0810  0.6486  0.9202
    5CHL1   H1B  342   3.036   2.859   9.870 -0.8566  0.3781  3.5090
    5CHL1    C2  343   3.174   2.899  10.031 -0.0609  0.4263 -0.7675
    5CHL1   H2A  344   3.104   2.975  10.072 -1.5280 -1.5216  0.5392
    5CHL1   H2B  345   3.275   2.941  10.050 -0.1273 -0.3415  1.6072
    5CHL1   C20  346   3.156   2.670   9.115 -1.0115 -0.5385 -0.8480
    5CHL1   H20  347   3.171   2.778   9.135  0.6860 -0.9418  0.2723
    5CHL1   C21  348   3.030   2.642   9.030  0.6765 -0.1414 -0.1977
    5CHL1  H21A  349   3.028   2.697   8.933  1.5464  0.5715  0.1678
    5CHL1  H21B  350   2.942   2.677   9.089  2.9026  1.6293  2.3201
    5CHL1  H21C  351   3.019   2.537   8.997  2.7608 -1.2273  2.2593
    5CHL1   C22  352   3.283   2.632   9.033  0.3626  0.3010  0.8613
    5CHL1  H22A  353   3.376   2.639   9.093 -1.9744 -0.7180  4.9582
    5CHL1  H22B  354   3.274   2.525   9.004 -0.8595  0.4942  0.4735
    5CHL1   C23  355   3.290   2.718   8.908 -0.0171  0.8460 -0.4511
    5CHL1  H23A  356   3.377   2.674   8.855 -0.4000  0.5488 -0.8448
    5CHL1  H23B  357   3.206   2.714   8.835 -0.1531 -1.0348 -0.2404
    5CHL1   C24  358   3.334   2.869   8.914 -0.2074  0.6388 -0.7657
    5CHL1  H24A  359   3.249   2.926   8.955  1.6554  1.5618  2.1318
    5CHL1  H24B  360   3.426   2.884   8.976 -0.4852  2.7490 -0.7777
    5CHL1   C25  361   3.345   2.938   8.778 -0.4414 -0.2682  0.5282
    5CHL1   H25  362   3.251   2.919   8.721 -0.3459 -0.0670  0.3003
    5CHL1   C26  363   3.347   3.092   8.805  0.0580 -0.4177  0.1042
    5CHL1  H26A  364   3.267   3.132   8.871 -0.6589 -0.4481 -0.7154
    5CHL1  H26B  365   3.440   3.116   8.860 -0.3269 -1.5449  1.2846
    5CHL1  H26C  366   3.364   3.147   8.709  0.4061 -2.7404 -1.2414
    5CHL1   C27  367   3.472   2.887   8.697  0.2030  0.3082 -0.0526
    5CHL1  H27A  368   3.489   2.778   8.710  0.6799  0.2575 -0.9785
    5CHL1  H27B  369   3.451   2.913   8.591 -1.2714  0.7132  0.3128
    5CHL1  H27C  370   3.561   2.937   8.740 -1.3425  0.5427  3.1894
    6CHL1    C3  371   0.167   0.227  10.360 -0.3691  0.4135 -0.0714
    6CHL1    H3  372   0.208   0.325  10.329  0.7873 -0.9677 -3.3742
    6CHL1    O3  373   0.183   0.220  10.500  0.0568  0.5032  0.3158
    6CHL1   H3'  374   0.108   0.172  10.536  1.1443 -0.5054  1.2890
    6CHL1    C4  375   0.018   0.232  10.324  0.4450  0.1434 -0.8808
    6CHL1   H4A  376  -0.031   0.138  10.359  1.5065 -0.1083 -0.0319
    6CHL1   H4B  377  -0.021   0.317  10.385 -0.1792  0.2444 -1.4046
    6CHL1    C5  378  -0.001   0.250  10.174 -0.1972 -0.1862 -0.7501
    6CHL1    C6  379  -0.065   0.355  10.131 -0.0388  0.3506 -0.3439
    6CHL1    H6  380  -0.113   0.421  10.204  0.5099  0.2569  0.1091
    6CHL1    C7  381  -0.089   0.383   9.983  0.6289 -0.0425 -0.4560
    6CHL1   H7A  382  -0.195   0.412   9.967  1.5646  3.6783 -0.7897
    6CHL1   H7B  383  -0.035   0.473   9.947 -0.1155  2.0984  3.2867
    6CHL1    C8  384  -0.048   0.262   9.896 -0.7482 -0.0972 -0.2981
    6CHL1    H8  385  -0.135   0.194   9.911 -1.6308  0.3920 -2.6939
    6CHL1   C14  386  -0.032   0.307   9.748 -0.5410  0.4683  0.6279
    6CHL1   H14  387   0.061   0.367   9.739  0.9324 -1.9737 -2.5776
    6CHL1   C15  388  -0.151   0.377   9.686 -0.0609  0.4063 -0.2989
    6CHL1  H15A  389  -0.240   0.320   9.718 -0.0522  0.1267 -0.7742
    6CHL1  H15B  390  -0.162   0.486   9.704 -2.5296  0.2024 -0.2059
    6CHL1   C16  391  -0.114   0.367   9.533  0.3845  0.1235 -0.5899
    6CHL1  H16A  392  -0.216   0.350   9.494 -0.1135  1.9685 -0.1850
    6CHL1  H16B  393  -0.076   0.462   9.491 -0.6431  1.0452  0.5282
    6CHL1   C17  394  -0.006   0.259   9.517  0.3456 -0.4429  0.3007
    6CHL1   H17  395   0.091   0.312   9.503  1.7249 -3.2206 -1.7035
    6CHL1   C13  396   0.003   0.191   9.648 -0.4219  0.1827 -0.5404
    6CHL1   C18  397  -0.114   0.089   9.659 -0.0433  0.2256 -0.3977
    6CHL1  H18A  398  -0.204   0.134   9.612 -0.5917 -0.6672 -0.2372
    6CHL1  H18B  399  -0.100  -0.011   9.611  0.4730  0.3352 -0.4869
    6CHL1  H18C  400  -0.133   0.058   9.764 -2.5326 -0.0298 -0.8701
    6CHL1   C12  401   0.144   0.129   9.689 -0.2595  0.1779  0.6098
    6CHL1  H12A  402   0.154   0.033   9.634 -1.8243  0.7739 -0.8172
    6CHL1  H12B  403   0.228   0.199   9.664 -0.0167 -0.9166 -1.9732
    6CHL1   C11  404   0.141   0.094   9.842 -0.2778  0.3985 -0.1571
    6CHL1  H11A  405   0.075   0.005   9.843  3.8841 -3.0281 -1.4333
    6CHL1  H11B  406   0.245   0.071   9.874 -0.5118  1.4747  1.5124
    6CHL1    C9  407   0.090   0.200   9.936  0.4514 -0.6466  0.0596
    6CHL1    H9  408   0.168   0.279   9.938  1.6435 -1.7878  1.9771
    6CHL1   C10  409   0.074   0.150  10.080 -0.2006  0.5974  0.3417
    6CHL1   C19  410  -0.004   0.020  10.084  0.0431 -0.1329  0.5812
    6CHL1  H19A  411   0.044  -0.071  10.041 -1.0450 -0.3383 -0.2454
    6CHL1  H19B  412  -0.039  -0.015  10.183  0.2386 -1.7730  0.1093
    6CHL1  H19C  413  -0.098   0.031  10.025  1.7443  0.0624 -2.3070
    6CHL1    C1  414   0.217   0.122  10.136 -0.5899  0.1944 -0.1693
    6CHL1   H1A  415   0.270   0.037  10.088  0.4074  1.1775 -0.8508
    6CHL1   H1B  416   0.279   0.209  10.108 -2.1590  0.5103 -3.0613
    6CHL1    C2  417   0.232   0.106  10.285 -0.0249 -0.1252  0.0551
    6CHL1   H2A  418   0.341   0.114  10.305  0.1203 -0.9805 -0.3738
    6CHL1   H2B  419   0.207   0.005  10.323  2.5496 -0.5297  0.9042
    6CHL1   C20  420  -0.031   0.184   9.386  0.0665  0.0608  0.1197
    6CHL1   H20  421  -0.132   0.137   9.383  0.5513 -0.9617 -1.4786
    6CHL1   C21  422   0.076   0.078   9.361 -0.1677 -0.1933 -0.6810
    6CHL1  H21A  423   0.083  -0.004   9.435 -0.1036 -2.0521 -2.6320
    6CHL1  H21B  424   0.179   0.114   9.379 -0.9873  1.4167  1.1027
    6CHL1  H21C  425   0.059   0.040   9.257 -0.5178  0.9626 -1.0556
    6CHL1   C22  426  -0.039   0.296   9.271  0.1833 -0.2744  0.1793
    6CHL1  H22A  427  -0.118   0.375   9.273  0.9740  0.5480 -0.1125
    6CHL1  H22B  428   0.058   0.349   9.263 -0.0116  0.0390 -0.1992
    6CHL1   C23  429  -0.039   0.247   9.124 -0.8011 -0.0662 -0.2686
    6CHL1  H23A  430   0.051   0.195   9.085 -1.3055 -1.0376 -0.1713
    6CHL1  H23B  431  -0.127   0.181   9.108 -0.3199 -0.6380 -0.5835
    6CHL1   C24  432  -0.094   0.359   9.029 -0.1147  0.3319 -0.2031
    6CHL1  H24A  433  -0.164   0.417   9.093  2.4149  2.3830  0.8425
    6CHL1  H24B  434  -0.011   0.428   9.006  1.0616 -1.2754 -0.9939
    6CHL1   C25  435  -0.154   0.324   8.891  0.8231 -0.1762 -0.0516
    6CHL1   H25  436  -0.222   0.239   8.911 -0.2937  1.0462  1.6374
    6CHL1   C26  437  -0.228   0.446   8.830 -0.2603 -0.3702  0.1537
    6CHL1  H26A  438  -0.314   0.472   8.895 -2.8411 -3.9504 -1.4936
    6CHL1  H26B  439  -0.160   0.534   8.829  1.8157 -1.9015  1.2097
    6CHL1  H26C  440  -0.254   0.427   8.724 -0.5842  1.4762 -0.1369
    6CHL1   C27  441  -0.043   0.271   8.791 -0.2835  0.0520  0.1290
    6CHL1  H27A  442   0.025   0.353   8.760  0.6970  0.7186  3.6465
    6CHL1  H27B  443   0.001   0.181   8.839 -0.2791 -0.7957 -1.4058
    6CHL1  H27C  444  -0.106   0.236   8.706  0.3047 -0.2086 -0.2056
    7CHL1    C3  445   3.820   3.422  10.495  0.5775  0.3687  0.3562
    7CHL1    H3  446   3.927   3.398  10.484  0.3890  0.5155 -2.5753
    7CHL1    O3  447   3.789   3.402  10.630  0.2485  0.2181 -0.0495
    7CHL1   H3'  448   3.696   3.387  10.642  0.6817 -3.0586  0.0381
    7CHL1    C4  449   3.777   3.555  10.435 -0.2069 -0.1888 -0.2475
    7CHL1   H4A  450   3.667   3.567  10.445 -0.1677 -0.9117  1.4600
    7CHL1   H4B  451   3.825   3.637  10.493  1.3253 -1.2738  0.1097
    7CHL1    C5  452   3.811   3.568  10.296 -0.2377 -0.3270 -0.8133
    7CHL1    C6  453   3.901   3.666  10.257  0.2030 -0.0101  0.3367
    7CHL1    H6  454   3.939   3.741  10.328  1.1387  0.6138 -0.7782
    7CHL1    C7  455   3.935   3.687  10.107  0.7906 -0.2626 -0.1663
    7CHL1   H7A  456   3.925   3.793  10.075 -4.6557 -1.0591 -2.0246
    7CHL1   H7B  457   4.036   3.652  10.076  0.9517  0.7675 -0.8351
    7CHL1    C8  458   3.843   3.603  10.009 -0.4583 -0.1800  0.0649
    7CHL1    H8  459   3.748   3.658   9.993  0.2258  1.5981  1.7468
    7CHL1   C14  460   3.920   3.589   9.879 -0.0186 -0.2784 -0.5936
    7CHL1   H14  461   4.012   3.533   9.908  0.4295  1.5938  1.8993
    7CHL1   C15  462   3.969   3.713   9.805  0.9198 -0.4809 -0.1206
    7CHL1  H15A  463   3.886   3.786   9.800  1.3069 -0.1039 -3.3411
    7CHL1  H15B  464   4.054   3.770   9.850 -0.2721  2.0832 -0.9386
    7CHL1   C16  465   4.005   3.669   9.666 -0.1163  0.0916 -0.1270
    7CHL1  H16A  466   3.954   3.729   9.588 -0.8958 -0.1637  0.1684
    7CHL1  H16B  467   4.115   3.682   9.663  0.0920 -0.6736  2.0474
    7CHL1   C17  468   3.948   3.526   9.649 -0.2253 -0.0467  0.0970
    7CHL1   H17  469   4.040   3.467   9.668  1.2742  2.1743  0.1683
    7CHL1   C13  470   3.848   3.518   9.764 -0.7260  0.3050 -0.9541
    7CHL1   C18  471   3.715   3.578   9.723 -0.0508 -0.6676  0.1194
    7CHL1  H18A  472   3.742   3.678   9.682  2.2148 -0.8279  1.0883
    7CHL1  H18B  473   3.676   3.519   9.637  0.2144  1.1067 -1.2838
    7CHL1  H18C  474   3.645   3.597   9.807 -2.2200 -0.0913 -1.6869
    7CHL1   C12  475   3.823   3.374   9.814  0.6243 -0.0690  0.0270
    7CHL1  H12A  476   3.762   3.303   9.755  2.4343 -2.5802  0.9990
    7CHL1  H12B  477   3.920   3.322   9.834 -0.9715 -2.4895  2.0810
    7CHL1   C11  478   3.752   3.378   9.953  0.1161  0.4599  0.6198
    7CHL1  H11A  479   3.651   3.423   9.939 -1.4897 -2.3052  2.3727
    7CHL1  H11B  480   3.735   3.274   9.989  1.0126  0.1694  0.2517
    7CHL1    C9  481   3.820   3.464  10.062 -0.5467  0.3419  0.0784
    7CHL1    H9  482   3.913   3.406  10.076 -1.3570 -0.9248  0.3761
    7CHL1   C10  483   3.748   3.470  10.195  0.3864  0.6611 -0.0311
    7CHL1   C19  484   3.588   3.488  10.168 -0.0992 -0.8326 -0.0186
    7CHL1  H19A  485   3.574   3.572  10.096  1.3954 -0.0829  0.5238
    7CHL1  H19B  486   3.552   3.396  10.117 -1.8473  0.4036 -1.1426
    7CHL1  H19C  487   3.533   3.496  10.264  1.6836 -1.1479  1.0910
    7CHL1    C1  488   3.761   3.329  10.265  0.0408  0.7540 -0.3026
    7CHL1   H1A  489   3.696   3.257  10.212 -2.3061  1.7668  1.0330
    7CHL1   H1B  490   3.869   3.306  10.254  0.1168  1.5808 -1.4840
    7CHL1    C2  491   3.737   3.314  10.418  0.5604  0.2567  0.5940
    7CHL1   H2A  492   3.756   3.210  10.451  0.8045 -0.2507 -1.0324
    7CHL1   H2B  493   3.629   3.326  10.441 -0.3569 -2.8028 -1.5983
    7CHL1   C20  494   3.912   3.494   9.504 -0.4458 -0.0779  0.5951
    7CHL1   H20  495   3.840   3.569   9.464 -0.0055 -0.2563 -0.5468
    7CHL1   C21  496   3.843   3.362   9.502 -0.8163  0.0688  0.2584
    7CHL1  H21A  497   3.905   3.285   9.552 -1.0194  0.6735  1.4804
    7CHL1  H21B  498   3.819   3.324   9.400  1.2268 -1.0417  0.1415
    7CHL1  H21C  499   3.744   3.357   9.552 -0.8735  2.3243  0.4791
    7CHL1   C22  500   4.043   3.489   9.424  0.2894 -0.4910 -0.4474
    7CHL1  H22A  501   4.114   3.569   9.453 -0.4466 -0.6684  2.0794
    7CHL1  H22B  502   4.092   3.391   9.442  0.4854 -0.0489  1.6889
    7CHL1   C23  503   4.029   3.514   9.278  0.0548 -0.2937  0.3365
    7CHL1  H23A  504   3.951   3.450   9.231  1.5663 -2.5335  0.7088
    7CHL1  H23B  505   3.997   3.618   9.258 -0.8211 -0.5743  0.2277
    7CHL1   C24  506   4.159   3.488   9.198  0.4041  0.0820 -0.4515
    7CHL1  H24A  507   4.238   3.537   9.258 -0.7270  0.3380  0.8912
    7CHL1  H24B  508   4.191   3.382   9.205 -4.1693 -1.4429  1.3945
    7CHL1   C25  509   4.165   3.540   9.053  0.5728 -0.8063  0.1316
    7CHL1   H25  510   4.127   3.643   9.064 -0.2524 -1.2518  1.7103
    7CHL1   C26  511   4.314   3.532   9.002  0.5234  0.6299 -0.3175
    7CHL1  H26A  512   4.343   3.426   8.983  1.0707  0.6665  0.2731
    7CHL1  H26B  513   4.324   3.572   8.898  2.4844  1.2446  0.0587
    7CHL1  H26C  514   4.385   3.567   9.079 -1.1305  0.8885  1.1380
    7CHL1   C27  515   4.063   3.468   8.958  0.5036  0.1056 -0.4996
    7CHL1  H27A  516   4.058   3.516   8.859  0.0653  0.3760 -0.3506
    7CHL1  H27B  517   4.073   3.357   8.960 -1.3693 -0.1703  3.0409
    7CHL1  H27C  518   3.956   3.483   8.984  0.1845  0.2872 -1.8639
    8CHL1    C3  519   3.164   5.088  10.436  0.0574 -0.7424 -0.6913
    8CHL1    H3  520   3.264   5.040  10.433  0.4345 -0.0016 -0.2477
    8CHL1    O3  521   3.163   5.138  10.569 -0.7505  0.3932  0.3797
    8CHL1   H3'  522   3.084   5.190  10.583  0.3919  2.3369  0.0988
    8CHL1    C4  523   3.135   5.197  10.334 -0.5960  0.3019  0.3249
    8CHL1   H4A  524   3.033   5.233  10.354 -1.0169 -0.1269 -0.9143
    8CHL1   H4B  525   3.193   5.290  10.353 -1.0275  0.4734  0.8127
    8CHL1    C5  526   3.134   5.147  10.194  0.1071 -0.4732  0.3413
    8CHL1    C6  527   3.214   5.200  10.100  0.3117  0.5543  0.6423
    8CHL1    H6  528   3.287   5.278  10.126 -0.7284  0.8856  2.7641
    8CHL1    C7  529   3.201   5.142   9.955 -0.0542  0.3725  0.1005
    8CHL1   H7A  530   3.210   5.223   9.880 -1.5594 -0.5016 -1.0638
    8CHL1   H7B  531   3.289   5.076   9.938  0.4663  0.8208  1.0109
    8CHL1    C8  532   3.064   5.078   9.911 -0.0780  0.1972  0.0842
    8CHL1    H8  533   2.989   5.159   9.915  0.8000  1.2697 -2.6443
    8CHL1   C14  534   3.069   5.023   9.774  0.2106 -0.0381 -0.3906
    8CHL1   H14  535   3.152   4.949   9.776  0.9128  0.6787 -1.4847
    8CHL1   C15  536   3.109   5.115   9.653  0.8362 -0.2647 -0.2239
    8CHL1  H15A  537   3.056   5.213   9.659  0.3707 -0.4323 -1.3193
    8CHL1  H15B  538   3.219   5.122   9.637  0.6059  1.4259 -1.4493
    8CHL1   C16  539   3.048   5.039   9.533 -0.2968 -0.0923  0.4437
    8CHL1  H16A  540   2.981   5.111   9.482  3.1407  1.6911 -2.0006
    8CHL1  H16B  541   3.128   4.998   9.467  1.4861  0.8756  1.9290
    8CHL1   C17  542   2.981   4.905   9.593  0.5218 -0.7296 -0.3455
    8CHL1   H17  543   3.063   4.831   9.608  1.3856  0.5226  1.4366
    8CHL1   C13  544   2.941   4.947   9.738  0.5872  0.4251  0.3978
    8CHL1   C18  545   2.816   5.044   9.732 -0.4526 -0.2311  0.2585
    8CHL1  H18A  546   2.855   5.129   9.673  0.4484  0.2839  1.5501
    8CHL1  H18B  547   2.733   4.989   9.681  0.4355  1.0008 -2.7143
    8CHL1  H18C  548   2.773   5.065   9.832  0.1910 -1.0639  0.7296
    8CHL1   C12  549   2.926   4.831   9.840 -0.3865 -0.2024  0.2295
    8CHL1  H12A  550   2.827   4.782   9.827  0.2314 -2.0155  1.8677
    8CHL1  H12B  551   3.000   4.753   9.811 -0.3608  0.1109 -0.5924
    8CHL1   C11  552   2.922   4.877   9.990  0.0890 -0.0184 -0.3594
    8CHL1  H11A  553   2.825   4.929  10.004 -1.1656 -2.4934  0.9812
    8CHL1  H11B  554   2.924   4.795  10.066  2.8297 -0.8708 -1.2613
    8CHL1    C9  555   3.044   4.973  10.024  0.2707 -0.0533  0.9089
    8CHL1    H9  556   3.138   4.914  10.021 -0.5083 -1.2995 -0.0514
    8CHL1   C10  557   3.033   5.037  10.160  0.6447 -0.2331 -0.3642
    8CHL1   C19  558   2.896   5.111  10.178 -0.0397 -1.1110 -0.6794
    8CHL1  H19A  559   2.800   5.061  10.153 -1.2484  1.0177 -0.4543
    8CHL1  H19B  560   2.874   5.151  10.279 -0.7199 -1.6121 -0.6238
    8CHL1  H19C  561   2.902   5.191  10.101 -1.2084  1.0834  1.3901
    8CHL1    C1  562   3.046   4.931  10.273  0.4129 -0.2674  0.6192
    8CHL1   H1A  563   2.961   4.860  10.275  0.0707  0.1287  0.4655
    8CHL1   H1B  564   3.137   4.870  10.256  0.1368 -0.5763  0.2314
    8CHL1    C2  565   3.056   4.976  10.419 -0.1033 -0.1481  0.3702
    8CHL1   H2A  566   3.063   4.890  10.489  1.9767  1.8416  2.7640
    8CHL1   H2B  567   2.961   5.030  10.437 -0.3808  0.9554 -3.4873
    8CHL1   C20  568   2.885   4.858   9.483  0.2859  0.0438 -0.1677
    8CHL1   H20  569   2.807   4.935   9.468  0.0567 -0.2725 -0.6195
    8CHL1   C21  570   2.819   4.726   9.532 -0.0581  0.2204  0.6050
    8CHL1  H21A  571   2.782   4.738   9.636 -1.2126  0.8729  0.1367
    8CHL1  H21B  572   2.892   4.642   9.535 -0.3609 -0.1229 -0.8029
    8CHL1  H21C  573   2.732   4.694   9.471  1.0428 -1.3152 -0.2238
    8CHL1   C22  574   2.942   4.827   9.338  0.3163 -0.3785  0.0118
    8CHL1  H22A  575   3.021   4.898   9.303  1.0801 -2.1094 -2.0075
    8CHL1  H22B  576   2.991   4.729   9.354  0.7123  0.1315  2.3027
    8CHL1   C23  577   2.839   4.827   9.223  0.0155  0.6393 -0.3027
    8CHL1  H23A  578   2.752   4.760   9.241 -0.4239  1.6088  1.4532
    8CHL1  H23B  579   2.798   4.930   9.223 -1.0873  0.2592 -2.2837
    8CHL1   C24  580   2.898   4.809   9.088  0.1109  0.2660  0.4855
    8CHL1  H24A  581   2.986   4.875   9.073 -0.2317  0.5134 -0.5558
    8CHL1  H24B  582   2.917   4.700   9.076  1.1859  0.6165 -1.2890
    8CHL1   C25  583   2.797   4.838   8.976  0.0728  0.1153 -0.6052
    8CHL1   H25  584   2.702   4.787   9.001 -0.6380  2.3386  1.6469
    8CHL1   C26  585   2.756   4.981   8.954  0.7420 -0.6130 -0.3343
    8CHL1  H26A  586   2.661   4.987   8.898 -1.5049  0.0066  3.1946
    8CHL1  H26B  587   2.733   5.032   9.050  3.6561  0.1277  0.0751
    8CHL1  H26C  588   2.834   5.039   8.900 -0.7717  0.1675 -1.7620
    8CHL1   C27  589   2.844   4.788   8.845 -0.8041  0.1861 -0.0649
    8CHL1  H27A  590   2.952   4.812   8.842 -0.6186 -0.1749  2.0726
    8CHL1  H27B  591   2.830   4.678   8.841 -2.8945  0.2703  2.4935
    8CHL1  H27C  592   2.794   4.838   8.758  2.8562  1.8358 -1.4328
    9CHL1    C3  593   1.518   6.007  10.470 -0.2828  0.6470 -0.1725
    9CHL1    H3  594   1.429   6.074  10.466 -0.4851  0.6511  2.5427
    9CHL1    O3  595   1.503   5.961  10.598 -0.7716  0.0623 -0.0440
    9CHL1   H3'  596   1.590   5.930  10.624 -0.5120  1.2207  0.4850
    9CHL1    C4  597   1.528   5.893  10.368  0.6284 -0.0159 -0.0728
    9CHL1   H4A  598   1.622   5.835  10.384 -1.2132 -2.9119  0.9837
    9CHL1   H4B  599   1.442   5.825  10.385  1.6455 -1.2370  0.3448
    9CHL1    C5  600   1.534   5.954  10.231  0.5411 -0.0013  0.7078
    9CHL1    C6  601   1.439   5.930  10.140  0.2034  0.3195  0.7231
    9CHL1    H6  602   1.355   5.870  10.178 -0.7139  1.8209  1.1596
    9CHL1    C7  603   1.430   5.996  10.002  0.7254  0.8071  0.3740
    9CHL1   H7A  604   1.396   5.922   9.927 -0.2099 -1.6189  3.0410
    9CHL1   H7B  605   1.353   6.076  10.004 -1.8315 -1.5269  1.5696
    9CHL1    C8  606   1.571   6.054   9.963  0.1422  0.1237 -0.5696
    9CHL1    H8  607   1.633   5.963   9.948 -0.4120 -0.3436 -0.0807
    9CHL1   C14  608   1.564   6.145   9.841  0.6680 -0.0357  0.5335
    9CHL1   H14  609   1.523   6.244   9.868  1.0156  0.5874 -1.0775
    9CHL1   C15  610   1.475   6.090   9.724 -0.4174  0.2233  0.2372
    9CHL1  H15A  611   1.482   5.980   9.711 -0.4523  0.5150 -2.9021
    9CHL1  H15B  612   1.368   6.118   9.732 -0.0599  1.4213  1.2535
    9CHL1   C16  613   1.529   6.164   9.602  0.1471  0.9145  0.6432
    9CHL1  H16A  614   1.569   6.084   9.536 -3.8914  1.0488 -2.3543
    9CHL1  H16B  615   1.457   6.222   9.541  0.5861  0.1965 -0.6027
    9CHL1   C17  616   1.649   6.250   9.659 -0.0698 -0.1654  0.4599
    9CHL1   H17  617   1.600   6.344   9.692 -0.6360  0.1806 -1.2498
    9CHL1   C13  618   1.701   6.179   9.787 -0.2693 -0.0492  1.1615
    9CHL1   C18  619   1.784   6.057   9.747 -0.3564  0.8340 -0.9893
    9CHL1  H18A  620   1.726   5.987   9.683 -1.0841  1.8638 -1.4821
    9CHL1  H18B  621   1.872   6.080   9.684  0.6951  1.3825  0.6196
    9CHL1  H18C  622   1.820   6.003   9.837 -0.4541 -0.5076 -1.7405
    9CHL1   C12  623   1.760   6.271   9.895  0.1576 -0.1752 -0.1244
    9CHL1  H12A  624   1.863   6.299   9.867 -0.7045 -0.3885 -4.1084
    9CHL1  H12B  625   1.698   6.358   9.924 -0.4579 -0.4779 -0.5060
    9CHL1   C11  626   1.775   6.194  10.026  0.0150 -0.0010 -0.2134
    9CHL1  H11A  627   1.847   6.111  10.010 -0.8371 -0.8473  0.2150
    9CHL1  H11B  628   1.807   6.259  10.110  1.1302 -1.1521  0.2953
    9CHL1    C9  629   1.638   6.126  10.078  0.1729 -0.7053  0.4079
    9CHL1    H9  630   1.576   6.216  10.094 -1.2168 -1.3534 -0.9807
    9CHL1   C10  631   1.651   6.043  10.206 -0.1889  0.9504  0.3638
    9CHL1   C19  632   1.781   5.959  10.195 -1.1273  0.8724  0.4693
    9CHL1  H19A  633   1.777   5.893  10.106 -1.4691  0.4625  0.7827
    9CHL1  H19B  634   1.875   6.017  10.180 -0.7786 -0.2242 -2.1852
    9CHL1  H19C  635   1.799   5.884  10.274  0.8130  1.7041  0.8931
    9CHL1    C1  636   1.674   6.143  10.324 -0.5326  0.0817  1.4553
    9CHL1   H1A  637   1.775   6.188  10.312  0.1393 -1.8037 -0.6901
    9CHL1   H1B  638   1.606   6.230  10.324  3.4682  3.5657  0.6520
    9CHL1    C2  639   1.656   6.074  10.457 -0.5075  0.0881 -0.2113
    9CHL1   H2A  640   1.666   6.157  10.530  0.4252 -1.3588  1.4018
    9CHL1   H2B  641   1.737   5.998  10.468 -0.5511 -0.2871 -2.2076
    9CHL1   C20  642   1.752   6.295   9.554 -0.1666  0.1657 -0.3394
    9CHL1   H20  643   1.789   6.207   9.499  0.4096  0.6311 -0.7049
    9CHL1   C21  644   1.879   6.371   9.608  0.2041 -0.5266 -0.2569
    9CHL1  H21A  645   1.941   6.306   9.674 -0.7726 -0.1920  1.0303
    9CHL1  H21B  646   1.848   6.462   9.663 -0.0152 -0.4107 -0.5712
    9CHL1  H21C  647   1.948   6.416   9.534  2.7086  0.6298  2.5635
    9CHL1   C22  648   1.696   6.391   9.448 -0.7017 -0.3181  0.0178
    9CHL1  H22A  649   1.599   6.353   9.409 -0.5121 -0.5817 -0.2021
    9CHL1  H22B  650   1.668   6.490   9.491 -1.6168 -1.5838  2.5414
    9CHL1   C23  651   1.784   6.415   9.324 -0.0735 -0.1063  0.4952
    9CHL1  H23A  652   1.878   6.465   9.357 -0.3205  0.1735  0.7859
    9CHL1  H23B  653   1.793   6.325   9.260 -0.6824  0.5662 -0.5516
    9CHL1   C24  654   1.720   6.521   9.227 -0.0924 -0.5540  0.3577
    9CHL1  H24A  655   1.640   6.477   9.164 -1.6966  1.6480  0.7108
    9CHL1  H24B  656   1.669   6.592   9.296 -1.1994 -1.2685  0.2911
    9CHL1   C25  657   1.819   6.600   9.136 -0.3769  0.3750  0.2318
    9CHL1   H25  658   1.899   6.632   9.206  0.0518 -0.3080  0.0615
    9CHL1   C26  659   1.888   6.500   9.039  0.2579 -0.0745 -0.5953
    9CHL1  H26A  660   1.809   6.438   8.993  0.5117 -1.5322  0.8718
    9CHL1  H26B  661   1.936   6.557   8.955  1.5505 -2.5467 -1.6416
    9CHL1  H26C  662   1.953   6.439   9.105 -1.0232  0.6552  1.3972
    9CHL1   C27  663   1.749   6.721   9.071  0.4884  0.5690 -0.2175
    9CHL1  H27A  664   1.702   6.798   9.137 -0.8710  1.4338 -2.1189
    9CHL1  H27B  665   1.829   6.775   9.017  3.8530 -2.0497  1.7640
    9CHL1  H27C  666   1.674   6.690   8.995 -0.3568  1.3439  0.2651
   10CHL1    C3  667   5.319   5.691  10.220  0.2997 -1.2698 -0.2280
   10CHL1    H3  668   5.429   5.710  10.217  0.2534  0.5591  3.4834
   10CHL1    O3  669   5.297   5.651  10.354 -0.3137 -0.0516  0.0157
   10CHL1   H3'  670   5.327   5.562  10.368 -2.3958 -0.5431  1.9727
   10CHL1    C4  671   5.233   5.810  10.181  0.1502  0.1736 -0.5747
   10CHL1   H4A  672   5.126   5.780  10.179  0.1900  0.0581 -0.8765
   10CHL1   H4B  673   5.242   5.893  10.255  1.6977 -0.4760  0.0046
   10CHL1    C5  674   5.269   5.860  10.048  0.1378 -0.1742 -0.8647
   10CHL1    C6  675   5.316   5.987  10.035  0.1754 -0.8985 -0.1452
   10CHL1    H6  676   5.326   6.058  10.118 -0.4085  0.9531 -1.5729
   10CHL1    C7  677   5.355   6.045   9.899 -0.0611 -0.1972 -0.0616
   10CHL1   H7A  678   5.306   6.144   9.884 -0.7007 -0.5954 -0.6580
   10CHL1   H7B  679   5.462   6.070   9.916  0.2851 -2.0364  0.7225
   10CHL1    C8  680   5.324   5.954   9.782 -0.0075 -0.0899  0.3785
   10CHL1    H8  681   5.219   5.980   9.757 -0.3154  0.6554  2.2907
   10CHL1   C14  682   5.411   5.991   9.671  0.1146 -0.0948  0.1477
   10CHL1   H14  683   5.509   5.956   9.711 -0.5755 -1.7331  0.5000
   10CHL1   C15  684   5.445   6.142   9.630 -0.1976 -0.1152  0.5515
   10CHL1  H15A  685   5.346   6.192   9.623 -0.2915 -0.2465  0.9475
   10CHL1  H15B  686   5.506   6.196   9.706  1.6429 -0.5941 -0.5353
   10CHL1   C16  687   5.509   6.123   9.493 -0.1158 -0.4387 -0.7822
   10CHL1  H16A  688   5.444   6.182   9.425  0.3242  1.1499  0.1285
   10CHL1  H16B  689   5.616   6.151   9.497  0.4613 -2.6426  1.0263
   10CHL1   C17  690   5.497   5.978   9.452  0.6076  0.3555  0.2563
   10CHL1   H17  691   5.592   5.929   9.483  2.3054  0.5300 -3.9371
   10CHL1   C13  692   5.392   5.909   9.536  0.0534 -0.1504  0.3418
   10CHL1   C18  693   5.257   5.946   9.484 -0.1668 -0.0041 -0.3651
   10CHL1  H18A  694   5.261   6.055   9.464 -2.8632  0.2105 -0.1572
   10CHL1  H18B  695   5.236   5.887   9.392  2.2578  0.4005 -1.2335
   10CHL1  H18C  696   5.183   5.936   9.566  0.5250  1.9309  0.5430
   10CHL1   C12  697   5.407   5.761   9.568  0.4999 -0.0484 -0.5335
   10CHL1  H12A  698   5.373   5.709   9.477 -1.0973  1.3899 -0.8191
   10CHL1  H12B  699   5.511   5.739   9.602 -0.4455 -2.1024  1.2538
   10CHL1   C11  700   5.314   5.724   9.681 -0.8476 -0.2746  0.8115
   10CHL1  H11A  701   5.209   5.749   9.652 -0.4309  0.4062 -0.1550
   10CHL1  H11B  702   5.319   5.618   9.712 -0.8378 -0.0329  1.6752
   10CHL1    C9  703   5.340   5.808   9.809  0.1422  0.2699 -0.4574
   10CHL1    H9  704   5.445   5.793   9.842 -0.6086 -3.4849  0.7024
   10CHL1   C10  705   5.262   5.751   9.933 -0.1741 -0.0962 -0.1856
   10CHL1   C19  706   5.116   5.729   9.892  0.1200 -0.5966  0.3195
   10CHL1  H19A  707   5.048   5.711   9.979  0.8392  0.9105  1.2288
   10CHL1  H19B  708   5.080   5.824   9.847  0.9127 -0.2452  0.4229
   10CHL1  H19C  709   5.101   5.648   9.817  0.5382 -0.5055  0.1358
   10CHL1    C1  710   5.330   5.614   9.975 -0.7068  0.6432  0.3305
   10CHL1   H1A  711   5.298   5.531   9.909  1.6384 -0.1687  0.1433
   10CHL1   H1B  712   5.437   5.628   9.949 -1.2410  2.4162 -1.1025
   10CHL1    C2  713   5.296   5.577  10.125  0.0838  0.1412 -0.3350
   10CHL1   H2A  714   5.349   5.484  10.153  1.3908  1.2034  0.8681
   10CHL1   H2B  715   5.188   5.554  10.129 -0.1436  1.1818 -0.3281
   10CHL1   C20  716   5.510   5.943   9.298  0.5720 -0.2810  0.2127
   10CHL1   H20  717   5.497   5.834   9.285 -0.7163 -0.4448  2.4320
   10CHL1   C21  718   5.655   5.985   9.268 -0.1848 -1.1479  0.0369
   10CHL1  H21A  719   5.699   5.921   9.188  1.2587 -0.6171  0.3669
   10CHL1  H21B  720   5.723   5.962   9.353  0.2474 -0.1698 -0.0313
   10CHL1  H21C  721   5.663   6.092   9.241 -1.3560 -1.7637 -3.1954
   10CHL1   C22  722   5.408   6.010   9.198 -1.3524  0.0498 -1.1242
   10CHL1  H22A  723   5.308   5.963   9.214 -1.9808  0.7143 -2.8461
   10CHL1  H22B  724   5.392   6.119   9.208  1.5966  0.3510  2.8695
   10CHL1   C23  725   5.448   5.988   9.046  0.5721  0.0811 -0.1235
   10CHL1  H23A  726   5.527   6.065   9.031  1.2786 -0.6979 -0.4952
   10CHL1  H23B  727   5.486   5.886   9.024  0.5970  0.5493 -2.5915
   10CHL1   C24  728   5.335   6.011   8.952 -1.0507 -0.2798  0.1942
   10CHL1  H24A  729   5.370   5.996   8.848 -1.6955  2.3385 -0.4815
   10CHL1  H24B  730   5.264   5.929   8.976  0.0389 -0.8689  1.4823
   10CHL1   C25  731   5.272   6.147   8.959  0.0472  0.1553  0.4873
   10CHL1   H25  732   5.245   6.173   9.063 -1.5056  1.4014 -0.1832
   10CHL1   C26  733   5.371   6.259   8.916  0.0520 -0.3772 -0.5464
   10CHL1  H26A  734   5.346   6.367   8.928  0.4046 -0.0567 -2.3983
   10CHL1  H26B  735   5.474   6.247   8.956  0.1178  3.1054  0.6648
   10CHL1  H26C  736   5.397   6.241   8.809  0.6043  1.3111 -0.7349
   10CHL1   C27  737   5.151   6.151   8.868  0.2774 -0.0422 -0.0131
   10CHL1  H27A  738   5.178   6.097   8.774  0.2792 -0.0804  0.0090
   10CHL1  H27B  739   5.067   6.096   8.916 -0.4085  0.7113 -0.3366
   10CHL1  H27C  740   5.118   6.255   8.850 -1.6270 -0.5397  0.3844
   11CHL1    C3  741   3.308   2.130  10.103 -0.7625  0.2770 -0.2357
   11CHL1    H3  742   3.297   2.237  10.075  1.4550  0.9103  1.0113
   11CHL1    O3  743   3.329   2.122  10.245  0.2711  0.2664 -0.2115
   11CHL1   H3'  744   3.347   2.028  10.249 -2.4330 -0.3945 -1.3708
   11CHL1    C4  745   3.185   2.048  10.070 -0.3203  0.3064 -0.2737
   11CHL1   H4A  746   3.196   1.945  10.108  2.4894 -0.4268 -2.7583
   11CHL1   H4B  747   3.115   2.106  10.134  0.7999 -1.1961  2.5147
   11CHL1    C5  748   3.153   2.036   9.930 -0.2316 -0.6137  0.8828
   11CHL1    C6  749   3.038   2.087   9.878  0.2249 -0.5607  0.0351
   11CHL1    H6  750   2.968   2.135   9.948  3.7091 -0.2677  3.6669
   11CHL1    C7  751   3.005   2.102   9.732  0.0807  0.4861  0.4009
   11CHL1   H7A  752   2.902   2.071   9.704  0.9854 -2.2848 -0.1650
   11CHL1   H7B  753   3.013   2.210   9.705  1.0913  0.4794  0.6330
   11CHL1    C8  754   3.101   2.015   9.642 -0.2302 -0.5474 -1.0224
   11CHL1    H8  755   3.064   1.911   9.657 -2.5323  0.3047 -0.3202
   11CHL1   C14  756   3.077   2.057   9.496  0.3284  0.0957 -0.8366
   11CHL1   H14  757   3.093   2.167   9.495 -1.0636  0.3059 -1.0628
   11CHL1   C15  758   2.935   2.039   9.442 -0.3883 -0.3555 -0.4612
   11CHL1  H15A  759   2.895   1.938   9.464  1.3887 -0.9134  0.4211
   11CHL1  H15B  760   2.867   2.114   9.487  1.4794  0.7475  0.6466
   11CHL1   C16  761   2.953   2.063   9.292 -0.5347 -0.7121 -0.4215
   11CHL1  H16A  762   2.912   1.981   9.230  0.0380 -0.7549 -0.7562
   11CHL1  H16B  763   2.899   2.156   9.263  1.8492  1.1682  0.8040
   11CHL1   C17  764   3.109   2.076   9.273 -0.0119 -0.1756  0.0584
   11CHL1   H17  765   3.125   2.185   9.288 -1.8603 -0.0851  1.7136
   11CHL1   C13  766   3.174   2.000   9.391  0.4678  0.0130  0.7383
   11CHL1   C18  767   3.149   1.844   9.361  0.0919  0.1762  0.3736
   11CHL1  H18A  768   3.066   1.824   9.290  1.3220 -0.3706 -0.9558
   11CHL1  H18B  769   3.245   1.812   9.317 -0.9198  0.2636 -2.0325
   11CHL1  H18C  770   3.127   1.782   9.450 -1.1780  1.0353  0.6918
   11CHL1   C12  771   3.320   2.036   9.421  0.0837 -0.0426 -0.4640
   11CHL1  H12A  772   3.391   1.975   9.362 -0.2831 -0.8203 -0.1189
   11CHL1  H12B  773   3.331   2.146   9.413  1.2538 -0.1600 -0.5214
   11CHL1   C11  774   3.359   2.000   9.572  0.8018  0.6420  0.6721
   11CHL1  H11A  775   3.348   1.890   9.572  0.0954  0.6992  2.0850
   11CHL1  H11B  776   3.461   2.030   9.603  1.5980 -0.8006 -0.4349
   11CHL1    C9  777   3.247   2.040   9.677  0.6566  0.0414 -0.2137
   11CHL1    H9  778   3.266   2.150   9.682 -0.5562  0.2273  3.8505
   11CHL1   C10  779   3.264   2.001   9.826 -0.6784 -0.3098 -0.3749
   11CHL1   C19  780   3.283   1.844   9.830  0.5291 -0.1909  0.1384
   11CHL1  H19A  781   3.299   1.822   9.938 -1.2290  1.8961  0.8898
   11CHL1  H19B  782   3.188   1.790   9.808  1.0790 -0.0379 -3.0780
   11CHL1  H19C  783   3.362   1.808   9.761 -1.8580  2.6114 -4.5448
   11CHL1    C1  784   3.396   2.073   9.881  0.6077 -0.0709 -0.0016
   11CHL1   H1A  785   3.479   2.027   9.823  0.2195  2.4489 -2.8069
   11CHL1   H1B  786   3.392   2.181   9.859 -0.5517  0.3729  2.1918
   11CHL1    C2  787   3.427   2.070  10.030 -0.3855  0.0684 -0.0036
   11CHL1   H2A  788   3.515   2.127  10.067 -1.7677  0.3292  3.2272
   11CHL1   H2B  789   3.450   1.964  10.055 -1.0671 -0.2113 -0.5435
   11CHL1   C20  790   3.160   2.044   9.132 -0.1172 -0.1223 -1.0297
   11CHL1   H20  791   3.173   1.936   9.111  3.1538 -0.1904  0.7542
   11CHL1   C21  792   3.303   2.107   9.111  0.4089 -0.3083 -0.0338
   11CHL1  H21A  793   3.373   2.083   9.195 -2.7532 -0.2208  2.8440
   11CHL1  H21B  794   3.286   2.216   9.121  1.8294 -0.0975  0.2928
   11CHL1  H21C  795   3.354   2.081   9.016 -2.3859  0.4884 -1.8688
   11CHL1   C22  796   3.071   2.103   9.018 -0.0614  0.1707  0.0456
   11CHL1  H22A  797   2.967   2.065   9.031  0.1327  0.3918  2.8793
   11CHL1  H22B  798   3.069   2.214   9.028  1.2094  0.2681 -0.5655
   11CHL1   C23  799   3.145   2.064   8.892  0.3871  0.1412  0.5800
   11CHL1  H23A  800   3.229   2.133   8.870 -0.8565  2.0927  1.7041
   11CHL1  H23B  801   3.192   1.964   8.898 -0.1309 -0.2182 -0.8738
   11CHL1   C24  802   3.041   2.074   8.770  1.0376 -0.0632  0.4974
   11CHL1  H24A  803   2.954   2.007   8.787 -0.6093  2.1466  1.1574
   11CHL1  H24B  804   2.998   2.176   8.775  0.4422 -0.3846  3.2552
   11CHL1   C25  805   3.108   2.060   8.636 -0.2657 -0.1349 -0.4333
   11CHL1   H25  806   3.024   2.043   8.564  0.3367  2.8933 -2.0326
   11CHL1   C26  807   3.186   2.189   8.596 -0.1259  0.4344  0.1132
   11CHL1  H26A  808   3.221   2.171   8.492 -0.8134 -1.9998  0.2477
   11CHL1  H26B  809   3.139   2.289   8.610 -2.4787 -0.7663  1.2356
   11CHL1  H26C  810   3.268   2.189   8.671 -2.1588  0.4350  2.4388
   11CHL1   C27  811   3.199   1.941   8.610 -0.3781  0.6750 -0.4668
   11CHL1  H27A  812   3.269   1.934   8.696  0.0437  0.7208 -0.8090
   11CHL1  H27B  813   3.138   1.848   8.619 -1.3428  1.4464  2.3260
   11CHL1  H27C  814   3.257   1.947   8.516 -0.9950  2.9867 -0.7645
   12CHL1    C3  815   4.100   4.879  10.333  0.1645  0.3673  0.2714
   12CHL1    H3  816   4.211   4.887  10.330  0.2240 -0.6577 -0.4130
   12CHL1    O3  817   4.053   4.940  10.451 -0.5402  0.2986 -0.4202
   12CHL1   H3'  818   4.006   4.870  10.496  0.8910  0.6777  1.8730
   12CHL1    C4  819   4.043   4.968  10.220  0.8962 -0.1102  0.0104
   12CHL1   H4A  820   3.932   4.967  10.233  0.5827  0.3533 -2.2272
   12CHL1   H4B  821   4.082   5.071  10.233  0.5432  0.2039 -1.2814
   12CHL1    C5  822   4.079   4.911  10.085  0.4935 -0.3073  0.4695
   12CHL1    C6  823   4.144   4.990   9.998 -0.2677  0.3316  0.7720
   12CHL1    H6  824   4.164   5.093  10.030 -0.0233 -0.0607  1.9156
   12CHL1    C7  825   4.180   4.944   9.863 -0.0354 -0.2891 -0.4277
   12CHL1   H7A  826   4.168   5.025   9.788  0.7047 -0.1204 -0.3712
   12CHL1   H7B  827   4.287   4.914   9.864  0.1596  0.3752  0.5838
   12CHL1    C8  828   4.091   4.830   9.820 -0.2021  0.0923  0.6329
   12CHL1    H8  829   3.989   4.864   9.791 -0.7226 -1.9920 -0.1395
   12CHL1   C14  830   4.151   4.772   9.690 -0.1212  0.2745  0.3707
   12CHL1   H14  831   4.250   4.732   9.722 -0.7661 -0.5783  1.3746
   12CHL1   C15  832   4.188   4.867   9.571 -0.3273 -0.2267  0.5728
   12CHL1  H15A  833   4.121   4.952   9.547  1.9094  1.9377  1.5002
   12CHL1  H15B  834   4.287   4.912   9.599 -0.4708  0.6897 -0.3319
   12CHL1   C16  835   4.215   4.772   9.450 -0.2074  0.0138 -0.4195
   12CHL1  H16A  836   4.135   4.791   9.376 -1.0268  0.1353  0.4744
   12CHL1  H16B  837   4.310   4.780   9.394  0.6625 -1.7096  0.6994
   12CHL1   C17  838   4.179   4.632   9.507  0.9757  0.4232  0.0408
   12CHL1   H17  839   4.271   4.589   9.552  1.4680  0.0212 -1.2935
   12CHL1   C13  840   4.089   4.652   9.628  0.0716 -0.7038 -0.8384
   12CHL1   C18  841   3.946   4.678   9.572 -0.1667  0.6368  0.5570
   12CHL1  H18A  842   3.947   4.761   9.498 -0.4001  0.9968  0.9527
   12CHL1  H18B  843   3.905   4.588   9.521  0.7915  0.6760 -0.3064
   12CHL1  H18C  844   3.867   4.710   9.643 -1.0755 -0.6721  0.1784
   12CHL1   C12  845   4.084   4.544   9.733  0.0666  0.6005  0.7785
   12CHL1  H12A  846   4.027   4.464   9.682 -1.1363  0.5621  2.1368
   12CHL1  H12B  847   4.190   4.519   9.755 -0.1818 -0.6098  0.6880
   12CHL1   C11  848   4.019   4.588   9.864  0.8138  0.2095 -0.3289
   12CHL1  H11A  849   3.913   4.604   9.835  1.0592  1.5479 -0.5143
   12CHL1  H11B  850   4.022   4.514   9.947  1.6292  0.2124 -0.3524
   12CHL1    C9  851   4.084   4.723   9.920  0.4208  0.4826 -0.7986
   12CHL1    H9  852   4.192   4.701   9.935  0.5305 -0.8610 -3.0558
   12CHL1   C10  853   4.030   4.768  10.063  0.1541  0.8106 -0.0223
   12CHL1   C19  854   3.872   4.756  10.052  0.0078  0.3685  0.2798
   12CHL1  H19A  855   3.826   4.829  10.122 -0.3556 -0.2061  0.6462
   12CHL1  H19B  856   3.839   4.783   9.949 -1.2717  0.3826  0.6750
   12CHL1  H19C  857   3.842   4.650  10.067 -1.0939  0.3297 -1.8372
   12CHL1    C1  858   4.091   4.683  10.182 -0.0488 -0.7912  0.7037
   12CHL1   H1A  859   4.055   4.578  10.170 -1.6766 -0.1081 -0.9046
   12CHL1   H1B  860   4.201   4.691  10.173 -0.0595 -0.2401  1.0215
   12CHL1    C2  861   4.047   4.738  10.318 -0.0014 -0.1849 -0.4128
   12CHL1   H2A  862   4.099   4.685  10.401  0.2005  0.3847 -0.1711
   12CHL1   H2B  863   3.939   4.738  10.344 -0.0609  1.1051 -0.5918
   12CHL1   C20  864   4.151   4.517   9.403  0.5004 -1.0675 -0.2023
   12CHL1   H20  865   4.105   4.431   9.456 -0.4725 -0.3067  0.2341
   12CHL1   C21  866   4.275   4.459   9.337 -0.0020  0.4215  0.3736
   12CHL1  H21A  867   4.239   4.370   9.281  0.5914 -0.5454  1.4932
   12CHL1  H21B  868   4.353   4.436   9.413  0.4981  1.1358  0.0888
   12CHL1  H21C  869   4.318   4.539   9.273 -2.2802  1.8483  0.4670
   12CHL1   C22  870   4.043   4.558   9.295  0.0607  0.2813 -0.2238
   12CHL1  H22A  871   3.983   4.642   9.338  0.8600  0.3439  0.8037
   12CHL1  H22B  872   4.101   4.612   9.216  1.0423 -0.9840 -0.3885
   12CHL1   C23  873   3.968   4.445   9.232  0.3208  0.6046 -0.1225
   12CHL1  H23A  874   4.046   4.370   9.207  1.5288  2.2347 -1.5075
   12CHL1  H23B  875   3.906   4.407   9.316 -0.1142 -0.0264 -0.7165
   12CHL1   C24  876   3.883   4.485   9.118 -0.1273 -0.2324 -0.0664
   12CHL1  H24A  877   3.803   4.558   9.141 -0.1328  0.5640 -2.3455
   12CHL1  H24B  878   3.951   4.538   9.048  0.0049 -0.6280 -0.2466
   12CHL1   C25  879   3.837   4.361   9.039  0.2198 -0.1427  0.2212
   12CHL1   H25  880   3.918   4.302   8.992  0.0127  0.5815 -1.0885
   12CHL1   C26  881   3.741   4.276   9.132  0.2886 -0.4167 -0.5732
   12CHL1  H26A  882   3.803   4.252   9.221 -0.2430  2.1929  0.5943
   12CHL1  H26B  883   3.656   4.339   9.165  1.1633  1.2130 -1.2733
   12CHL1  H26C  884   3.719   4.184   9.074 -1.5138 -1.4102  1.5374
   12CHL1   C27  885   3.753   4.416   8.931  1.0740 -0.6306  0.4781
   12CHL1  H27A  886   3.663   4.470   8.968 -0.9657  0.0436 -4.6310
   12CHL1  H27B  887   3.808   4.482   8.861  1.0143 -0.0228  1.0058
   12CHL1  H27C  888   3.709   4.325   8.884  0.5161 -0.9465  1.5721
   13CHL1    C3  889   3.041   6.072  10.140  0.5662 -0.3323 -0.1415
   13CHL1    H3  890   2.943   6.113  10.110  1.3850  2.0421  0.2594
   13CHL1    O3  891   3.042   6.040  10.278 -0.0813  0.0754  0.1415
   13CHL1   H3'  892   3.137   6.034  10.295 -0.3149  1.0234  1.9729
   13CHL1    C4  893   3.081   5.949  10.054 -0.2923  0.0370  0.5448
   13CHL1   H4A  894   3.180   5.910  10.085  0.0090  0.1608 -0.2433
   13CHL1   H4B  895   3.007   5.873  10.085 -0.9021  0.9141  1.2880
   13CHL1    C5  896   3.077   5.980   9.902 -0.7705  0.6033  0.5440
   13CHL1    C6  897   2.996   5.925   9.812 -0.1692  0.6423 -0.6961
   13CHL1    H6  898   2.924   5.852   9.851 -1.7537  2.8075  0.5912
   13CHL1    C7  899   3.002   5.940   9.660  0.1174 -0.4853 -0.2387
   13CHL1   H7A  900   3.018   5.842   9.610  0.1255  0.5771 -2.4419
   13CHL1   H7B  901   2.905   5.977   9.620  1.5635  3.0149 -0.8639
   13CHL1    C8  902   3.117   6.039   9.616  0.7416  0.1855  0.1819
   13CHL1    H8  903   3.206   5.972   9.619 -0.9880 -2.3473 -1.0634
   13CHL1   C14  904   3.078   6.096   9.485 -0.5874 -0.5886  0.2743
   13CHL1   H14  905   2.983   6.152   9.498 -2.2073 -2.7711 -1.4622
   13CHL1   C15  906   3.048   5.997   9.373 -0.5255  1.3989 -0.2807
   13CHL1  H15A  907   3.116   5.910   9.365 -2.2255  0.0207 -0.3894
   13CHL1  H15B  908   2.943   5.962   9.382  0.4961 -1.4522  2.1210
   13CHL1   C16  909   3.050   6.086   9.243  0.5625 -0.0549 -0.0998
   13CHL1  H16A  910   3.095   6.037   9.154  0.2557  1.4240 -1.1077
   13CHL1  H16B  911   2.944   6.102   9.212 -0.6364 -0.2128  3.4017
   13CHL1   C17  912   3.105   6.224   9.291 -0.3911  0.3088 -0.1963
   13CHL1   H17  913   3.024   6.295   9.319 -0.5110 -0.5363  1.7807
   13CHL1   C13  914   3.175   6.200   9.425  0.2038 -0.4748 -0.4568
   13CHL1   C18  915   3.307   6.129   9.398 -0.3173  0.0794  0.2198
   13CHL1  H18A  916   3.392   6.198   9.378  0.3311 -0.4147  1.2062
   13CHL1  H18B  917   3.341   6.062   9.479  0.0119  2.1455  1.8827
   13CHL1  H18C  918   3.310   6.066   9.307  0.1819  0.5497 -0.1033
   13CHL1   C12  919   3.200   6.317   9.524  0.2140 -0.6848  0.1321
   13CHL1  H12A  920   3.281   6.385   9.490 -0.6571  0.4845  0.3394
   13CHL1  H12B  921   3.104   6.372   9.529  1.1868  1.2366 -1.3794
   13CHL1   C11  922   3.249   6.258   9.662  0.9988 -0.2515  0.1214
   13CHL1  H11A  923   3.344   6.202   9.655  0.7974 -0.6017  0.1352
   13CHL1  H11B  924   3.259   6.344   9.731  1.4626  1.4898 -2.0211
   13CHL1    C9  925   3.133   6.158   9.719 -0.5797 -0.0213  1.0066
   13CHL1    H9  926   3.043   6.222   9.724 -1.0575 -0.5563 -0.3284
   13CHL1   C10  927   3.165   6.107   9.868  0.1387 -0.1395  0.1734
   13CHL1   C19  928   3.314   6.071   9.890  0.4973 -0.2774  0.3404
   13CHL1  H19A  929   3.349   5.999   9.813 -1.2908 -1.5665  0.6697
   13CHL1  H19B  930   3.376   6.161   9.872  0.7817 -0.7600 -1.2627
   13CHL1  H19C  931   3.333   6.035   9.993 -0.7648  2.2518  1.5602
   13CHL1    C1  932   3.133   6.226   9.968  0.0229  0.1503  0.3875
   13CHL1   H1A  933   3.216   6.294   9.940  1.2639 -1.3857  0.2163
   13CHL1   H1B  934   3.032   6.265   9.944  0.3829  0.3430 -0.8909
   13CHL1    C2  935   3.134   6.189  10.120 -0.4980  0.3628 -0.6693
   13CHL1   H2A  936   3.104   6.283  10.171  1.8865  1.4072 -1.0762
   13CHL1   H2B  937   3.239   6.165  10.150 -0.5688  0.8582 -0.0009
   13CHL1   C20  938   3.189   6.287   9.180 -0.1450 -0.7228  0.1353
   13CHL1   H20  939   3.286   6.234   9.175 -0.2207 -0.9557  0.9717
   13CHL1   C21  940   3.222   6.437   9.213 -0.4063 -0.1734  0.7636
   13CHL1  H21A  941   3.252   6.500   9.127 -0.4294 -0.9219  0.1995
   13CHL1  H21B  942   3.303   6.449   9.288 -1.7147 -0.3210  2.2649
   13CHL1  H21C  943   3.135   6.483   9.265 -2.0369 -0.7469 -1.3086
   13CHL1   C22  944   3.128   6.287   9.037 -0.0065  0.0963 -0.2401
   13CHL1  H22A  945   3.206   6.345   8.982  0.4587  0.2620  0.5824
   13CHL1  H22B  946   3.131   6.180   9.006  0.0400 -0.3987  1.4081
   13CHL1   C23  947   2.995   6.354   9.026 -0.2703 -0.0144  0.0793
   13CHL1  H23A  948   2.929   6.315   9.106  0.4015 -1.1544  0.0890
   13CHL1  H23B  949   3.009   6.462   9.047 -0.1584  0.0842 -0.4865
   13CHL1   C24  950   2.923   6.340   8.886 -0.3248  0.0893 -0.8611
   13CHL1  H24A  951   3.001   6.370   8.812  1.6627  0.7840  1.3690
   13CHL1  H24B  952   2.902   6.232   8.874 -0.7454  0.0493  0.1812
   13CHL1   C25  953   2.790   6.412   8.874 -0.8317 -0.5841 -0.1919
   13CHL1   H25  954   2.805   6.517   8.908 -1.3121 -0.7068  0.4184
   13CHL1   C26  955   2.739   6.426   8.731 -0.2319 -0.0176  0.2748
   13CHL1  H26A  956   2.815   6.471   8.663 -2.0005  1.2019 -0.9686
   13CHL1  H26B  957   2.712   6.325   8.695  2.2777 -1.4779  2.1772
   13CHL1  H26C  958   2.649   6.490   8.734  1.2495  2.2816 -0.9086
   13CHL1   C27  959   2.679   6.346   8.962  0.9012  0.1570  0.5918
   13CHL1  H27A  960   2.707   6.336   9.069  0.9875 -1.7998  0.4087
   13CHL1  H27B  961   2.598   6.421   8.972  1.7831  1.0955  0.9810
   13CHL1  H27C  962   2.643   6.247   8.928  0.2289  0.2958  0.8872
   14CHL1    C3  963   4.264   3.135  10.414 -0.0841 -0.0388  1.0010
   14CHL1    H3  964   4.314   3.234  10.412 -0.3252  0.0875 -1.4713
   14CHL1    O3  965   4.208   3.117  10.548  0.2881 -0.1544  0.0287
   14CHL1   H3'  966   4.126   3.167  10.558 -0.0471 -0.5087 -0.9115
   14CHL1    C4  967   4.144   3.143  10.314 -0.5393 -0.4591 -0.4620
   14CHL1   H4A  968   4.070   3.063  10.337 -3.9427  2.0846 -1.7716
   14CHL1   H4B  969   4.085   3.235  10.333 -0.1102 -0.0572 -1.0402
   14CHL1    C5  970   4.206   3.163  10.171 -0.3234 -0.0774 -0.7261
   14CHL1    C6  971   4.187   3.279  10.106 -0.2928 -0.2845  0.1006
   14CHL1    H6  972   4.128   3.361  10.150 -2.2263 -0.3317 -2.1999
   14CHL1    C7  973   4.237   3.306   9.973  0.5885 -1.3838  0.3860
   14CHL1   H7A  974   4.165   3.353   9.903  0.6813  1.0683  1.8478
   14CHL1   H7B  975   4.327   3.370   9.979 -0.2088  0.0726 -2.0289
   14CHL1    C8  976   4.279   3.178   9.893  0.3387  0.8198  0.1236
   14CHL1    H8  977   4.182   3.128   9.868  1.2469 -0.3430 -1.2490
   14CHL1   C14  978   4.358   3.212   9.767  0.8141  0.2251 -0.1050
   14CHL1   H14  979   4.445   3.278   9.784 -0.8409  2.8115 -1.0953
   14CHL1   C15  980   4.278   3.296   9.664  0.1570  0.4333  0.1165
   14CHL1  H15A  981   4.170   3.268   9.657  0.4308 -0.7540  0.3525
   14CHL1  H15B  982   4.293   3.404   9.685 -1.3216  0.6506  0.1674
   14CHL1   C16  983   4.338   3.248   9.527  0.8029  0.4907 -0.1603
   14CHL1  H16A  984   4.253   3.203   9.471 -0.9542 -1.7880  3.9253
   14CHL1  H16B  985   4.366   3.339   9.469 -2.0527  0.9984 -0.9075
   14CHL1   C17  986   4.450   3.151   9.561 -0.3037 -0.2036  0.5212
   14CHL1   H17  987   4.533   3.221   9.583 -1.6246  1.6962 -0.3182
   14CHL1   C13  988   4.404   3.084   9.690  0.8578  0.6585 -0.2200
   14CHL1   C18  989   4.279   2.995   9.658  0.3405 -0.2258 -0.2891
   14CHL1  H18A  990   4.216   2.966   9.745  1.0005 -3.3615 -0.7548
   14CHL1  H18B  991   4.211   3.031   9.578 -0.7690 -0.4178  0.5450
   14CHL1  H18C  992   4.304   2.893   9.622 -0.1669 -1.0612  1.5912
   14CHL1   C12  993   4.507   3.011   9.779 -0.6736 -0.1454 -0.8293
   14CHL1  H12A  994   4.556   2.925   9.728 -1.5502 -0.1921 -1.6311
   14CHL1  H12B  995   4.588   3.080   9.812  1.5531 -1.8548 -2.3665
   14CHL1   C11  996   4.436   2.962   9.909  0.4726 -1.3218  0.5807
   14CHL1  H11A  997   4.363   2.884   9.878  0.7670 -0.3239 -3.0919
   14CHL1  H11B  998   4.504   2.922   9.987  2.2475 -0.8805 -0.6830
   14CHL1    C9  999   4.360   3.084   9.982  0.1322  0.6079  0.7450
   14CHL1    H9 1000   4.443   3.150  10.013  1.0634  0.2240 -0.7941
   14CHL1   C10 1001   4.290   3.048  10.116  0.7442 -0.5700  0.1086
   14CHL1   C19 1002   4.187   2.941  10.087 -0.1556  0.5020 -0.5030
   14CHL1  H19A 1003   4.239   2.850  10.050 -0.7299  0.4852 -1.2866
   14CHL1  H19B 1004   4.135   2.904  10.179  2.1016 -0.5780  0.4036
   14CHL1  H19C 1005   4.114   2.964  10.006 -0.4649  3.1930  0.4357
   14CHL1    C1 1006   4.394   3.005  10.220  0.0694 -0.3548 -0.0521
   14CHL1   H1A 1007   4.429   2.900  10.204  0.1285 -0.0733 -1.9614
   14CHL1   H1B 1008   4.483   3.070  10.229 -0.9348  1.0121  0.2774
   14CHL1    C2 1009   4.345   3.017  10.373 -0.0600  0.4592 -0.0410
   14CHL1   H2A 1010   4.417   2.978  10.448  0.1015 -1.7237 -1.2347
   14CHL1   H2B 1011   4.269   2.936  10.372  0.8149 -0.3956  0.5771
   14CHL1   C20 1012   4.483   3.063   9.436  0.5977  0.5962 -0.5754
   14CHL1   H20 1013   4.419   2.972   9.437 -0.3229  1.2195  0.3680
   14CHL1   C21 1014   4.629   3.019   9.447 -0.4879  0.0069 -0.3712
   14CHL1  H21A 1015   4.656   2.977   9.546  0.5258  1.7044  0.1207
   14CHL1  H21B 1016   4.694   3.105   9.418 -0.5877  0.3592  0.4485
   14CHL1  H21C 1017   4.646   2.941   9.369 -1.4846 -2.3832  1.6942
   14CHL1   C22 1018   4.463   3.138   9.300 -0.3698  0.2800  0.3487
   14CHL1  H22A 1019   4.359   3.174   9.286  0.6787  2.6161 -2.1412
   14CHL1  H22B 1020   4.531   3.226   9.304 -0.5643  0.4026  3.0110
   14CHL1   C23 1021   4.501   3.062   9.177 -0.3928  0.1281  0.1062
   14CHL1  H23A 1022   4.602   3.020   9.160  1.4956  3.6608  1.4413
   14CHL1  H23B 1023   4.429   2.977   9.179  0.1360 -0.3226  1.8683
   14CHL1   C24 1024   4.465   3.142   9.045  1.0375  0.0354  0.9795
   14CHL1  H24A 1025   4.354   3.144   9.033  0.9879  0.7379  1.4798
   14CHL1  H24B 1026   4.494   3.247   9.064 -1.7570  0.7582  1.7627
   14CHL1   C25 1027   4.521   3.093   8.911 -0.7666 -0.3952 -0.4665
   14CHL1   H25 1028   4.489   3.159   8.827 -0.0802 -1.2258 -1.4053
   14CHL1   C26 1029   4.673   3.104   8.905  0.5093  0.5023 -0.2650
   14CHL1  H26A 1030   4.711   3.109   8.801  2.0510 -2.1345  0.0794
   14CHL1  H26B 1031   4.699   3.202   8.949 -3.3892  1.3256  0.6227
   14CHL1  H26C 1032   4.722   3.020   8.959  0.2942  0.1532 -0.6023
   14CHL1   C27 1033   4.479   2.957   8.870  0.0311  0.1189 -0.7162
   14CHL1  H27A 1034   4.369   2.942   8.868  0.0146  0.1779 -0.2108
   14CHL1  H27B 1035   4.520   2.936   8.768  1.8102 -2.1293  0.3532
   14CHL1  H27C 1036   4.522   2.879   8.936  2.4000  2.0253  0.1409
   15CHL1    C3 1037   5.296   1.319  10.171 -0.6615 -0.3192 -0.4669
   15CHL1    H3 1038   5.385   1.379  10.143  1.2182 -0.1333  4.7661
   15CHL1    O3 1039   5.311   1.278  10.305 -0.3051 -0.0494 -0.1886
   15CHL1   H3' 1040   5.262   1.196  10.316  1.3648 -1.1462 -0.5494
   15CHL1    C4 1041   5.168   1.389  10.175  0.4161  0.0831  0.2103
   15CHL1   H4A 1042   5.089   1.323  10.216 -0.9921  1.6600  0.1361
   15CHL1   H4B 1043   5.163   1.465  10.255 -1.5011  1.7170 -1.3509
   15CHL1    C5 1044   5.144   1.440  10.035  0.2627 -0.1406  1.1277
   15CHL1    C6 1045   5.114   1.572  10.010 -0.0144 -0.5005  0.1577
   15CHL1    H6 1046   5.090   1.642  10.092  3.1416  1.2175 -0.2129
   15CHL1    C7 1047   5.096   1.629   9.875  0.1856  0.4656 -0.3519
   15CHL1   H7A 1048   5.005   1.693   9.882  0.7369  1.1286  1.2313
   15CHL1   H7B 1049   5.173   1.701   9.841 -1.1993  1.2565 -1.9899
   15CHL1    C8 1050   5.072   1.523   9.764  0.1753 -0.0040  0.5362
   15CHL1    H8 1051   4.964   1.498   9.772 -0.0725  0.9717  0.3545
   15CHL1   C14 1052   5.107   1.586   9.621  0.1249  1.0140 -0.4142
   15CHL1   H14 1053   5.215   1.607   9.634  0.4483 -0.4994 -0.4218
   15CHL1   C15 1054   5.046   1.718   9.584  0.2319 -0.0483 -0.3476
   15CHL1  H15A 1055   4.938   1.694   9.590 -0.5850  3.4251  0.9837
   15CHL1  H15B 1056   5.073   1.812   9.637  1.1620  0.8261 -2.2746
   15CHL1   C16 1057   5.076   1.730   9.439  0.5893 -0.0717 -0.2067
   15CHL1  H16A 1058   4.981   1.739   9.382  1.0381  0.4122 -0.8829
   15CHL1  H16B 1059   5.137   1.820   9.417  1.9693 -0.8099  0.5062
   15CHL1   C17 1060   5.142   1.601   9.395 -0.9454 -0.3172 -0.7021
   15CHL1   H17 1061   5.251   1.618   9.393 -0.8003 -1.2222 -1.1637
   15CHL1   C13 1062   5.096   1.494   9.498 -0.3559  0.1387  0.3053
   15CHL1   C18 1063   4.948   1.455   9.467 -0.8767  0.2999  0.1480
   15CHL1  H18A 1064   4.924   1.384   9.385 -1.2114 -0.9813  1.3192
   15CHL1  H18B 1065   4.903   1.433   9.566 -0.7821  2.2628  0.6795
   15CHL1  H18C 1066   4.894   1.544   9.427 -0.6835  0.3454 -0.0150
   15CHL1   C12 1067   5.184   1.370   9.529  0.2190 -0.9639 -0.7229
   15CHL1  H12A 1068   5.160   1.292   9.453  0.5240 -0.3595 -1.4425
   15CHL1  H12B 1069   5.292   1.390   9.514  0.0946 -0.5761 -1.1038
   15CHL1   C11 1070   5.137   1.298   9.658 -0.3490 -0.3608  0.3844
   15CHL1  H11A 1071   5.027   1.284   9.668 -0.3670  0.2205  1.1212
   15CHL1  H11B 1072   5.199   1.209   9.682 -1.1223 -0.4937  2.0581
   15CHL1    C9 1073   5.159   1.400   9.783 -0.6422 -0.3291 -0.7607
   15CHL1    H9 1074   5.265   1.432   9.776 -1.0441  0.7888 -2.0762
   15CHL1   C10 1075   5.149   1.335   9.923  0.0585 -0.3728  0.3711
   15CHL1   C19 1076   5.018   1.260   9.926  0.0414 -0.7370 -0.4523
   15CHL1  H19A 1077   4.934   1.328   9.901  0.5944  0.7925  1.5496
   15CHL1  H19B 1078   5.034   1.174   9.857  0.4245 -0.3899 -0.7983
   15CHL1  H19C 1079   5.002   1.233  10.033  1.2214  1.1045  0.2353
   15CHL1    C1 1080   5.270   1.239   9.934 -0.2581  0.2207 -0.6651
   15CHL1   H1A 1081   5.265   1.149   9.870  1.3471  0.3428 -1.0112
   15CHL1   H1B 1082   5.365   1.285   9.898  1.5796 -0.8054  2.4881
   15CHL1    C2 1083   5.296   1.194  10.084  1.1115  0.4991  0.7680
   15CHL1   H2A 1084   5.380   1.127  10.111  2.2225  1.8220  0.7145
   15CHL1   H2B 1085   5.203   1.143  10.116  1.1335 -0.2243 -0.2628
   15CHL1   C20 1086   5.114   1.578   9.241  0.2816 -0.2648  0.2715
   15CHL1   H20 1087   5.006   1.596   9.223  0.1233 -0.6980  0.7725
   15CHL1   C21 1088   5.158   1.438   9.203 -0.2476  0.0096 -0.4262
   15CHL1  H21A 1089   5.249   1.418   9.263 -0.3364  0.2399 -0.2128
   15CHL1  H21B 1090   5.194   1.425   9.098 -1.5741 -0.2510 -0.8693
   15CHL1  H21C 1091   5.084   1.358   9.222 -0.9840  0.7955  0.0755
   15CHL1   C22 1092   5.189   1.687   9.148  0.5720 -0.2921  0.0888
   15CHL1  H22A 1093   5.177   1.790   9.187  2.9874  0.5452 -1.1768
   15CHL1  H22B 1094   5.297   1.663   9.141  0.5057 -0.3773 -0.6793
   15CHL1   C23 1095   5.125   1.692   9.008  0.4592 -0.0755 -0.2244
   15CHL1  H23A 1096   5.198   1.729   8.933 -0.6750 -0.1346 -1.3919
   15CHL1  H23B 1097   5.092   1.588   8.984 -2.0660  0.1832  1.6975
   15CHL1   C24 1098   5.002   1.789   9.005  0.2847  0.0876  0.4737
   15CHL1  H24A 1099   4.942   1.758   9.092 -0.3546 -1.1963 -0.3913
   15CHL1  H24B 1100   5.053   1.888   9.008 -1.3898  1.0424 -0.6894
   15CHL1   C25 1101   4.906   1.785   8.886  1.3237 -0.1788 -0.2754
   15CHL1   H25 1102   4.833   1.868   8.895  1.9684  0.1690  2.7825
   15CHL1   C26 1103   4.985   1.787   8.755  0.1177  0.3092  0.3886
   15CHL1  H26A 1104   5.034   1.688   8.738 -1.4408 -0.3791 -0.3319
   15CHL1  H26B 1105   4.921   1.801   8.665 -0.5211 -1.7552  0.4667
   15CHL1  H26C 1106   5.065   1.863   8.758  0.8097 -0.3391  4.4205
   15CHL1   C27 1107   4.809   1.665   8.891 -0.1250 -0.2557 -0.1126
   15CHL1  H27A 1108   4.750   1.646   8.984 -0.6037 -1.5640 -0.6687
   15CHL1  H27B 1109   4.752   1.664   8.796 -0.3884  0.5966  0.0204
   15CHL1  H27C 1110   4.873   1.575   8.896 -0.3661 -0.3873  0.9391
   16CHL1    C3 1111   5.307   2.406  10.374 -0.2289 -0.5627 -0.3947
   16CHL1    H3 1112   5.208   2.441  10.337  0.5052 -0.3091 -2.2197
   16CHL1    O3 1113   5.317   2.438  10.515 -0.0353  0.5071  0.0635
   16CHL1   H3' 1114   5.282   2.527  10.509 -2.1068 -0.3087 -0.9465
   16CHL1    C4 1115   5.318   2.249  10.345 -0.3934  0.2639 -0.3870
   16CHL1   H4A 1116   5.417   2.208  10.377  0.8021  2.1915 -1.4198
   16CHL1   H4B 1117   5.241   2.190  10.398  1.7345 -2.1703  0.2470
   16CHL1    C5 1118   5.311   2.232  10.195  0.6477  0.5010 -0.5322
   16CHL1    C6 1119   5.208   2.171  10.138  0.5091  0.4258  0.1360
   16CHL1    H6 1120   5.136   2.123  10.205  0.3621 -0.1640 -0.4363
   16CHL1    C7 1121   5.195   2.146   9.988  0.3274 -0.1150 -0.6540
   16CHL1   H7A 1122   5.164   2.040   9.973 -1.4400  0.5168 -1.9518
   16CHL1   H7B 1123   5.109   2.203   9.947 -2.7539 -3.5729  0.4239
   16CHL1    C8 1124   5.326   2.173   9.903  0.7102 -0.5073  0.0646
   16CHL1    H8 1125   5.388   2.084   9.925 -0.5717 -0.8451  2.7377
   16CHL1   C14 1126   5.291   2.176   9.758 -0.8249  0.2349 -0.0488
   16CHL1   H14 1127   5.232   2.266   9.733  1.9954  1.3156 -3.6981
   16CHL1   C15 1128   5.225   2.047   9.691  0.1814  0.0111 -0.3844
   16CHL1  H15A 1129   5.285   1.966   9.738  2.3321  0.7647 -1.6917
   16CHL1  H15B 1130   5.116   2.053   9.712  0.2565 -1.1189  0.3978
   16CHL1   C16 1131   5.263   2.056   9.540  0.2115 -0.1376  0.0223
   16CHL1  H16A 1132   5.302   1.956   9.513  0.0666 -0.1165 -0.2687
   16CHL1  H16B 1133   5.165   2.086   9.496  0.9046 -0.4113 -1.7443
   16CHL1   C17 1134   5.361   2.177   9.521 -0.2938 -0.5514 -0.3565
   16CHL1   H17 1135   5.299   2.261   9.484  0.5486  0.5782  0.7468
   16CHL1   C13 1136   5.413   2.207   9.668  0.0309  1.0129 -0.5401
   16CHL1   C18 1137   5.535   2.112   9.686 -0.5019 -0.4407 -0.0099
   16CHL1  H18A 1138   5.563   2.112   9.793  1.2841  1.3420 -0.4248
   16CHL1  H18B 1139   5.507   2.006   9.668  0.5215 -0.7550  0.2402
   16CHL1  H18C 1140   5.625   2.128   9.623 -1.2533 -0.6214 -1.1709
   16CHL1   C12 1141   5.452   2.352   9.705 -0.4087  0.3129 -0.9373
   16CHL1  H12A 1142   5.541   2.371   9.643  0.8681  0.2525  0.7938
   16CHL1  H12B 1143   5.369   2.424   9.687 -1.0778  0.0759  0.9695
   16CHL1   C11 1144   5.493   2.368   9.863  0.6254 -0.0212  0.2510
   16CHL1  H11A 1145   5.591   2.319   9.879  0.4333  0.0469  1.7640
   16CHL1  H11B 1146   5.502   2.475   9.890  2.6118 -0.6884  2.5734
   16CHL1    C9 1147   5.383   2.305   9.953  0.0291 -0.2346 -0.3215
   16CHL1    H9 1148   5.293   2.370   9.950 -0.0689 -0.1751  2.2264
   16CHL1   C10 1149   5.422   2.301  10.111 -0.3356 -0.1504  0.5641
   16CHL1   C19 1150   5.551   2.224  10.131 -0.6108 -0.1586  0.4116
   16CHL1  H19A 1151   5.542   2.121  10.090 -0.1200 -0.2300  0.4746
   16CHL1  H19B 1152   5.637   2.274  10.082 -0.3840 -2.2020 -1.4076
   16CHL1  H19C 1153   5.574   2.220  10.240 -0.8726  0.6390  0.5077
   16CHL1    C1 1154   5.438   2.446  10.158  0.3319 -0.5419  0.6760
   16CHL1   H1A 1155   5.534   2.483  10.116  0.1131 -0.8202 -0.0872
   16CHL1   H1B 1156   5.364   2.507  10.101  0.0398 -1.2681  0.2678
   16CHL1    C2 1157   5.424   2.478  10.304 -0.4202 -0.3098  0.3156
   16CHL1   H2A 1158   5.405   2.587  10.314 -1.2317 -0.2303 -1.7392
   16CHL1   H2B 1159   5.518   2.452  10.357  0.6551 -0.1568 -1.4639
   16CHL1   C20 1160   5.456   2.158   9.404 -0.0174  0.2581 -0.4415
   16CHL1   H20 1161   5.512   2.063   9.416  0.4153  0.6938  1.3888
   16CHL1   C21 1162   5.555   2.271   9.386  0.0333 -0.3501  0.3552
   16CHL1  H21A 1163   5.611   2.256   9.291 -2.4136 -1.1687 -1.0563
   16CHL1  H21B 1164   5.633   2.275   9.465  0.6472  0.8694 -0.2822
   16CHL1  H21C 1165   5.501   2.368   9.382  1.9165  0.7601  0.7199
   16CHL1   C22 1166   5.378   2.124   9.279 -0.1272  0.0587  0.1469
   16CHL1  H22A 1167   5.287   2.062   9.294 -1.3102  1.3158 -1.4514
   16CHL1  H22B 1168   5.334   2.220   9.246 -1.3513  0.5997  3.1285
   16CHL1   C23 1169   5.468   2.061   9.163 -0.7247  1.7976 -0.1663
   16CHL1  H23A 1170   5.542   2.139   9.134 -0.4373  1.4613 -0.3360
   16CHL1  H23B 1171   5.513   1.970   9.209 -0.5435  1.2937 -1.3103
   16CHL1   C24 1172   5.387   2.008   9.043  0.1504  0.2742  0.5100
   16CHL1  H24A 1173   5.290   1.958   9.061 -0.3734  1.4911  1.2144
   16CHL1  H24B 1174   5.344   2.089   8.981 -2.8235 -2.3061 -1.0682
   16CHL1   C25 1175   5.472   1.918   8.948 -0.7231 -0.8187  0.6972
   16CHL1   H25 1176   5.502   1.823   8.997  0.0654 -0.3693  1.1165
   16CHL1   C26 1177   5.400   1.896   8.803 -0.0386  0.0936 -0.3487
   16CHL1  H26A 1178   5.393   1.990   8.744 -2.4340 -0.8744 -1.7017
   16CHL1  H26B 1179   5.456   1.823   8.741 -1.9562 -1.0953 -0.7649
   16CHL1  H26C 1180   5.301   1.851   8.821  0.3168 -0.1229  1.2613
   16CHL1   C27 1181   5.600   2.001   8.922 -0.4487  0.4803  0.5614
   16CHL1  H27A 1182   5.574   2.106   8.898 -0.3162  0.2712 -0.5487
   16CHL1  H27B 1183   5.672   1.976   9.003 -0.1548 -0.1264  0.1190
   16CHL1  H27C 1184   5.657   1.953   8.840 -0.7474  0.1901  0.5235
   17CHL1    C3 1185   0.803   6.563  10.461  0.2564  0.6385 -0.0901
   17CHL1    H3 1186   0.836   6.669  10.460 -0.6063  0.9157 -0.7092
   17CHL1    O3 1187   0.796   6.511  10.599 -0.5607  0.0980  0.0202
   17CHL1   H3' 1188   0.733   6.569  10.644  0.2083 -1.0736  2.8541
   17CHL1    C4 1189   0.667   6.558  10.398  0.1270 -0.0111 -0.3451
   17CHL1   H4A 1190   0.621   6.457  10.405 -1.4551  0.7163  0.4807
   17CHL1   H4B 1191   0.600   6.620  10.463  0.4125  2.0174 -1.8977
   17CHL1    C5 1192   0.665   6.597  10.257  0.3238  0.0500  0.2924
   17CHL1    C6 1193   0.592   6.700  10.210  0.2234 -0.2640  0.1805
   17CHL1    H6 1194   0.532   6.759  10.280  1.2403  0.3639  0.5505
   17CHL1    C7 1195   0.591   6.728  10.058 -0.1164 -0.2101 -0.0821
   17CHL1   H7A 1196   0.493   6.738  10.005  1.1304  0.0036 -2.4884
   17CHL1   H7B 1197   0.646   6.824  10.047 -3.1083  1.7279  0.4932
   17CHL1    C8 1198   0.656   6.618   9.971  0.0248 -0.0752  0.7290
   17CHL1    H8 1199   0.580   6.537   9.970 -0.2862  0.1996  1.5275
   17CHL1   C14 1200   0.681   6.668   9.832  0.2618  0.0890 -0.0654
   17CHL1   H14 1201   0.771   6.732   9.822 -0.6011  1.1599 -1.2934
   17CHL1   C15 1202   0.567   6.746   9.772  0.5477 -0.0709  0.0697
   17CHL1  H15A 1203   0.468   6.698   9.783  0.0764  0.7069 -0.6769
   17CHL1  H15B 1204   0.557   6.846   9.819  2.7365 -0.7609  2.2253
   17CHL1   C16 1205   0.604   6.741   9.620 -0.1714 -0.1900 -0.8725
   17CHL1  H16A 1206   0.514   6.725   9.557  0.6381 -0.6292 -1.9413
   17CHL1  H16B 1207   0.631   6.848   9.604 -1.8806  0.3815 -0.1459
   17CHL1   C17 1208   0.722   6.627   9.598  0.7476 -0.8932  0.0468
   17CHL1   H17 1209   0.813   6.690   9.590 -0.8508  1.6076  0.1693
   17CHL1   C13 1210   0.720   6.554   9.733 -0.2793  0.0034 -0.5595
   17CHL1   C18 1211   0.617   6.442   9.734  0.0291  0.5990 -0.3409
   17CHL1  H18A 1212   0.619   6.377   9.643  1.7694  0.7347 -0.4389
   17CHL1  H18B 1213   0.637   6.371   9.817  0.9295 -0.2619 -1.2594
   17CHL1  H18C 1214   0.511   6.472   9.739 -0.1362 -0.1177  0.8607
   17CHL1   C12 1215   0.849   6.500   9.782 -0.1313 -0.1662  0.3364
   17CHL1  H12A 1216   0.867   6.404   9.730 -1.8544 -0.3370 -0.0072
   17CHL1  H12B 1217   0.935   6.559   9.745 -1.0658  0.9100 -0.2099
   17CHL1   C11 1218   0.853   6.464   9.934  0.6542  0.6114 -0.5747
   17CHL1  H11A 1219   0.819   6.358   9.943  2.0592  0.2691  1.4479
   17CHL1  H11B 1220   0.962   6.470   9.957  1.1627 -1.5383 -2.0669
   17CHL1    C9 1221   0.783   6.563  10.032 -0.2478  0.9835  0.8822
   17CHL1    H9 1222   0.839   6.659  10.037 -0.8663  1.3438  1.0077
   17CHL1   C10 1223   0.753   6.509  10.167 -0.3170  0.0525  0.0910
   17CHL1   C19 1224   0.688   6.365  10.171  1.0097 -0.3234 -0.3355
   17CHL1  H19A 1225   0.739   6.294  10.102  1.7407  1.5526 -1.8208
   17CHL1  H19B 1226   0.694   6.327  10.275 -3.4375  1.2323  0.7345
   17CHL1  H19C 1227   0.579   6.362  10.147  0.6802  0.3721  0.9998
   17CHL1    C1 1228   0.893   6.494  10.240  0.0035 -0.8579 -0.3674
   17CHL1   H1A 1229   0.954   6.421  10.182 -2.3982 -1.0678 -2.8065
   17CHL1   H1B 1230   0.939   6.594  10.227 -1.4206  0.1456  1.7741
   17CHL1    C2 1231   0.891   6.472  10.391  0.3331 -0.2836  0.6119
   17CHL1   H2A 1232   0.996   6.473  10.428  0.6250  1.1073 -0.1663
   17CHL1   H2B 1233   0.848   6.371  10.405 -0.0857 -0.3481 -0.9108
   17CHL1   C20 1234   0.704   6.556   9.465 -0.2877  0.0193  0.1864
   17CHL1   H20 1235   0.607   6.503   9.472 -1.6727  2.4638  0.6569
   17CHL1   C21 1236   0.816   6.443   9.462  0.1745 -0.3971  0.7347
   17CHL1  H21A 1237   0.833   6.404   9.360 -2.5105 -0.8124  0.3662
   17CHL1  H21B 1238   0.774   6.355   9.515 -0.2280  0.5673  2.0890
   17CHL1  H21C 1239   0.909   6.487   9.505 -0.2330  0.4054  0.8024
   17CHL1   C22 1240   0.707   6.654   9.346  0.1097  0.5512 -0.2371
   17CHL1  H22A 1241   0.605   6.699   9.341 -1.3776 -2.1998  1.9537
   17CHL1  H22B 1242   0.787   6.728   9.362  0.4808  0.1449 -0.2025
   17CHL1   C23 1243   0.727   6.588   9.209 -0.2681  0.2862 -0.7404
   17CHL1  H23A 1244   0.827   6.540   9.218 -0.7983 -0.4773  1.7888
   17CHL1  H23B 1245   0.652   6.507   9.195 -0.2744  0.3593 -1.1516
   17CHL1   C24 1246   0.718   6.697   9.100 -0.7355 -0.4626 -0.9952
   17CHL1  H24A 1247   0.614   6.734   9.093 -0.6198  0.3346  0.8862
   17CHL1  H24B 1248   0.796   6.773   9.124  0.1484 -0.8220 -2.5964
   17CHL1   C25 1249   0.752   6.650   8.954  0.2043 -0.4233  1.2607
   17CHL1   H25 1250   0.681   6.567   8.935 -0.2275  0.3833 -0.9796
   17CHL1   C26 1251   0.728   6.771   8.864  0.2602 -0.2649  0.1366
   17CHL1  H26A 1252   0.800   6.856   8.879 -0.3793  0.3252 -0.0958
   17CHL1  H26B 1253   0.731   6.761   8.754 -0.3561  0.7039  0.0147
   17CHL1  H26C 1254   0.623   6.799   8.884 -0.9798 -3.1780 -1.6799
   17CHL1   C27 1255   0.894   6.602   8.940  0.5178  0.3235 -0.5892
   17CHL1  H27A 1256   0.889   6.492   8.955 -2.0966 -0.0927 -3.3864
   17CHL1  H27B 1257   0.931   6.617   8.836  1.1174  1.6044 -0.2084
   17CHL1  H27C 1258   0.963   6.656   9.007 -0.3644  1.9353 -0.9241
   18CHL1    C3 1259   5.118   4.578  10.232  0.2246  0.2137 -0.3459
   18CHL1    H3 1260   5.112   4.468  10.216  0.8457  0.4547 -2.6305
   18CHL1    O3 1261   5.151   4.596  10.368 -0.1093 -0.0386 -0.2385
   18CHL1   H3' 1262   5.157   4.691  10.381 -0.0553 -0.1730  0.8093
   18CHL1    C4 1263   5.226   4.632  10.137 -0.0651 -0.3783 -0.7154
   18CHL1   H4A 1264   5.233   4.740  10.165  2.0451 -0.6174 -0.1143
   18CHL1   H4B 1265   5.324   4.591  10.169 -0.5877 -0.7157  0.5301
   18CHL1    C5 1266   5.185   4.632   9.989 -0.1000 -0.2320 -0.7097
   18CHL1    C6 1267   5.265   4.568   9.904  0.0922 -0.8030 -0.1634
   18CHL1    H6 1268   5.370   4.546   9.930  0.4074 -2.2508 -2.3270
   18CHL1    C7 1269   5.231   4.545   9.759 -0.4496  0.5679  0.8407
   18CHL1   H7A 1270   5.318   4.585   9.703  1.6507 -0.7696  2.9554
   18CHL1   H7B 1271   5.239   4.438   9.731  1.6592  0.5017  1.4962
   18CHL1    C8 1272   5.105   4.611   9.703  0.3730  0.7344 -0.5058
   18CHL1    H8 1273   5.123   4.718   9.678 -1.0887  0.8415 -1.1948
   18CHL1   C14 1274   5.072   4.540   9.576 -0.0609  0.5844  0.0729
   18CHL1   H14 1275   5.060   4.431   9.590 -2.5044  0.7780 -0.1982
   18CHL1   C15 1276   5.181   4.562   9.467 -0.9017 -0.1585 -0.5756
   18CHL1  H15A 1277   5.214   4.668   9.474  3.1131 -1.1519 -2.0398
   18CHL1  H15B 1278   5.269   4.496   9.480 -0.3330 -0.1247 -3.6590
   18CHL1   C16 1279   5.106   4.536   9.339 -0.4078 -0.0729  1.1478
   18CHL1  H16A 1280   5.122   4.623   9.271  1.7834 -0.2482  1.3808
   18CHL1  H16B 1281   5.159   4.459   9.281  2.0600  1.6089  0.9934
   18CHL1   C17 1282   4.956   4.516   9.374 -0.6266 -0.0565 -0.4788
   18CHL1   H17 1283   4.945   4.410   9.406 -0.6076  0.6796  2.2697
   18CHL1   C13 1284   4.951   4.594   9.509  0.0491  0.2349 -0.4318
   18CHL1   C18 1285   4.960   4.749   9.486  0.5601 -0.1412  0.1691
   18CHL1  H18A 1286   4.944   4.805   9.581 -0.6183  0.9431 -0.6258
   18CHL1  H18B 1287   5.053   4.776   9.433 -0.0269 -0.4593 -1.0499
   18CHL1  H18C 1288   4.879   4.788   9.420  0.4639  3.5198  2.1688
   18CHL1   C12 1289   4.835   4.551   9.613 -1.6239 -0.0952  0.6647
   18CHL1  H12A 1290   4.739   4.565   9.559 -0.7279 -0.1081 -1.0056
   18CHL1  H12B 1291   4.840   4.442   9.632 -0.8014  0.1292  1.8051
   18CHL1   C11 1292   4.853   4.620   9.749  0.3418  0.9514 -0.9385
   18CHL1  H11A 1293   4.832   4.729   9.748 -0.7942  0.7570 -0.3368
   18CHL1  H11B 1294   4.782   4.576   9.823  1.6201 -1.6936 -1.1894
   18CHL1    C9 1295   4.992   4.593   9.808 -0.5343  0.8797 -0.5381
   18CHL1    H9 1296   4.994   4.484   9.829  0.1104  1.0682  0.4132
   18CHL1   C10 1297   5.039   4.659   9.945  0.1972 -0.7947  0.3159
   18CHL1   C19 1298   5.034   4.809   9.935  0.1856  0.0469  0.3571
   18CHL1  H19A 1299   4.934   4.841   9.897  0.3466 -1.2945 -1.2982
   18CHL1  H19B 1300   5.054   4.872  10.024  0.3538  2.3259 -1.2033
   18CHL1  H19C 1301   5.097   4.857   9.857  0.1097  0.7445  0.7214
   18CHL1    C1 1302   4.943   4.610  10.057  0.5022 -0.0320  0.4252
   18CHL1   H1A 1303   4.841   4.653  10.043 -0.3329 -1.3299  2.1107
   18CHL1   H1B 1304   4.931   4.500  10.052 -1.3987  0.0998  1.0200
   18CHL1    C2 1305   4.985   4.644  10.199 -0.5068 -0.1236 -0.7941
   18CHL1   H2A 1306   4.914   4.595  10.269 -1.6548  0.8504 -1.2558
   18CHL1   H2B 1307   4.986   4.751  10.230 -0.0131  0.4652 -2.7473
   18CHL1   C20 1308   4.869   4.559   9.260  0.0383  0.0831 -0.3702
   18CHL1   H20 1309   4.874   4.669   9.244 -1.2298  0.1068 -0.7422
   18CHL1   C21 1310   4.719   4.545   9.299 -0.1032 -0.5078 -0.9119
   18CHL1  H21A 1311   4.666   4.535   9.201  2.3777 -0.4740 -2.3344
   18CHL1  H21B 1312   4.687   4.640   9.347 -0.4896  0.1212 -2.3420
   18CHL1  H21C 1313   4.700   4.463   9.371 -0.7306  2.1671  2.1812
   18CHL1   C22 1314   4.898   4.486   9.126 -0.6023 -0.5019 -0.4999
   18CHL1  H22A 1315   5.003   4.493   9.093 -0.6597  0.3020 -0.5201
   18CHL1  H22B 1316   4.871   4.378   9.138 -1.2705 -0.4811 -1.6408
   18CHL1   C23 1317   4.810   4.526   9.005  0.6834 -0.1556  0.3465
   18CHL1  H23A 1318   4.705   4.497   9.025  0.0867  0.7134 -1.3211
   18CHL1  H23B 1319   4.816   4.636   8.992 -1.0008  0.0804  1.3770
   18CHL1   C24 1320   4.854   4.456   8.878 -0.2635  0.0175 -0.1162
   18CHL1  H24A 1321   4.962   4.479   8.868 -0.1984  0.6064  1.6366
   18CHL1  H24B 1322   4.850   4.348   8.904  2.8599 -0.3514 -0.7593
   18CHL1   C25 1323   4.768   4.488   8.754 -0.3234 -0.3131  0.0295
   18CHL1   H25 1324   4.778   4.591   8.714  2.5099 -0.6775 -0.4053
   18CHL1   C26 1325   4.831   4.404   8.637 -0.1945  0.4575  0.4635
   18CHL1  H26A 1326   4.940   4.421   8.643 -0.0022 -0.5436 -0.0546
   18CHL1  H26B 1327   4.819   4.298   8.667 -0.5133 -0.0139 -1.2374
   18CHL1  H26C 1328   4.785   4.435   8.540 -0.7641 -0.4208  0.4409
   18CHL1   C27 1329   4.620   4.438   8.767  0.5103  0.2014 -0.2072
   18CHL1  H27A 1330   4.626   4.327   8.772 -2.2883  0.0112  1.7454
   18CHL1  H27B 1331   4.562   4.477   8.853 -0.6535 -0.9322 -0.4400
   18CHL1  H27C 1332   4.558   4.469   8.681 -1.7294 -0.8075  0.9507
   19CHL1    C3 1333   4.286   2.577  10.295 -0.8362  0.0445 -0.4265
   19CHL1    H3 1334   4.252   2.679  10.266 -3.0709 -0.3495  0.5838
   19CHL1    O3 1335   4.275   2.558  10.433 -0.1145  0.0159 -0.1339
   19CHL1   H3' 1336   4.181   2.559  10.455  0.0329  2.0303  0.6575
   19CHL1    C4 1337   4.188   2.471  10.220 -0.5244  0.3536 -0.4834
   19CHL1   H4A 1338   4.226   2.373  10.255 -2.9235 -0.6476 -0.5400
   19CHL1   H4B 1339   4.085   2.480  10.259 -1.2532 -0.3519 -2.1336
   19CHL1    C5 1340   4.194   2.498  10.075  0.0180 -0.5575  0.4646
   19CHL1    C6 1341   4.084   2.539  10.014 -0.0712 -0.5169  0.5372
   19CHL1    H6 1342   3.992   2.564  10.070 -1.1530  0.2896 -1.4997
   19CHL1    C7 1343   4.079   2.579   9.870 -0.2557  0.6643 -0.5502
   19CHL1   H7A 1344   3.975   2.555   9.837 -0.2923  0.6181 -0.4014
   19CHL1   H7B 1345   4.097   2.689   9.867 -1.6126  0.9472  0.4564
   19CHL1    C8 1346   4.192   2.516   9.789  0.2703 -0.6268  0.1732
   19CHL1    H8 1347   4.175   2.406   9.786  0.5324 -0.6494 -2.0530
   19CHL1   C14 1348   4.187   2.574   9.645  0.4956  0.3010 -1.2409
   19CHL1   H14 1349   4.194   2.684   9.657 -0.4335  0.1128  1.8008
   19CHL1   C15 1350   4.055   2.545   9.570  0.4751  0.2877 -0.3688
   19CHL1  H15A 1351   4.022   2.439   9.579 -2.3104  1.2342  1.9803
   19CHL1  H15B 1352   3.973   2.616   9.591  0.4117  0.7716 -2.0595
   19CHL1   C16 1353   4.101   2.573   9.418 -0.3086 -0.3653  0.0219
   19CHL1  H16A 1354   4.094   2.478   9.361  3.4641 -0.6930 -0.1296
   19CHL1  H16B 1355   4.048   2.656   9.368 -1.8061 -1.6238 -0.5698
   19CHL1   C17 1356   4.262   2.587   9.429  0.0356 -0.2889 -0.6840
   19CHL1   H17 1357   4.284   2.696   9.432 -1.5417  0.0322  0.1882
   19CHL1   C13 1358   4.303   2.535   9.559 -0.8326  0.2922 -0.4249
   19CHL1   C18 1359   4.310   2.380   9.543  0.1607 -0.1957 -0.1008
   19CHL1  H18A 1360   4.231   2.335   9.481  1.8629 -0.4382 -2.2081
   19CHL1  H18B 1361   4.408   2.349   9.501 -0.9616 -0.4762 -2.6845
   19CHL1  H18C 1362   4.313   2.342   9.648 -5.1672 -0.5797  0.1910
   19CHL1   C12 1363   4.425   2.599   9.631 -0.4582  0.3188  1.1849
   19CHL1  H12A 1364   4.520   2.606   9.573 -1.9300  1.4944 -1.1906
   19CHL1  H12B 1365   4.399   2.706   9.648 -1.4080  0.2097  0.4889
   19CHL1   C11 1366   4.449   2.529   9.766  0.9559 -0.1638 -0.6513
   19CHL1  H11A 1367   4.468   2.421   9.752  0.7907 -0.1297 -1.1883
   19CHL1  H11B 1368   4.537   2.569   9.820 -0.7557 -0.3920  2.5133
   19CHL1    C9 1369   4.329   2.553   9.858  0.8341 -0.7486 -0.9947
   19CHL1    H9 1370   4.325   2.664   9.868  2.1796 -0.6904 -1.0016
   19CHL1   C10 1371   4.337   2.487   9.999  0.1090  0.2073 -0.1275
   19CHL1   C19 1372   4.378   2.341   9.990 -0.8890  0.5595  0.1777
   19CHL1  H19A 1373   4.485   2.324   9.962 -1.2945 -2.2907  0.0413
   19CHL1  H19B 1374   4.373   2.281  10.083  1.1953  0.6303  0.3829
   19CHL1  H19C 1375   4.325   2.283   9.911 -0.5555  0.3052  0.1350
   19CHL1    C1 1376   4.441   2.562  10.088 -0.4554  0.3821  0.1741
   19CHL1   H1A 1377   4.546   2.545  10.054 -1.2315  0.8600 -2.6866
   19CHL1   H1B 1378   4.424   2.667  10.056  1.2387  0.5446 -0.2959
   19CHL1    C2 1379   4.430   2.551  10.244  0.6408 -0.1822 -0.2607
   19CHL1   H2A 1380   4.502   2.627  10.280 -2.1305  3.1162 -1.1358
   19CHL1   H2B 1381   4.447   2.444  10.270 -1.8109 -0.8335 -1.0588
   19CHL1   C20 1382   4.339   2.534   9.301  0.2652 -0.3743  0.2294
   19CHL1   H20 1383   4.316   2.426   9.290 -0.6865 -0.2321  0.6554
   19CHL1   C21 1384   4.496   2.541   9.316  0.1431  0.4363 -0.0056
   19CHL1  H21A 1385   4.530   2.643   9.342 -2.1880  1.0269  1.0519
   19CHL1  H21B 1386   4.552   2.503   9.229  1.2093  1.2699  0.3014
   19CHL1  H21C 1387   4.525   2.472   9.398 -1.7495  1.4753  1.6480
   19CHL1   C22 1388   4.299   2.605   9.164  0.4627  0.0111 -0.2824
   19CHL1  H22A 1389   4.190   2.621   9.155 -0.0825 -1.1676  2.9836
   19CHL1  H22B 1390   4.327   2.713   9.165  2.6597 -0.4169 -2.9676
   19CHL1   C23 1391   4.346   2.542   9.034  0.7055  1.1920  0.2270
   19CHL1  H23A 1392   4.456   2.553   9.019  0.5315  1.4382 -0.9377
   19CHL1  H23B 1393   4.319   2.434   9.036  0.4051  1.2646  0.1709
   19CHL1   C24 1394   4.271   2.620   8.917 -0.2644  0.4206 -0.5302
   19CHL1  H24A 1395   4.161   2.613   8.932 -0.6827  2.3823 -2.2819
   19CHL1  H24B 1396   4.296   2.727   8.929 -0.3852  0.3718  0.2550
   19CHL1   C25 1397   4.296   2.579   8.767 -0.3959  0.1247 -0.2867
   19CHL1   H25 1398   4.222   2.626   8.700  1.9421  0.4051 -2.8446
   19CHL1   C26 1399   4.435   2.622   8.722  0.0204 -0.2795 -0.1215
   19CHL1  H26A 1400   4.440   2.731   8.699 -0.2247 -0.1968  0.2096
   19CHL1  H26B 1401   4.514   2.610   8.799  0.0852  0.9311  0.0189
   19CHL1  H26C 1402   4.460   2.562   8.632  0.4688  0.0290 -0.2025
   19CHL1   C27 1403   4.286   2.425   8.760  0.3505 -0.0509  0.5195
   19CHL1  H27A 1404   4.187   2.388   8.795 -0.0581  0.6057  0.0993
   19CHL1  H27B 1405   4.286   2.400   8.652  0.1904  1.2593  0.1919
   19CHL1  H27C 1406   4.371   2.378   8.813 -0.5019 -1.8030  0.4253
   20CHL1    C3 1407   0.398   1.198  10.544  0.9209 -0.0522  0.6268
   20CHL1    H3 1408   0.311   1.132  10.521 -1.2941  2.9146 -0.2114
   20CHL1    O3 1409   0.387   1.224  10.681 -0.6467  0.1789 -0.7350
   20CHL1   H3' 1410   0.438   1.302  10.705  0.8778 -1.4427  1.7452
   20CHL1    C4 1411   0.529   1.126  10.499  0.8578  0.2941 -0.5705
   20CHL1   H4A 1412   0.616   1.189  10.529  0.6480 -0.4671  1.8260
   20CHL1   H4B 1413   0.544   1.037  10.563 -1.2889  1.4708  1.7363
   20CHL1    C5 1414   0.511   1.088  10.354  0.1501 -0.4576 -0.2850
   20CHL1    C6 1415   0.514   0.953  10.329 -0.7189  0.7805  0.7914
   20CHL1    H6 1416   0.524   0.877  10.408  2.1908 -0.8646 -1.0010
   20CHL1    C7 1417   0.530   0.897  10.189 -0.2050  0.2361 -0.0686
   20CHL1   H7A 1418   0.621   0.834  10.187 -1.0811 -1.0430 -1.2523
   20CHL1   H7B 1419   0.440   0.837  10.165  1.9595 -2.1773 -2.8797
   20CHL1    C8 1420   0.551   1.011  10.087  0.4074  0.0246 -0.9144
   20CHL1    H8 1421   0.658   1.039  10.089  0.2361  0.6412 -0.2731
   20CHL1   C14 1422   0.539   0.954   9.945  0.8661 -1.1122 -0.4254
   20CHL1   H14 1423   0.442   0.901   9.933  0.7990 -1.7603  2.2716
   20CHL1   C15 1424   0.645   0.849   9.900  0.4742 -0.8415 -0.4070
   20CHL1  H15A 1425   0.749   0.874   9.929  1.3112 -2.2639 -2.0633
   20CHL1  H15B 1426   0.632   0.755   9.957  0.7605  0.1594  1.4051
   20CHL1   C16 1427   0.637   0.853   9.751  0.1801  0.3419 -0.0741
   20CHL1  H16A 1428   0.738   0.857   9.705 -0.0683 -1.7577 -0.8965
   20CHL1  H16B 1429   0.586   0.766   9.705  0.0252  1.7625 -2.8411
   20CHL1   C17 1430   0.549   0.981   9.712  0.3685 -1.2670  0.0993
   20CHL1   H17 1431   0.444   0.949   9.696  0.5395 -0.9559 -1.9539
   20CHL1   C13 1432   0.547   1.065   9.841  0.4164 -0.2933  0.5363
   20CHL1   C18 1433   0.678   1.142   9.850 -0.5681 -0.2935  0.1884
   20CHL1  H18A 1434   0.769   1.080   9.833 -0.0553  0.3411  0.5600
   20CHL1  H18B 1435   0.683   1.221   9.772 -3.8523 -1.8014 -1.7881
   20CHL1  H18C 1436   0.697   1.196   9.944 -0.7675  2.5147 -1.2800
   20CHL1   C12 1437   0.424   1.158   9.863 -0.2410 -0.7726  0.4312
   20CHL1  H12A 1438   0.413   1.235   9.784  0.3023 -1.0047  0.1260
   20CHL1  H12B 1439   0.332   1.094   9.867  0.0986 -1.5738 -2.2901
   20CHL1   C11 1440   0.438   1.233   9.999  0.7026  0.8512  0.3119
   20CHL1  H11A 1441   0.515   1.309   9.977 -0.1239  1.3577 -1.0095
   20CHL1  H11B 1442   0.351   1.299  10.020 -0.0023  0.2042 -0.4447
   20CHL1    C9 1443   0.463   1.135  10.116 -0.3771 -0.1345 -0.3303
   20CHL1    H9 1444   0.366   1.083  10.131 -1.0111  1.0635 -0.1604
   20CHL1   C10 1445   0.495   1.202  10.252  0.0586  0.0930 -0.5550
   20CHL1   C19 1446   0.626   1.282  10.235 -0.5299 -0.1292 -0.2264
   20CHL1  H19A 1447   0.642   1.331  10.334 -1.2392  0.1333 -0.2350
   20CHL1  H19B 1448   0.714   1.219  10.211 -1.7836 -1.3539 -1.8525
   20CHL1  H19C 1449   0.618   1.370  10.168 -0.3833 -1.2532 -1.7608
   20CHL1    C1 1450   0.383   1.293  10.304 -0.3054  0.2784  0.0347
   20CHL1   H1A 1451   0.380   1.383  10.238  0.1102  0.3868  0.1632
   20CHL1   H1B 1452   0.286   1.242  10.285 -0.3729 -0.4185  2.0125
   20CHL1    C2 1453   0.383   1.330  10.457 -0.3651 -0.3891 -0.4418
   20CHL1   H2A 1454   0.298   1.399  10.473  0.7400  1.2469 -1.3622
   20CHL1   H2B 1455   0.473   1.393  10.471 -1.7627  1.9495 -1.5302
   20CHL1   C20 1456   0.600   1.045   9.586  0.1108  0.5105 -0.0247
   20CHL1   H20 1457   0.704   1.081   9.599 -0.3442  1.7955  0.3115
   20CHL1   C21 1458   0.512   1.167   9.536 -0.3351  1.1784 -0.4010
   20CHL1  H21A 1459   0.549   1.214   9.442 -0.8639 -1.4270 -2.0281
   20CHL1  H21B 1460   0.522   1.252   9.607  1.4998  0.8367 -0.2094
   20CHL1  H21C 1461   0.404   1.144   9.521  0.1415 -2.7596  1.0670
   20CHL1   C22 1462   0.600   0.939   9.468  0.1643 -0.3578 -0.5284
   20CHL1  H22A 1463   0.657   0.846   9.486  1.7843  0.5625 -0.6732
   20CHL1  H22B 1464   0.493   0.915   9.455 -1.0432  1.9454  3.3150
   20CHL1   C23 1465   0.659   0.976   9.338 -0.4110 -0.0360  0.2097
   20CHL1  H23A 1466   0.637   1.080   9.305  0.2488 -0.4687 -1.7214
   20CHL1  H23B 1467   0.769   0.981   9.352 -0.1220  1.4249 -2.1063
   20CHL1   C24 1468   0.619   0.883   9.227  0.0990 -0.1270 -0.5272
   20CHL1  H24A 1469   0.622   0.777   9.259 -3.2859 -0.1239  0.1683
   20CHL1  H24B 1470   0.513   0.905   9.201 -0.1604 -1.0577 -0.2905
   20CHL1   C25 1471   0.716   0.883   9.101  0.1643 -0.2042 -0.1260
   20CHL1   H25 1472   0.740   0.987   9.070 -0.4626 -0.4790 -1.6606
   20CHL1   C26 1473   0.861   0.821   9.122  0.6234  0.5677  0.2808
   20CHL1  H26A 1474   0.854   0.722   9.171 -0.2276  1.4211  1.9706
   20CHL1  H26B 1475   0.911   0.806   9.024 -0.8519 -0.9910 -0.2719
   20CHL1  H26C 1476   0.914   0.889   9.193  1.0110  0.5235  0.0340
   20CHL1   C27 1477   0.635   0.819   8.992  0.5744  0.7287  0.3988
   20CHL1  H27A 1478   0.686   0.818   8.893 -0.5182 -1.7054 -0.2146
   20CHL1  H27B 1479   0.615   0.717   9.032 -1.1865  1.5382  1.7197
   20CHL1  H27C 1480   0.535   0.866   8.987 -0.3407 -0.9458  1.9500
   21CHL1    C3 1481   4.635   0.453  10.066 -0.2202 -0.4776  0.2850
   21CHL1    H3 1482   4.528   0.429  10.050  0.0034 -0.7883 -0.8374
   21CHL1    O3 1483   4.656   0.461  10.205  0.2342 -0.4944 -0.0148
   21CHL1   H3' 1484   4.603   0.533  10.237  0.3477 -1.2747  2.0423
   21CHL1    C4 1485   4.700   0.325  10.005 -0.3303 -0.4519  0.7167
   21CHL1   H4A 1486   4.805   0.345  10.035 -0.2582 -0.6245  0.5779
   21CHL1   H4B 1487   4.659   0.235  10.056 -3.5208 -0.7467 -2.0118
   21CHL1    C5 1488   4.706   0.312   9.859 -0.1602 -0.2701  0.4621
   21CHL1    C6 1489   4.682   0.193   9.806 -0.0858 -0.1188 -0.1961
   21CHL1    H6 1490   4.672   0.105   9.871 -2.3450 -0.6370 -1.1559
   21CHL1    C7 1491   4.685   0.169   9.657  0.0919 -0.0490  0.4772
   21CHL1   H7A 1492   4.754   0.082   9.648 -1.5904 -1.4474  0.3597
   21CHL1   H7B 1493   4.587   0.150   9.608  1.6940 -1.3319 -2.5147
   21CHL1    C8 1494   4.746   0.294   9.579 -0.5763  0.1409  0.1785
   21CHL1    H8 1495   4.856   0.291   9.597 -0.2107  3.8208 -0.6941
   21CHL1   C14 1496   4.714   0.285   9.428 -1.1086  0.1515  0.3074
   21CHL1   H14 1497   4.605   0.292   9.410 -0.8764 -2.0611 -2.6203
   21CHL1   C15 1498   4.757   0.156   9.356  0.1767 -0.0694  0.2118
   21CHL1  H15A 1499   4.861   0.133   9.389 -0.1212  0.5450  1.6895
   21CHL1  H15B 1500   4.689   0.073   9.384 -0.3525  0.8378  1.7488
   21CHL1   C16 1501   4.751   0.195   9.214 -0.4535 -0.5308  0.0591
   21CHL1  H16A 1502   4.852   0.178   9.170  0.3015  1.6199  0.8514
   21CHL1  H16B 1503   4.669   0.137   9.167 -0.7242 -1.3532  1.5029
   21CHL1   C17 1504   4.732   0.350   9.207  0.2352 -0.2254 -0.4285
   21CHL1   H17 1505   4.621   0.355   9.196  0.1119  1.1182  1.0699
   21CHL1   C13 1506   4.766   0.396   9.340 -0.1256  0.0777 -0.2549
   21CHL1   C18 1507   4.923   0.398   9.344  0.5515 -0.1663  0.4459
   21CHL1  H18A 1508   4.960   0.499   9.317 -0.2876  0.2508  0.8232
   21CHL1  H18B 1509   4.971   0.378   9.443  0.3627  2.5361  1.1760
   21CHL1  H18C 1510   4.966   0.323   9.274  2.9783  0.0698  1.5526
   21CHL1   C12 1511   4.701   0.531   9.387  0.0714  0.0019 -0.5305
   21CHL1  H12A 1512   4.744   0.621   9.339  0.3195  0.1300 -0.0771
   21CHL1  H12B 1513   4.590   0.530   9.384  0.0427 -0.6167  0.2584
   21CHL1   C11 1514   4.743   0.553   9.537 -0.5072 -0.0214 -0.4739
   21CHL1  H11A 1515   4.853   0.565   9.539 -0.5055 -0.0203 -0.5739
   21CHL1  H11B 1516   4.705   0.650   9.576 -0.7392 -0.0357 -0.6655
   21CHL1    C9 1517   4.702   0.430   9.635  0.2313  0.6700  0.2084
   21CHL1    H9 1518   4.592   0.423   9.617  0.4656  1.1363 -1.6573
   21CHL1   C10 1519   4.741   0.443   9.778  0.7856  0.9119 -0.7750
   21CHL1   C19 1520   4.895   0.447   9.796 -0.3496 -0.5405 -0.1479
   21CHL1  H19A 1521   4.946   0.517   9.727 -0.0334  0.2360  0.8493
   21CHL1  H19B 1522   4.925   0.477   9.899 -1.8169 -1.4269  0.5784
   21CHL1  H19C 1523   4.940   0.347   9.779 -0.3633 -0.6846  0.6151
   21CHL1    C1 1524   4.678   0.571   9.841  0.4577 -0.4375 -0.4654
   21CHL1   H1A 1525   4.742   0.655   9.808  1.0329 -0.7020 -0.0274
   21CHL1   H1B 1526   4.574   0.567   9.803 -0.3250 -1.8178  1.6241
   21CHL1    C2 1527   4.676   0.585   9.993  0.0106 -0.4008 -0.2434
   21CHL1   H2A 1528   4.600   0.660  10.026 -0.0746 -1.6119  2.6775
   21CHL1   H2B 1529   4.778   0.616  10.025  0.1148 -0.2488 -0.7179
   21CHL1   C20 1530   4.780   0.414   9.074  0.4964  0.4195  0.1297
   21CHL1   H20 1531   4.890   0.403   9.074  0.3315 -1.6687 -0.6337
   21CHL1   C21 1532   4.760   0.570   9.065 -0.2542 -0.2649 -0.3358
   21CHL1  H21A 1533   4.840   0.623   9.122 -1.4149  0.5580  0.5571
   21CHL1  H21B 1534   4.659   0.598   9.100 -1.1175 -2.1444 -1.1778
   21CHL1  H21C 1535   4.781   0.596   8.959 -2.1328 -0.6647 -0.8293
   21CHL1   C22 1536   4.728   0.356   8.939 -0.1490 -0.3885  0.7542
   21CHL1  H22A 1537   4.618   0.346   8.942 -0.2701  0.9456  1.5989
   21CHL1  H22B 1538   4.750   0.431   8.859  1.7989  0.2505  1.8202
   21CHL1   C23 1539   4.794   0.232   8.880  0.0028  0.2081  0.2865
   21CHL1  H23A 1540   4.903   0.249   8.878  0.1635 -0.8100  0.0544
   21CHL1  H23B 1541   4.779   0.147   8.950 -1.3248 -0.1063 -0.3404
   21CHL1   C24 1542   4.743   0.193   8.736 -0.4383  0.0249 -0.1858
   21CHL1  H24A 1543   4.633   0.198   8.744 -0.3534  1.8105  0.1748
   21CHL1  H24B 1544   4.783   0.273   8.671  0.0399 -0.2985 -0.2923
   21CHL1   C25 1545   4.780   0.051   8.695  0.3413  0.6331 -0.0918
   21CHL1   H25 1546   4.783  -0.007   8.789  1.1773 -1.0101 -1.0928
   21CHL1   C26 1547   4.673  -0.014   8.604 -0.1298 -0.1875 -0.2271
   21CHL1  H26A 1548   4.579  -0.021   8.665 -0.4580  1.3129 -0.5192
   21CHL1  H26B 1549   4.659   0.049   8.514  1.8847 -1.1477 -1.2451
   21CHL1  H26C 1550   4.703  -0.114   8.566  1.4885  0.8980 -1.9425
   21CHL1   C27 1551   4.921   0.048   8.638 -0.0577 -0.3628  0.2837
   21CHL1  H27A 1552   4.951  -0.055   8.608  0.0079 -0.2608  0.0023
   21CHL1  H27B 1553   4.933   0.108   8.546 -1.0698 -0.2856  0.1870
   21CHL1  H27C 1554   4.994   0.081   8.715  0.7545 -2.1592  0.3401
   22CHL1    C3 1555   3.568   6.511  10.164 -0.3556  0.5168 -0.3066
   22CHL1    H3 1556   3.579   6.404  10.191 -1.0386  0.7430  0.9500
   22CHL1    O3 1557   3.529   6.573  10.289 -0.4289  0.0854 -0.3404
   22CHL1   H3' 1558   3.508   6.663  10.263 -0.6890  1.3487  3.4954
   22CHL1    C4 1559   3.687   6.589  10.109 -0.2788  0.1156 -0.3573
   22CHL1   H4A 1560   3.662   6.696  10.093  0.1404  0.2078 -0.4186
   22CHL1   H4B 1561   3.770   6.581  10.183 -0.3975  0.5540 -0.1757
   22CHL1    C5 1562   3.721   6.518   9.978  0.5997  0.3019  0.2068
   22CHL1    C6 1563   3.839   6.457   9.957  0.5533  0.2927 -0.3474
   22CHL1    H6 1564   3.918   6.464  10.034 -0.6830 -0.9140  1.0945
   22CHL1    C7 1565   3.874   6.388   9.827 -0.4257 -0.5410  0.4578
   22CHL1   H7A 1566   3.979   6.409   9.798 -0.3465  0.1774  1.2352
   22CHL1   H7B 1567   3.874   6.279   9.847  2.5542 -0.5998  0.4578
   22CHL1    C8 1568   3.783   6.424   9.709 -0.3152  0.1296  0.7809
   22CHL1    H8 1569   3.803   6.525   9.669 -0.8901 -0.4926 -1.2218
   22CHL1   C14 1570   3.813   6.326   9.593  0.3144  0.0671  0.9026
   22CHL1   H14 1571   3.783   6.226   9.632 -1.6080  0.3974  0.3703
   22CHL1   C15 1572   3.959   6.318   9.544 -0.4111 -0.7044  0.2101
   22CHL1  H15A 1573   4.000   6.417   9.515 -1.7942 -0.6422 -1.7216
   22CHL1  H15B 1574   4.032   6.267   9.611 -1.2829  0.4323  2.0697
   22CHL1   C16 1575   3.943   6.227   9.424  0.0746  0.4274  0.0553
   22CHL1  H16A 1576   4.017   6.262   9.348  1.4099  1.1030  1.5855
   22CHL1  H16B 1577   3.966   6.122   9.450 -0.8405  0.5703  1.5777
   22CHL1   C17 1578   3.794   6.242   9.383 -0.3715  0.6780  0.7453
   22CHL1   H17 1579   3.747   6.144   9.409 -0.2791  0.2937 -0.4613
   22CHL1   C13 1580   3.725   6.350   9.467 -0.3490 -0.3011 -0.2927
   22CHL1   C18 1581   3.756   6.487   9.398  0.0532 -0.2504  0.0760
   22CHL1  H18A 1582   3.696   6.501   9.306  2.8311 -0.0177 -1.8317
   22CHL1  H18B 1583   3.742   6.581   9.455 -1.1287 -0.3432 -0.0370
   22CHL1  H18C 1584   3.862   6.481   9.365 -0.4878 -1.6729 -1.5228
   22CHL1   C12 1585   3.577   6.336   9.512  0.3982 -0.4508  0.3996
   22CHL1  H12A 1586   3.509   6.360   9.427  1.4908 -0.5907 -0.5548
   22CHL1  H12B 1587   3.563   6.231   9.545  1.7616 -0.6521  0.4067
   22CHL1   C11 1588   3.546   6.437   9.625 -0.5885  0.1330 -0.3854
   22CHL1  H11A 1589   3.573   6.534   9.578  0.2626 -0.7093 -1.7039
   22CHL1  H11B 1590   3.439   6.433   9.657  0.3597 -1.2525  3.0948
   22CHL1    C9 1591   3.640   6.415   9.754  0.0946  0.4923  0.0602
   22CHL1    H9 1592   3.618   6.313   9.793 -0.7142  0.3256 -0.7965
   22CHL1   C10 1593   3.611   6.518   9.867  0.5866  0.2987 -0.5184
   22CHL1   C19 1594   3.586   6.663   9.816  0.6786  0.2822  0.4595
   22CHL1  H19A 1595   3.494   6.676   9.755 -0.4629  3.1166  2.5764
   22CHL1  H19B 1596   3.572   6.736   9.899  2.5303  0.3747  0.7470
   22CHL1  H19C 1597   3.661   6.699   9.743 -0.2159  2.5118  0.5609
   22CHL1    C1 1598   3.482   6.461   9.933  0.3398 -0.9290  0.0086
   22CHL1   H1A 1599   3.394   6.482   9.868 -1.7013 -1.5170  2.4225
   22CHL1   H1B 1600   3.499   6.352   9.945  1.8127 -0.7801 -0.5620
   22CHL1    C2 1601   3.451   6.522  10.068  0.1169 -0.5003 -0.7822
   22CHL1   H2A 1602   3.363   6.474  10.117  0.5592  0.3172  0.8849
   22CHL1   H2B 1603   3.432   6.631  10.058 -0.9094 -0.6779 -0.8990
   22CHL1   C20 1604   3.786   6.243   9.231  0.0302  0.8126  0.1587
   22CHL1   H20 1605   3.845   6.328   9.190  2.1147  0.2007  1.7716
   22CHL1   C21 1606   3.642   6.251   9.189 -0.0761  0.0841  0.6666
   22CHL1  H21A 1607   3.586   6.344   9.212 -0.4190  0.4524 -1.4599
   22CHL1  H21B 1608   3.580   6.167   9.227 -2.6166  1.0217 -1.1479
   22CHL1  H21C 1609   3.643   6.236   9.079  0.5906 -0.4705  0.7439
   22CHL1   C22 1610   3.856   6.120   9.153 -0.1775 -0.5139  0.3106
   22CHL1  H22A 1611   3.961   6.132   9.190 -0.5193 -2.0915  1.9115
   22CHL1  H22B 1612   3.811   6.028   9.195  0.0448 -1.2790 -1.0731
   22CHL1   C23 1613   3.852   6.112   9.001  0.0660 -0.4830  0.4435
   22CHL1  H23A 1614   3.748   6.081   8.981  0.2762 -1.6229  1.0587
   22CHL1  H23B 1615   3.868   6.211   8.953  1.1567 -1.4550 -1.3235
   22CHL1   C24 1616   3.940   5.995   8.950 -0.1598  0.5923 -0.7464
   22CHL1  H24A 1617   4.046   6.029   8.958  0.5960 -1.1980 -2.5006
   22CHL1  H24B 1618   3.928   5.907   9.017  3.8198 -1.1591 -2.0378
   22CHL1   C25 1619   3.916   5.962   8.798  0.1973 -0.5642 -0.1960
   22CHL1   H25 1620   3.976   5.869   8.789  0.2793 -0.4101 -1.3304
   22CHL1   C26 1621   3.766   5.937   8.766 -0.1411  0.5587 -0.1257
   22CHL1  H26A 1622   3.764   5.913   8.657  4.4333 -1.1012 -0.0797
   22CHL1  H26B 1623   3.736   5.846   8.822  2.0549 -0.0008  0.2260
   22CHL1  H26C 1624   3.699   6.018   8.802 -2.5577 -2.2321  2.1800
   22CHL1   C27 1625   3.979   6.073   8.718 -0.5013  0.4887 -0.0236
   22CHL1  H27A 1626   3.973   6.042   8.612  0.8512  3.1163 -0.9515
   22CHL1  H27B 1627   3.934   6.174   8.727  0.5416  0.8352  1.7197
   22CHL1  H27C 1628   4.088   6.088   8.735 -0.4877 -0.5698  0.9872
   23CHL1    C3 1629   0.948   2.290  10.234 -0.0607  0.0754  0.0141
   23CHL1    H3 1630   0.859   2.238  10.276 -1.1236  1.4235 -0.5229
   23CHL1    O3 1631   1.000   2.366  10.341  0.6298  0.1835 -0.2695
   23CHL1   H3' 1632   1.063   2.425  10.299  1.2933 -1.5207 -1.8418
   23CHL1    C4 1633   1.050   2.192  10.175 -0.1345  0.1005 -0.0304
   23CHL1   H4A 1634   1.140   2.246  10.136 -0.2285 -1.1810 -2.1741
   23CHL1   H4B 1635   1.075   2.114  10.249  0.1947 -0.3218 -0.5743
   23CHL1    C5 1636   0.991   2.122  10.056  0.3074  0.5012  0.2579
   23CHL1    C6 1637   0.992   1.985  10.046 -0.0914 -0.9178 -0.2600
   23CHL1    H6 1638   1.036   1.928  10.129 -1.7677 -2.2788 -0.2311
   23CHL1    C7 1639   0.930   1.912   9.928 -1.1061  0.0652 -0.4822
   23CHL1   H7A 1640   0.997   1.831   9.890 -1.8462 -1.1188  0.6471
   23CHL1   H7B 1641   0.837   1.860   9.959 -0.6218 -0.4014  0.2280
   23CHL1    C8 1642   0.900   1.996   9.802 -0.3190  0.0361  0.0801
   23CHL1    H8 1643   0.994   2.019   9.749 -1.5473 -0.0491 -2.2475
   23CHL1   C14 1644   0.802   1.915   9.706 -0.3751  0.4157 -0.5545
   23CHL1   H14 1645   0.707   1.889   9.757  0.1920  0.5122  0.5761
   23CHL1   C15 1646   0.845   1.777   9.657 -0.0759 -0.4719  0.0010
   23CHL1  H15A 1647   0.952   1.780   9.627 -0.2584 -2.3037 -0.9531
   23CHL1  H15B 1648   0.815   1.696   9.727 -1.0446 -0.2185 -0.1036
   23CHL1   C16 1649   0.752   1.757   9.533  0.5236 -0.3242  1.0525
   23CHL1  H16A 1650   0.816   1.758   9.442  0.4548 -2.1513  0.9455
   23CHL1  H16B 1651   0.693   1.663   9.528  0.3459 -0.1693  0.1224
   23CHL1   C17 1652   0.659   1.885   9.521  0.4956 -0.3246  0.2294
   23CHL1   H17 1653   0.569   1.861   9.581 -1.2765 -0.0923 -2.1870
   23CHL1   C13 1654   0.745   1.999   9.591 -0.4163  0.0116 -0.0455
   23CHL1   C18 1655   0.851   2.041   9.491  0.1003 -1.6361 -0.6044
   23CHL1  H18A 1656   0.811   2.116   9.420  2.4398 -0.2238 -0.5255
   23CHL1  H18B 1657   0.934   2.099   9.536 -0.4266 -0.4459 -1.1288
   23CHL1  H18C 1658   0.899   1.958   9.434  0.8375  0.0683 -2.5654
   23CHL1   C12 1659   0.676   2.122   9.646  0.4913  0.8781  0.1295
   23CHL1  H12A 1660   0.636   2.185   9.564 -0.9754  0.0143  0.1463
   23CHL1  H12B 1661   0.594   2.077   9.706  0.4798  0.4616 -0.1901
   23CHL1   C11 1662   0.772   2.211   9.732 -0.0812  0.1097  0.3963
   23CHL1  H11A 1663   0.860   2.246   9.674  0.1205 -1.7135 -0.4565
   23CHL1  H11B 1664   0.715   2.299   9.769  1.2252  0.9775  0.3957
   23CHL1    C9 1665   0.830   2.130   9.852 -0.3925  0.0051 -0.6443
   23CHL1    H9 1666   0.739   2.099   9.907 -0.1089 -1.8349 -1.1750
   23CHL1   C10 1667   0.925   2.214   9.951 -0.6139  0.1987 -0.2812
   23CHL1   C19 1668   1.045   2.291   9.883  0.1316  0.4629  0.0106
   23CHL1  H19A 1669   1.004   2.356   9.803 -1.6231 -0.7187 -0.1239
   23CHL1  H19B 1670   1.100   2.348   9.961  0.5408 -0.1900  0.2166
   23CHL1  H19C 1671   1.118   2.214   9.849 -0.0396 -0.0041  0.6844
   23CHL1    C1 1672   0.842   2.327  10.008 -0.1651 -0.6554 -0.2402
   23CHL1   H1A 1673   0.836   2.403   9.928  0.5126 -0.4079 -0.0675
   23CHL1   H1B 1674   0.740   2.287  10.025 -0.8066  1.2125  0.5640
   23CHL1    C2 1675   0.901   2.394  10.133  0.5733  0.5396 -0.2717
   23CHL1   H2A 1676   0.814   2.452  10.172 -1.1080 -3.0316  1.7734
   23CHL1   H2B 1677   0.976   2.471  10.104  1.6614 -0.5446 -0.4067
   23CHL1   C20 1678   0.608   1.911   9.374  0.2629  0.0548 -0.3748
   23CHL1   H20 1679   0.685   1.973   9.322 -1.2711  2.6106  0.2229
   23CHL1   C21 1680   0.484   2.004   9.379  0.2317 -0.1568  0.6461
   23CHL1  H21A 1681   0.449   2.027   9.276 -0.9291 -0.9213  0.8525
   23CHL1  H21B 1682   0.506   2.103   9.424 -0.0026  0.6125 -0.8694
   23CHL1  H21C 1683   0.396   1.962   9.432 -1.3594  1.9058 -0.2463
   23CHL1   C22 1684   0.578   1.778   9.293  0.2246 -0.2968 -0.1385
   23CHL1  H22A 1685   0.677   1.727   9.282 -0.6830 -1.7795 -2.0743
   23CHL1  H22B 1686   0.521   1.716   9.365 -1.4987  0.9501 -0.3801
   23CHL1   C23 1687   0.519   1.788   9.156 -0.6790  0.0744  0.1143
   23CHL1  H23A 1688   0.504   1.683   9.121 -0.9896 -0.1456  0.8909
   23CHL1  H23B 1689   0.419   1.834   9.150 -0.9435 -0.5678 -0.5505
   23CHL1   C24 1690   0.608   1.858   9.048 -0.3066 -0.5506  0.1655
   23CHL1  H24A 1691   0.615   1.964   9.081 -2.5754 -0.3712  0.1969
   23CHL1  H24B 1692   0.708   1.809   9.051  0.6886  1.4442  1.9212
   23CHL1   C25 1693   0.568   1.862   8.900 -0.6148  0.5499 -0.0907
   23CHL1   H25 1694   0.487   1.937   8.900 -0.9302  0.2110 -0.0275
   23CHL1   C26 1695   0.682   1.908   8.811  0.8991 -0.5342 -0.1503
   23CHL1  H26A 1696   0.662   1.909   8.702  2.2674  1.5381 -0.4544
   23CHL1  H26B 1697   0.722   2.007   8.845  1.6460 -0.6964 -0.5388
   23CHL1  H26C 1698   0.776   1.857   8.838  1.3671 -0.7502 -2.0622
   23CHL1   C27 1699   0.504   1.732   8.848 -0.5580  0.4693 -0.6298
   23CHL1  H27A 1700   0.420   1.706   8.916 -1.9194  1.9610 -1.6818
   23CHL1  H27B 1701   0.451   1.750   8.752 -0.6935 -1.1120 -0.8828
   23CHL1  H27C 1702   0.574   1.646   8.840 -0.0471  0.0876  4.5547
   24CHL1    C3 1703   2.687   2.523  10.360 -0.4389  0.2808 -0.0345
   24CHL1    H3 1704   2.630   2.618  10.353 -0.7871  0.1122  0.4594
   24CHL1    O3 1705   2.695   2.497  10.495  0.0390  0.2433 -0.4722
   24CHL1   H3' 1706   2.749   2.418  10.510 -0.7924 -0.3383 -0.5067
   24CHL1    C4 1707   2.613   2.404  10.303  0.2185  0.6904 -0.4662
   24CHL1   H4A 1708   2.678   2.316  10.323  0.1834  0.3209 -1.8935
   24CHL1   H4B 1709   2.518   2.388  10.358  0.0896  2.0512 -0.2694
   24CHL1    C5 1710   2.595   2.435  10.154 -0.6595 -0.3033  0.2309
   24CHL1    C6 1711   2.478   2.451  10.108  0.3346  0.0820 -0.0478
   24CHL1    H6 1712   2.392   2.440  10.176 -0.8920 -0.3585 -1.5802
   24CHL1    C7 1713   2.437   2.468   9.962  0.1495  0.1694  0.2004
   24CHL1   H7A 1714   2.356   2.403   9.921  1.0886 -0.5332 -0.5775
   24CHL1   H7B 1715   2.412   2.574   9.941  0.2303  0.1580  0.0478
   24CHL1    C8 1716   2.564   2.454   9.864  0.5243  0.5678 -0.5925
   24CHL1    H8 1717   2.578   2.345   9.845  0.1500  0.3947  0.1262
   24CHL1   C14 1718   2.537   2.513   9.720  0.2088  0.5350  0.2688
   24CHL1   H14 1719   2.524   2.622   9.737 -0.9081  0.2981  1.0264
   24CHL1   C15 1720   2.409   2.471   9.644  0.7230  0.2287 -0.7173
   24CHL1  H15A 1721   2.389   2.363   9.661  0.8573 -0.0607 -2.3024
   24CHL1  H15B 1722   2.331   2.534   9.693 -1.2587 -4.4234  2.9934
   24CHL1   C16 1723   2.438   2.501   9.501  0.6016 -0.1221  0.4412
   24CHL1  H16A 1724   2.436   2.406   9.444  2.4729  0.1937 -0.2263
   24CHL1  H16B 1725   2.364   2.571   9.456 -1.1831 -1.0321  1.8310
   24CHL1   C17 1726   2.580   2.562   9.493 -0.2042  0.0661 -0.6389
   24CHL1   H17 1727   2.576   2.671   9.515 -1.9038 -0.1968  0.5744
   24CHL1   C13 1728   2.652   2.501   9.621  0.4095 -0.2458 -0.8736
   24CHL1   C18 1729   2.689   2.353   9.606  0.6580 -0.0102 -0.4666
   24CHL1  H18A 1730   2.767   2.331   9.530  0.8199 -0.1010 -0.2774
   24CHL1  H18B 1731   2.720   2.315   9.706  0.0784  1.5316  0.3387
   24CHL1  H18C 1732   2.600   2.290   9.583  1.3163 -2.1437  2.2395
   24CHL1   C12 1733   2.774   2.575   9.681  0.1408 -0.3400  0.2607
   24CHL1  H12A 1734   2.863   2.576   9.614 -0.0430  2.5380 -0.0718
   24CHL1  H12B 1735   2.742   2.681   9.684  1.4651  0.0605  2.4295
   24CHL1   C11 1736   2.810   2.529   9.823 -0.3871 -0.1535 -0.0892
   24CHL1  H11A 1737   2.854   2.429   9.802  0.9558  0.1623  1.0807
   24CHL1  H11B 1738   2.893   2.583   9.874 -1.2492 -0.7710  2.0597
   24CHL1    C9 1739   2.688   2.519   9.927  0.0739  0.4102  1.4021
   24CHL1    H9 1740   2.663   2.624   9.951  3.5416  1.0309  2.9863
   24CHL1   C10 1741   2.728   2.461  10.064  0.7208  0.5605  0.2563
   24CHL1   C19 1742   2.807   2.324  10.049  0.1282 -0.1114  0.4578
   24CHL1  H19A 1743   2.910   2.341  10.009 -0.1149  0.6609  0.1585
   24CHL1  H19B 1744   2.829   2.268  10.143  0.1603 -0.1871  0.4059
   24CHL1  H19C 1745   2.762   2.256   9.973  1.3762 -1.2408  0.6854
   24CHL1    C1 1746   2.817   2.566  10.146  0.1669 -0.4991  0.0083
   24CHL1   H1A 1747   2.920   2.557  10.106  0.1215  0.5062 -0.3689
   24CHL1   H1B 1748   2.783   2.670  10.123  0.5512 -0.8559 -2.4226
   24CHL1    C2 1749   2.828   2.544  10.300  0.2609 -0.0483  0.7211
   24CHL1   H2A 1750   2.897   2.623  10.337  0.1405  0.5852 -0.3494
   24CHL1   H2B 1751   2.882   2.449  10.317  0.7821  0.1926  0.4225
   24CHL1   C20 1752   2.657   2.549   9.364 -0.9116 -0.6845  0.0271
   24CHL1   H20 1753   2.764   2.531   9.388 -0.6702 -1.2361 -1.3309
   24CHL1   C21 1754   2.650   2.692   9.301  0.9173 -1.0482  0.2610
   24CHL1  H21A 1755   2.677   2.772   9.373  0.3710 -2.0253  1.5825
   24CHL1  H21B 1756   2.543   2.714   9.282  1.3480  1.2197  0.1028
   24CHL1  H21C 1757   2.703   2.723   9.208  1.7175 -0.2585  0.9525
   24CHL1   C22 1758   2.621   2.438   9.270 -0.0592  0.2323  0.8880
   24CHL1  H22A 1759   2.631   2.335   9.311  2.1299 -0.6138 -1.4625
   24CHL1  H22B 1760   2.516   2.461   9.241 -0.0970 -0.3966  0.5066
   24CHL1   C23 1761   2.717   2.440   9.146 -0.3494  0.2973  0.4658
   24CHL1  H23A 1762   2.701   2.532   9.086 -3.1517  0.4258  1.2424
   24CHL1  H23B 1763   2.821   2.435   9.185 -1.5942 -0.7010  4.0580
   24CHL1   C24 1764   2.690   2.327   9.051  0.3914 -0.6811 -0.1418
   24CHL1  H24A 1765   2.762   2.356   8.971 -0.1335  2.7258  0.4659
   24CHL1  H24B 1766   2.719   2.231   9.099  2.5997  0.4524  0.9614
   24CHL1   C25 1767   2.544   2.326   8.984 -0.8457 -0.4367  0.4454
   24CHL1   H25 1768   2.463   2.295   9.054 -0.2127  0.8205  1.8107
   24CHL1   C26 1769   2.514   2.474   8.922 -0.1051  0.2531 -0.6705
   24CHL1  H26A 1770   2.420   2.465   8.864 -0.4561 -1.7719  0.1522
   24CHL1  H26B 1771   2.500   2.551   9.000 -1.0317 -1.9266  1.4314
   24CHL1  H26C 1772   2.599   2.505   8.857 -0.6523  1.3399 -0.8936
   24CHL1   C27 1773   2.548   2.214   8.882  0.6330  0.4488 -0.2151
   24CHL1  H27A 1774   2.642   2.203   8.824  0.1373  1.3239 -1.2342
   24CHL1  H27B 1775   2.519   2.121   8.936  1.9752  1.5134  2.5073
   24CHL1  H27C 1776   2.473   2.246   8.806  1.7054 -0.2882 -1.6328
   25CHL1    C3 1777   4.349   3.671  10.527 -0.6580  0.1384  0.6607
   25CHL1    H3 1778   4.431   3.596  10.528  0.6727  1.5295  1.2341
   25CHL1    O3 1779   4.315   3.708  10.665 -0.2707  0.0299 -0.2512
   25CHL1   H3' 1780   4.286   3.623  10.700 -0.4010  0.2989  0.3053
   25CHL1    C4 1781   4.407   3.796  10.466  0.3159  0.5501 -0.8040
   25CHL1   H4A 1782   4.335   3.878  10.482 -1.6196 -1.6243  3.0329
   25CHL1   H4B 1783   4.497   3.809  10.530 -1.0476 -1.0637  1.5854
   25CHL1    C5 1784   4.449   3.778  10.321 -0.3704  0.4875 -0.8846
   25CHL1    C6 1785   4.579   3.797  10.277 -0.4187  0.2146  0.1566
   25CHL1    H6 1786   4.655   3.810  10.355 -0.8157 -1.8175  0.9514
   25CHL1    C7 1787   4.628   3.792  10.138 -0.5080  0.4766  0.2952
   25CHL1   H7A 1788   4.691   3.879  10.111  0.1823 -0.0325  0.2285
   25CHL1   H7B 1789   4.694   3.705  10.115 -3.0134 -1.2789 -0.7752
   25CHL1    C8 1790   4.514   3.781  10.041 -0.0119 -0.4857 -0.5689
   25CHL1    H8 1791   4.473   3.883  10.024 -0.1943  0.2688  3.4753
   25CHL1   C14 1792   4.569   3.738   9.901  0.1758 -0.6181 -0.4714
   25CHL1   H14 1793   4.613   3.636   9.913 -2.4065 -1.8066 -0.4729
   25CHL1   C15 1794   4.687   3.819   9.841 -0.1834 -0.3041  0.3813
   25CHL1  H15A 1795   4.666   3.928   9.845 -0.8883 -0.4829  2.5215
   25CHL1  H15B 1796   4.769   3.793   9.911 -0.5348  2.0123  1.7469
   25CHL1   C16 1797   4.693   3.779   9.697 -0.9515 -0.0687  0.6554
   25CHL1  H16A 1798   4.707   3.864   9.627 -2.9790 -0.5390 -0.4140
   25CHL1  H16B 1799   4.779   3.710   9.688  0.9214  2.2359 -0.3329
   25CHL1   C17 1800   4.561   3.699   9.665  0.6543 -0.3307 -0.0042
   25CHL1   H17 1801   4.586   3.591   9.656  0.5868 -0.1640 -4.2628
   25CHL1   C13 1802   4.467   3.724   9.791  0.3144 -0.6471 -0.2111
   25CHL1   C18 1803   4.406   3.860   9.766  0.0261  0.2814  0.3943
   25CHL1  H18A 1804   4.331   3.851   9.685  0.2791  3.0112 -0.2587
   25CHL1  H18B 1805   4.346   3.905   9.848 -1.8584 -0.8110 -0.3259
   25CHL1  H18C 1806   4.474   3.942   9.732  1.1134 -0.6259  0.3334
   25CHL1   C12 1807   4.370   3.610   9.845  0.2528  0.5872 -0.1789
   25CHL1  H12A 1808   4.288   3.604   9.770 -1.7222  1.0038  1.8361
   25CHL1  H12B 1809   4.426   3.515   9.860 -2.0228 -0.4017  3.2776
   25CHL1   C11 1810   4.304   3.647   9.982  0.2006  0.4303  0.4614
   25CHL1  H11A 1811   4.235   3.730   9.955  1.7436  1.5959 -0.0325
   25CHL1  H11B 1812   4.233   3.567  10.013 -1.3439  1.4766 -0.2156
   25CHL1    C9 1813   4.408   3.687  10.095  0.0026  0.3382  0.4803
   25CHL1    H9 1814   4.461   3.592  10.119  0.7207 -0.4284 -3.4476
   25CHL1   C10 1815   4.334   3.728  10.223 -0.6240 -0.0638  0.2490
   25CHL1   C19 1816   4.241   3.843  10.199  0.5728  0.2940  0.1336
   25CHL1  H19A 1817   4.176   3.865  10.286 -1.6832 -3.5317 -0.3700
   25CHL1  H19B 1818   4.300   3.934  10.174 -0.4335  1.7328  2.5854
   25CHL1  H19C 1819   4.169   3.825  10.117  0.9943 -0.4876 -0.0726
   25CHL1    C1 1820   4.266   3.607  10.291 -0.2687 -0.7402 -0.4761
   25CHL1   H1A 1821   4.176   3.589  10.229 -1.0555 -0.0012  0.4191
   25CHL1   H1B 1822   4.331   3.516  10.286 -1.0808 -1.4929  1.5236
   25CHL1    C2 1823   4.230   3.625  10.443 -0.2341  0.3835  0.1361
   25CHL1   H2A 1824   4.202   3.520  10.464 -1.0351  0.1733 -1.7770
   25CHL1   H2B 1825   4.153   3.703  10.464  0.7504  0.9386  1.9863
   25CHL1   C20 1826   4.506   3.736   9.526  0.1111  0.4580  0.6018
   25CHL1   H20 1827   4.474   3.842   9.523  1.1954  0.7924  0.0650
   25CHL1   C21 1828   4.386   3.636   9.500  0.2938 -0.2802 -0.9144
   25CHL1  H21A 1829   4.334   3.639   9.402  0.5416 -1.2388 -1.0765
   25CHL1  H21B 1830   4.302   3.649   9.572 -0.9489 -3.0755 -1.7394
   25CHL1  H21C 1831   4.434   3.536   9.503 -0.7257 -0.7692  0.2622
   25CHL1   C22 1832   4.596   3.721   9.394  0.2542 -0.1645  0.0581
   25CHL1  H22A 1833   4.675   3.797   9.376  0.9249 -0.0484  2.9820
   25CHL1  H22B 1834   4.650   3.627   9.418 -0.8514 -0.6065  0.9218
   25CHL1   C23 1835   4.526   3.711   9.262 -0.1391  1.1718 -0.9700
   25CHL1  H23A 1836   4.474   3.612   9.256  1.3486  0.2729  0.3605
   25CHL1  H23B 1837   4.451   3.793   9.251 -1.1974  0.3283 -0.2542
   25CHL1   C24 1838   4.624   3.717   9.143  0.2705 -0.3939  0.3144
   25CHL1  H24A 1839   4.568   3.711   9.047  0.4412  0.9905  0.1062
   25CHL1  H24B 1840   4.672   3.817   9.143 -0.1974 -0.1509 -0.8791
   25CHL1   C25 1841   4.727   3.600   9.138  0.5569 -0.0996 -0.5653
   25CHL1   H25 1842   4.762   3.585   9.242 -3.7899 -1.4538  0.9257
   25CHL1   C26 1843   4.662   3.466   9.091 -0.2256  0.2593 -0.2827
   25CHL1  H26A 1844   4.740   3.387   9.084  0.3385  0.8484 -0.8084
   25CHL1  H26B 1845   4.578   3.431   9.155 -1.9460  1.6955 -1.6225
   25CHL1  H26C 1846   4.613   3.479   8.992 -1.2010 -0.9487  0.0140
   25CHL1   C27 1847   4.845   3.641   9.047  0.5752  0.8026  0.4206
   25CHL1  H27A 1848   4.850   3.752   9.044 -1.4568  0.9347  0.4990
   25CHL1  H27B 1849   4.932   3.595   9.098  0.4236  0.9703  0.8367
   25CHL1  H27C 1850   4.821   3.601   8.946  1.1791 -0.7049  0.8523
   26CHL1    C3 1851   4.482   5.806  10.322 -0.0366  0.5427  0.4141
   26CHL1    H3 1852   4.445   5.711  10.367  2.8490 -1.0481 -0.2718
   26CHL1    O3 1853   4.476   5.904  10.424  0.0226 -0.5424 -0.5367
   26CHL1   H3' 1854   4.486   5.993  10.389 -3.1845  0.8825  1.6287
   26CHL1    C4 1855   4.633   5.790  10.273  0.3883  0.5747  0.0551
   26CHL1   H4A 1856   4.670   5.895  10.264  0.2186  0.9066  2.4139
   26CHL1   H4B 1857   4.695   5.740  10.351 -0.4620 -0.0227  0.3682
   26CHL1    C5 1858   4.633   5.709  10.147  0.0761 -0.2244  1.4257
   26CHL1    C6 1859   4.714   5.604  10.130  0.9987  0.5632 -0.6795
   26CHL1    H6 1860   4.781   5.569  10.210  0.5256 -2.1816 -1.3612
   26CHL1    C7 1861   4.737   5.538  10.002  0.6798 -0.2594  0.2235
   26CHL1   H7A 1862   4.848   5.527   9.998  0.5772 -1.1931 -1.1794
   26CHL1   H7B 1863   4.687   5.439  10.005 -0.1107  0.1133 -0.2002
   26CHL1    C8 1864   4.692   5.626   9.874 -0.1596  0.5977 -0.2250
   26CHL1    H8 1865   4.771   5.703   9.860  0.6654 -0.4798 -1.7957
   26CHL1   C14 1866   4.688   5.545   9.743  0.1206 -0.2657  0.6598
   26CHL1   H14 1867   4.609   5.470   9.766 -0.5433  0.1367 -0.2465
   26CHL1   C15 1868   4.813   5.451   9.705  0.0342 -0.5918 -0.1980
   26CHL1  H15A 1869   4.911   5.488   9.743 -0.3834  0.0312  0.2937
   26CHL1  H15B 1870   4.791   5.359   9.764 -1.8960 -0.9752 -1.4230
   26CHL1   C16 1871   4.797   5.439   9.557  0.0335 -0.0382  0.2260
   26CHL1  H16A 1872   4.895   5.468   9.514 -0.3064 -0.8730 -1.2042
   26CHL1  H16B 1873   4.808   5.333   9.527  2.4537  0.4411 -0.7674
   26CHL1   C17 1874   4.678   5.519   9.506  0.2080  0.4389 -0.1765
   26CHL1   H17 1875   4.596   5.444   9.515 -0.4734  1.1889 -0.0376
   26CHL1   C13 1876   4.653   5.621   9.616  0.2035  0.2386  0.4143
   26CHL1   C18 1877   4.749   5.747   9.591  0.2893 -0.6363  0.0257
   26CHL1  H18A 1878   4.767   5.797   9.689 -1.8921  0.7738 -0.2241
   26CHL1  H18B 1879   4.834   5.715   9.527  0.7099 -0.2983  0.4119
   26CHL1  H18C 1880   4.694   5.828   9.538 -1.4081 -1.0864  1.0120
   26CHL1   C12 1881   4.505   5.657   9.637  0.8041  1.0625 -0.0926
   26CHL1  H12A 1882   4.457   5.704   9.548  0.4908 -0.9597 -1.0441
   26CHL1  H12B 1883   4.451   5.561   9.652 -0.1599  1.6819  0.4995
   26CHL1   C11 1884   4.479   5.736   9.773  0.4219  0.8701 -0.2596
   26CHL1  H11A 1885   4.505   5.840   9.745  2.0054  0.0922 -1.9241
   26CHL1  H11B 1886   4.370   5.731   9.792  0.7420 -0.5858  1.5497
   26CHL1    C9 1887   4.553   5.677   9.897 -0.3593 -0.2685 -0.8138
   26CHL1    H9 1888   4.499   5.590   9.939  2.1915 -0.3101  2.8721
   26CHL1   C10 1889   4.544   5.770  10.028 -0.1654  0.1389  0.9017
   26CHL1   C19 1890   4.589   5.910   9.983 -0.5146  0.5678 -0.1965
   26CHL1  H19A 1891   4.623   5.975  10.066 -1.2754  3.2621 -1.8733
   26CHL1  H19B 1892   4.678   5.904   9.917  0.9853  0.5625  1.7346
   26CHL1  H19C 1893   4.507   5.965   9.932 -0.4633  0.9895  0.1764
   26CHL1    C1 1894   4.397   5.775  10.078  0.0357  0.9199  0.5144
   26CHL1   H1A 1895   4.323   5.805  10.001 -2.3428 -2.1670  1.3745
   26CHL1   H1B 1896   4.380   5.666  10.097  0.7114  1.1690  2.8470
   26CHL1    C2 1897   4.387   5.854  10.207  0.0320 -0.6019  0.4902
   26CHL1   H2A 1898   4.283   5.866  10.244 -0.2258  2.2739 -0.9294
   26CHL1   H2B 1899   4.417   5.955  10.175  0.9770 -0.7784  0.7795
   26CHL1   C20 1900   4.682   5.561   9.358 -0.9368 -0.4063 -0.4748
   26CHL1   H20 1901   4.776   5.616   9.340 -1.5737  0.1082 -2.4650
   26CHL1   C21 1902   4.556   5.644   9.319  0.3582  0.1529  0.4636
   26CHL1  H21A 1903   4.462   5.588   9.331  0.8292 -0.6957  0.2822
   26CHL1  H21B 1904   4.555   5.681   9.214  1.2985 -0.2079  0.3155
   26CHL1  H21C 1905   4.560   5.737   9.379  1.5930  1.0326 -0.8923
   26CHL1   C22 1906   4.687   5.438   9.269 -0.8296 -0.8975 -0.8634
   26CHL1  H22A 1907   4.756   5.358   9.302  0.3206  0.4433  0.0870
   26CHL1  H22B 1908   4.590   5.389   9.243 -0.9623 -1.3114  0.3509
   26CHL1   C23 1909   4.727   5.485   9.124  0.5800  0.1656 -0.1479
   26CHL1  H23A 1910   4.639   5.534   9.075 -1.0763 -1.1358  1.3891
   26CHL1  H23B 1911   4.803   5.562   9.150  1.8047 -0.8761 -0.5669
   26CHL1   C24 1912   4.784   5.371   9.043 -0.3207  0.4769 -0.3902
   26CHL1  H24A 1913   4.861   5.335   9.115 -1.0265 -2.8033 -1.1325
   26CHL1  H24B 1914   4.707   5.293   9.026 -0.7769  0.8060  0.1273
   26CHL1   C25 1915   4.829   5.410   8.898 -0.1887 -0.2216 -0.3979
   26CHL1   H25 1916   4.889   5.502   8.913  0.3521 -0.9075  2.1573
   26CHL1   C26 1917   4.916   5.304   8.835  0.7377 -0.1509  0.8810
   26CHL1  H26A 1918   4.845   5.222   8.810 -0.8777  1.0204  1.4558
   26CHL1  H26B 1919   4.972   5.336   8.745  1.7513 -1.4694  1.0268
   26CHL1  H26C 1920   5.002   5.271   8.895  0.1571 -1.5538  0.9807
   26CHL1   C27 1921   4.703   5.440   8.817 -0.0079  0.2887  0.0420
   26CHL1  H27A 1922   4.629   5.358   8.822 -0.2214  0.2884 -2.1287
   26CHL1  H27B 1923   4.657   5.536   8.848 -2.7802 -0.3199 -1.8277
   26CHL1  H27C 1924   4.727   5.455   8.710 -1.9692  0.0153 -0.4648
   27CHL1    C3 1925   5.913   3.463  10.333  0.2397  0.5662 -0.1127
   27CHL1    H3 1926   5.825   3.517  10.291  0.7029  1.0961 -0.4157
   27CHL1    O3 1927   5.929   3.501  10.470  0.8400  0.0365  0.0904
   27CHL1   H3' 1928   5.925   3.413  10.508  1.4185 -0.2796 -0.5609
   27CHL1    C4 1929   5.879   3.305  10.315  0.4580 -0.5006 -0.2120
   27CHL1   H4A 1930   5.965   3.257  10.366  0.3669  2.2151  2.8190
   27CHL1   H4B 1931   5.786   3.283  10.370 -0.7997 -1.5847 -2.5961
   27CHL1    C5 1932   5.877   3.251  10.176 -0.0891  0.1805 -0.7181
   27CHL1    C6 1933   5.771   3.189  10.125  1.5154  0.4137  0.7588
   27CHL1    H6 1934   5.679   3.166  10.181  0.3939  0.6613 -0.8970
   27CHL1    C7 1935   5.764   3.137   9.984 -0.1249 -0.1215  0.4027
   27CHL1   H7A 1936   5.732   3.031   9.973  1.0287 -0.4339 -0.1824
   27CHL1   H7B 1937   5.692   3.210   9.941  2.9972  3.8524  1.2943
   27CHL1    C8 1938   5.896   3.148   9.905 -0.4075  0.9241 -0.8038
   27CHL1    H8 1939   5.968   3.076   9.947 -0.5818  1.9342  1.3768
   27CHL1   C14 1940   5.874   3.131   9.757 -0.2262  0.9891 -0.3839
   27CHL1   H14 1941   5.807   3.213   9.722  1.5651  1.4167 -3.1455
   27CHL1   C15 1942   5.826   2.997   9.699 -0.2352 -0.4058  0.3722
   27CHL1  H15A 1943   5.860   2.918   9.769 -0.9855  1.2255  2.7162
   27CHL1  H15B 1944   5.715   2.995   9.702 -0.3432  0.3152 -1.6977
   27CHL1   C16 1945   5.872   2.994   9.555 -0.1901 -0.0933  0.1613
   27CHL1  H16A 1946   5.939   2.906   9.544 -2.8027 -2.3799  1.4083
   27CHL1  H16B 1947   5.787   2.980   9.485  0.3073  2.7599 -1.1921
   27CHL1   C17 1948   5.948   3.125   9.527 -0.2055  0.1945 -0.9241
   27CHL1   H17 1949   5.880   3.211   9.512 -0.1649  0.3418 -0.2956
   27CHL1   C13 1950   6.004   3.156   9.670 -0.6389  0.1701  0.6911
   27CHL1   C18 1951   6.115   3.057   9.700 -0.5059  0.1233 -0.0662
   27CHL1  H18A 1952   6.098   2.955   9.660 -0.6012 -0.3657  1.1749
   27CHL1  H18B 1953   6.217   3.089   9.669 -0.7390  0.8448 -0.1023
   27CHL1  H18C 1954   6.126   3.042   9.810  2.0885  0.9924 -0.1450
   27CHL1   C12 1955   6.045   3.304   9.691  0.6721 -0.4501  0.0132
   27CHL1  H12A 1956   6.143   3.318   9.639 -0.0855  2.3677 -0.8495
   27CHL1  H12B 1957   5.977   3.374   9.639 -0.4566 -1.1323  0.5380
   27CHL1   C11 1958   6.063   3.334   9.838  0.3469 -0.2176  0.4778
   27CHL1  H11A 1959   6.162   3.290   9.862 -1.0248 -3.3188  0.9577
   27CHL1  H11B 1960   6.068   3.445   9.842 -1.7644 -0.0882  0.6859
   27CHL1    C9 1961   5.953   3.289   9.937 -0.0921 -0.4039  0.4183
   27CHL1    H9 1962   5.868   3.361   9.932  0.1763 -0.0815  0.4719
   27CHL1   C10 1963   5.998   3.302  10.093  0.3674  0.3855 -0.2605
   27CHL1   C19 1964   6.115   3.211  10.125  0.1055  0.0372 -0.1409
   27CHL1  H19A 1965   6.107   3.104  10.096 -1.0772  0.4918 -1.6400
   27CHL1  H19B 1966   6.199   3.255  10.066  0.9880 -0.6497  0.5844
   27CHL1  H19C 1967   6.154   3.223  10.228 -2.2987  1.8571  0.6530
   27CHL1    C1 1968   6.035   3.455  10.112  0.4317 -0.3233  0.0705
   27CHL1   H1A 1969   6.131   3.472  10.058 -0.2073  1.0037 -0.6923
   27CHL1   H1B 1970   5.963   3.519  10.058  2.3756  2.7263  0.8216
   27CHL1    C2 1971   6.040   3.502  10.256  0.2952  0.4100 -0.5681
   27CHL1   H2A 1972   6.041   3.611  10.279 -0.5817 -0.0334  1.8969
   27CHL1   H2B 1973   6.127   3.450  10.300  0.8909  1.5623 -0.3346
   27CHL1   C20 1974   6.046   3.097   9.405  0.3009  0.3328 -0.3413
   27CHL1   H20 1975   6.120   3.017   9.427  0.5873  0.2874 -1.4213
   27CHL1   C21 1976   6.128   3.223   9.376 -0.1483  0.6173 -0.2190
   27CHL1  H21A 1977   6.184   3.208   9.281 -0.4300  0.2883 -0.3345
   27CHL1  H21B 1978   6.200   3.238   9.460 -0.4651 -0.2658  0.2192
   27CHL1  H21C 1979   6.064   3.310   9.350 -0.0950  0.5608 -0.5446
   27CHL1   C22 1980   5.965   3.054   9.281  0.4329 -0.2803 -0.2976
   27CHL1  H22A 1981   6.030   3.018   9.197 -0.5348 -0.2271 -1.0889
   27CHL1  H22B 1982   5.913   2.956   9.293  1.4766 -1.0512 -1.7213
   27CHL1   C23 1983   5.841   3.144   9.249 -0.0287 -0.4059  0.8814
   27CHL1  H23A 1984   5.763   3.144   9.328  0.1654 -0.5193  1.0720
   27CHL1  H23B 1985   5.884   3.245   9.229 -0.1743 -0.4454  0.3351
   27CHL1   C24 1986   5.770   3.114   9.114 -0.1371  0.5493  0.1659
   27CHL1  H24A 1987   5.842   3.085   9.034 -1.2031  2.4612 -1.5861
   27CHL1  H24B 1988   5.704   3.030   9.143 -1.2512  1.0063 -0.9527
   27CHL1   C25 1989   5.679   3.224   9.052  1.1496  0.2887 -0.7286
   27CHL1   H25 1990   5.738   3.306   9.005  1.6792  0.3883  0.0951
   27CHL1   C26 1991   5.571   3.169   8.960  0.0271  0.4128  0.7706
   27CHL1  H26A 1992   5.484   3.237   8.948 -2.2140 -2.4591 -0.8609
   27CHL1  H26B 1993   5.607   3.138   8.860 -0.1950 -0.3378  0.9158
   27CHL1  H26C 1994   5.534   3.074   9.005 -0.4304  0.3495  0.2703
   27CHL1   C27 1995   5.604   3.295   9.174 -0.1076  0.9254  0.0204
   27CHL1  H27A 1996   5.538   3.219   9.223  0.4647 -0.3718 -1.1500
   27CHL1  H27B 1997   5.680   3.346   9.238  1.8523 -1.4020 -0.2943
   27CHL1  H27C 1998   5.531   3.365   9.130 -1.1891 -0.8699 -1.1904
   28CHL1    C3 1999   4.538   1.985   9.993 -0.9650 -0.3058 -0.0019
   28CHL1    H3 2000   4.437   2.028   9.983 -0.4025  0.6672 -1.9348
   28CHL1    O3 2001   4.581   1.967  10.135  0.5418  0.1036 -0.6859
   28CHL1   H3' 2002   4.669   1.930  10.129  1.6347  2.2566  0.7087
   28CHL1    C4 2003   4.549   1.844   9.915  0.3743 -0.0153 -0.3556
   28CHL1   H4A 2004   4.647   1.801   9.944  1.0199  0.8309 -1.2200
   28CHL1   H4B 2005   4.474   1.780   9.966  1.0698 -0.2897  0.3362
   28CHL1    C5 2006   4.532   1.859   9.766 -0.1929 -0.5209  0.7714
   28CHL1    C6 2007   4.441   1.784   9.696  0.0834  0.5026  0.0647
   28CHL1    H6 2008   4.388   1.711   9.759 -0.5107 -1.3847 -2.4540
   28CHL1    C7 2009   4.424   1.781   9.546 -0.8179  0.5705  0.2250
   28CHL1   H7A 2010   4.417   1.680   9.502  1.6989 -0.1378  1.2770
   28CHL1   H7B 2011   4.328   1.832   9.525  0.8996  3.4968 -1.1917
   28CHL1    C8 2012   4.532   1.868   9.474 -0.4734 -0.1048 -0.2763
   28CHL1    H8 2013   4.623   1.806   9.461 -1.6133 -1.7298 -0.7343
   28CHL1   C14 2014   4.485   1.902   9.336 -0.0405  0.3294 -0.2098
   28CHL1   H14 2015   4.395   1.967   9.344 -0.2959 -0.0979  0.4724
   28CHL1   C15 2016   4.460   1.784   9.242 -0.0302  0.0791 -0.3561
   28CHL1  H15A 2017   4.532   1.702   9.265  0.0558  0.8697  2.6236
   28CHL1  H15B 2018   4.359   1.740   9.259 -0.3197  0.1500 -1.8409
   28CHL1   C16 2019   4.450   1.848   9.101  0.2851  0.0257 -0.2499
   28CHL1  H16A 2020   4.491   1.780   9.024 -1.1875 -0.9418 -0.2114
   28CHL1  H16B 2021   4.343   1.859   9.075  0.6434 -0.0213 -1.7868
   28CHL1   C17 2022   4.514   1.989   9.118 -1.1238  0.3800 -0.0939
   28CHL1   H17 2023   4.429   2.057   9.141 -2.3142 -1.4044  1.0504
   28CHL1   C13 2024   4.582   1.990   9.259  0.4527  0.0373 -0.2189
   28CHL1   C18 2025   4.721   1.917   9.242  0.4901 -0.4058  0.1122
   28CHL1  H18A 2026   4.765   1.916   9.344 -1.1788  0.4907  0.8817
   28CHL1  H18B 2027   4.721   1.820   9.187 -0.9789 -0.1959 -0.3104
   28CHL1  H18C 2028   4.785   1.988   9.185 -0.2202  2.0224  2.1762
   28CHL1   C12 2029   4.587   2.124   9.329  0.1370 -0.2452  0.9676
   28CHL1  H12A 2030   4.655   2.193   9.275 -0.0525 -1.2465 -0.6121
   28CHL1  H12B 2031   4.488   2.175   9.338  0.1443 -0.4720  2.7568
   28CHL1   C11 2032   4.629   2.107   9.473 -0.2983  0.1719 -0.1440
   28CHL1  H11A 2033   4.739   2.091   9.477 -0.3625 -0.8830 -1.8133
   28CHL1  H11B 2034   4.619   2.205   9.524 -2.9092  0.4390 -1.0303
   28CHL1    C9 2035   4.559   1.991   9.561  0.2017 -0.4584 -0.6671
   28CHL1    H9 2036   4.459   2.034   9.582  0.2610 -0.7172  0.1484
   28CHL1   C10 2037   4.621   1.962   9.697  0.4564 -0.6095 -0.9183
   28CHL1   C19 2038   4.769   1.910   9.681  0.2402 -0.4555 -0.4344
   28CHL1  H19A 2039   4.778   1.828   9.608  2.2262 -0.1966 -0.5405
   28CHL1  H19B 2040   4.832   1.993   9.643 -0.1898 -0.5440 -1.3670
   28CHL1  H19C 2041   4.813   1.880   9.778 -0.2307  0.3266  0.0410
   28CHL1    C1 2042   4.617   2.095   9.782  0.6605  0.2775  0.7320
   28CHL1   H1A 2043   4.698   2.156   9.735  1.3726 -0.5769  0.8142
   28CHL1   H1B 2044   4.521   2.150   9.780 -0.4478 -1.4356 -3.1523
   28CHL1    C2 2045   4.648   2.075   9.929  0.9608  0.7689  0.1275
   28CHL1   H2A 2046   4.657   2.176   9.973  0.6883  0.7284  0.2821
   28CHL1   H2B 2047   4.745   2.023   9.944  0.4324 -0.3796 -0.2499
   28CHL1   C20 2048   4.591   2.028   8.998  0.0082 -0.7586 -0.2805
   28CHL1   H20 2049   4.675   1.956   8.986  0.2502 -0.5839  0.3628
   28CHL1   C21 2050   4.641   2.176   9.014  0.1966 -0.1994  0.0317
   28CHL1  H21A 2051   4.563   2.250   9.041  0.5886  1.1296 -2.2246
   28CHL1  H21B 2052   4.687   2.207   8.918  3.1325 -2.4455  0.5607
   28CHL1  H21C 2053   4.725   2.180   9.086 -0.0992  0.2762  0.3557
   28CHL1   C22 2054   4.510   2.015   8.863 -0.1381 -0.7201  0.5949
   28CHL1  H22A 2055   4.465   1.916   8.838 -0.7380 -0.4621  0.6404
   28CHL1  H22B 2056   4.423   2.084   8.862 -0.6119 -1.2569  2.0673
   28CHL1   C23 2057   4.593   2.032   8.729  0.3213  0.1287  0.3636
   28CHL1  H23A 2058   4.634   2.134   8.716 -0.5602  0.5853  1.1428
   28CHL1  H23B 2059   4.669   1.951   8.739 -0.3943 -0.3585  2.2959
   28CHL1   C24 2060   4.497   2.001   8.612  0.0572 -0.3076  0.6953
   28CHL1  H24A 2061   4.449   1.902   8.623 -0.0231 -0.1319  2.0296
   28CHL1  H24B 2062   4.408   2.067   8.611 -2.8969 -4.0122  0.0283
   28CHL1   C25 2063   4.550   2.017   8.474 -0.5166  0.0198  0.8321
   28CHL1   H25 2064   4.600   2.115   8.459  1.3187 -0.9565  0.3875
   28CHL1   C26 2065   4.665   1.920   8.436  0.4828 -0.6431  0.1449
   28CHL1  H26A 2066   4.756   1.954   8.490  0.7059  0.5507 -0.9406
   28CHL1  H26B 2067   4.624   1.823   8.471 -1.8899  1.0941  2.6472
   28CHL1  H26C 2068   4.675   1.896   8.328  0.4230 -1.3540  0.2912
   28CHL1   C27 2069   4.442   1.997   8.369 -0.5660  0.3121 -0.1772
   28CHL1  H27A 2070   4.365   2.077   8.380 -1.3118  0.3519 -4.2247
   28CHL1  H27B 2071   4.469   2.011   8.262 -1.6007 -2.2324 -0.8308
   28CHL1  H27C 2072   4.393   1.900   8.390 -1.2745  0.7575  0.2680
   29CHL1    C3 2073   4.921   6.553   6.641 -0.7430  0.8668 -0.3463
   29CHL1    H3 2074   4.847   6.608   6.702  0.9651  1.9429  0.8165
   29CHL1    O3 2075   4.886   6.532   6.504  0.2973  0.2379  0.0620
   29CHL1   H3' 2076   4.834   6.603   6.465 -0.7899 -1.2146 -1.2289
   29CHL1    C4 2077   5.044   6.645   6.640 -0.2646 -0.5955 -0.0402
   29CHL1   H4A 2078   5.123   6.601   6.575  2.1218  1.5269  1.2688
   29CHL1   H4B 2079   5.016   6.741   6.592 -0.6625 -0.5811  0.2216
   29CHL1    C5 2080   5.100   6.664   6.777  0.7710 -0.3358 -0.3979
   29CHL1    C6 2081   5.100   6.783   6.834 -0.9282  0.3667 -0.1127
   29CHL1    H6 2082   5.066   6.870   6.777 -0.8923  0.3671 -0.1328
   29CHL1    C7 2083   5.161   6.813   6.972  0.5021  0.0810  0.6341
   29CHL1   H7A 2084   5.241   6.890   6.972 -0.7018  1.3680 -0.0184
   29CHL1   H7B 2085   5.080   6.850   7.039 -3.2311 -0.2549 -3.2517
   29CHL1    C8 2086   5.236   6.688   7.032  0.0750 -0.2128 -0.3765
   29CHL1    H8 2087   5.336   6.669   6.985  0.2900 -0.2688  0.1002
   29CHL1   C14 2088   5.238   6.709   7.184 -0.1802  0.4032  0.4480
   29CHL1   H14 2089   5.129   6.711   7.207 -0.3575  1.0169 -0.3984
   29CHL1   C15 2090   5.297   6.834   7.241  0.0972  0.4323 -0.4830
   29CHL1  H15A 2091   5.387   6.863   7.184  0.0308  0.4974 -0.5556
   29CHL1  H15B 2092   5.216   6.910   7.232 -1.4473 -0.9360  0.9853
   29CHL1   C16 2093   5.330   6.804   7.386  0.5776 -0.1776 -0.4026
   29CHL1  H16A 2094   5.437   6.830   7.398  0.5915 -0.5566  0.3616
   29CHL1  H16B 2095   5.271   6.870   7.453  1.0003  0.1933 -0.3858
   29CHL1   C17 2096   5.288   6.653   7.412  0.5771  1.0170  0.3608
   29CHL1   H17 2097   5.180   6.659   7.435 -0.0435 -1.2775 -1.5466
   29CHL1   C13 2098   5.289   6.589   7.266  0.5756 -0.1763 -0.4432
   29CHL1   C18 2099   5.441   6.563   7.236  0.4207 -0.1237 -0.1158
   29CHL1  H18A 2100   5.472   6.477   7.300  1.3249 -0.8119 -1.4279
   29CHL1  H18B 2101   5.461   6.518   7.136  0.6926 -0.3912  0.0559
   29CHL1  H18C 2102   5.505   6.653   7.241 -0.6710  0.6237  1.1876
   29CHL1   C12 2103   5.203   6.462   7.253  1.1846  0.1850 -0.0419
   29CHL1  H12A 2104   5.247   6.370   7.296 -1.0218 -0.4122  1.0856
   29CHL1  H12B 2105   5.099   6.478   7.289  0.8394  1.0135 -1.3371
   29CHL1   C11 2106   5.191   6.441   7.094 -0.1299  0.1384 -0.0235
   29CHL1  H11A 2107   5.277   6.379   7.061  0.3819  0.0138  1.4886
   29CHL1  H11B 2108   5.103   6.372   7.092 -0.2824  0.2081  2.0749
   29CHL1    C9 2109   5.161   6.562   6.999  1.2665 -0.9990 -0.8663
   29CHL1    H9 2110   5.056   6.584   7.026  0.7075 -2.5089 -1.6778
   29CHL1   C10 2111   5.141   6.537   6.851  0.7740  0.0457  0.4872
   29CHL1   C19 2112   5.263   6.470   6.795  0.6808  0.8546  0.6722
   29CHL1  H19A 2113   5.305   6.382   6.849  0.7730  0.4560 -0.0377
   29CHL1  H19B 2114   5.257   6.429   6.692  1.3799 -1.1122  1.3711
   29CHL1  H19C 2115   5.351   6.537   6.786 -0.8757  2.8101 -0.7937
   29CHL1    C1 2116   5.015   6.442   6.843  0.2669  0.8520 -0.3257
   29CHL1   H1A 2117   5.042   6.343   6.886 -2.9970 -0.1520 -0.2676
   29CHL1   H1B 2118   4.928   6.488   6.895 -0.9294 -0.3069 -1.2210
   29CHL1    C2 2119   4.962   6.412   6.701 -0.3865 -0.1529 -0.2493
   29CHL1   H2A 2120   4.869   6.351   6.701 -0.0639 -0.7446 -2.3238
   29CHL1   H2B 2121   5.038   6.350   6.649 -1.9738 -2.5575  0.1307
   29CHL1   C20 2122   5.363   6.577   7.527 -0.0780  0.1600 -0.1399
   29CHL1   H20 2123   5.455   6.527   7.492 -0.1319 -0.1388  0.1421
   29CHL1   C21 2124   5.261   6.465   7.578 -0.5242 -0.1312  0.3031
   29CHL1  H21A 2125   5.161   6.510   7.600  0.3139  1.6042  0.7301
   29CHL1  H21B 2126   5.306   6.424   7.671  1.5456 -0.5669 -0.8264
   29CHL1  H21C 2127   5.258   6.379   7.507  1.3458 -0.8474  1.0322
   29CHL1   C22 2128   5.402   6.684   7.639  0.3759  0.9270 -0.3159
   29CHL1  H22A 2129   5.493   6.738   7.605  1.9376 -1.1665  0.2655
   29CHL1  H22B 2130   5.322   6.760   7.634  1.2364  1.8149 -1.3025
   29CHL1   C23 2131   5.419   6.626   7.781 -0.6203  0.0953  0.6561
   29CHL1  H23A 2132   5.320   6.611   7.828 -0.3791 -0.7568  0.9155
   29CHL1  H23B 2133   5.486   6.537   7.782 -0.3278  0.2880 -0.4375
   29CHL1   C24 2134   5.470   6.741   7.869 -0.2223  1.0040  0.3426
   29CHL1  H24A 2135   5.570   6.770   7.831  0.0228 -1.4621 -1.1077
   29CHL1  H24B 2136   5.397   6.825   7.860  0.7387  1.7970 -0.2068
   29CHL1   C25 2137   5.490   6.717   8.023  0.1109 -0.0676 -0.5050
   29CHL1   H25 2138   5.558   6.633   8.050 -0.7059 -1.5684 -2.8245
   29CHL1   C26 2139   5.545   6.846   8.086 -0.9203 -0.6079 -0.4464
   29CHL1  H26A 2140   5.642   6.869   8.039 -2.4345  0.1138 -3.4602
   29CHL1  H26B 2141   5.480   6.932   8.058  0.7371  0.0220 -2.5196
   29CHL1  H26C 2142   5.563   6.845   8.196  1.3532  1.2320 -0.7359
   29CHL1   C27 2143   5.351   6.678   8.088 -0.3916  0.8170  0.3409
   29CHL1  H27A 2144   5.369   6.686   8.197  0.1876 -1.0687  0.4190
   29CHL1  H27B 2145   5.273   6.753   8.064 -1.5111 -0.0195  1.2842
   29CHL1  H27C 2146   5.313   6.580   8.052  0.3146  1.2821 -1.8633
   30CHL1    C3 2147   2.001   5.486   7.284  0.1299  0.1676 -0.1333
   30CHL1    H3 2148   2.056   5.394   7.312 -1.4833 -0.8408 -0.1729
   30CHL1    O3 2149   1.929   5.445   7.171  0.0664 -0.0751  0.6814
   30CHL1   H3' 2150   1.895   5.528   7.137 -1.6844 -1.0933 -0.1711
   30CHL1    C4 2151   1.893   5.544   7.381 -0.5744 -0.2057  0.4348
   30CHL1   H4A 2152   1.834   5.617   7.322  1.8555  0.1107 -1.8075
   30CHL1   H4B 2153   1.818   5.466   7.406 -1.5553  1.2645  2.3691
   30CHL1    C5 2154   1.953   5.617   7.500 -0.3126  0.2709 -0.4235
   30CHL1    C6 2155   1.920   5.580   7.624 -0.2218  0.0254  0.4344
   30CHL1    H6 2156   1.853   5.495   7.641 -0.4236  0.2171  0.6027
   30CHL1    C7 2157   1.986   5.646   7.741  0.2208 -0.0696 -0.4179
   30CHL1   H7A 2158   1.913   5.669   7.822  1.3033 -1.0376  0.8775
   30CHL1   H7B 2159   2.061   5.575   7.782 -1.7130 -0.4073  2.9581
   30CHL1    C8 2160   2.063   5.779   7.710 -0.5629 -0.0520  0.4104
   30CHL1    H8 2161   1.981   5.851   7.687 -0.2377  0.2445  0.1688
   30CHL1   C14 2162   2.150   5.829   7.823 -0.0188  0.5769 -0.4312
   30CHL1   H14 2163   2.231   5.756   7.844  0.3776  1.1053 -0.0645
   30CHL1   C15 2164   2.081   5.849   7.959 -0.2086  0.2654  1.3398
   30CHL1  H15A 2165   1.985   5.901   7.941 -0.3412 -0.0014  1.2803
   30CHL1  H15B 2166   2.054   5.751   8.002  2.4231 -0.6912  1.0316
   30CHL1   C16 2167   2.171   5.942   8.035 -0.4524  0.0887 -0.1616
   30CHL1  H16A 2168   2.107   6.027   8.067  0.2879  0.8787 -0.7349
   30CHL1  H16B 2169   2.220   5.882   8.114 -0.5910 -0.9338 -0.8349
   30CHL1   C17 2170   2.288   5.981   7.941  0.4217 -0.0997 -0.7654
   30CHL1   H17 2171   2.361   5.898   7.950  0.5043  0.1908  2.1893
   30CHL1   C13 2172   2.231   5.963   7.800 -0.8482  0.2581  0.1273
   30CHL1   C18 2173   2.138   6.082   7.757 -0.0370  0.3797  0.1839
   30CHL1  H18A 2174   2.058   6.101   7.832 -0.5962  0.8235 -0.5164
   30CHL1  H18B 2175   2.197   6.176   7.748 -0.6330  0.6668 -0.8028
   30CHL1  H18C 2176   2.078   6.058   7.667 -2.2140 -0.9693  1.8957
   30CHL1   C12 2177   2.326   5.928   7.685 -0.1391  0.3023 -0.9422
   30CHL1  H12A 2178   2.386   6.014   7.648  1.2566 -0.9881 -1.7741
   30CHL1  H12B 2179   2.395   5.846   7.713 -1.3494 -0.6738 -0.7252
   30CHL1   C11 2180   2.240   5.881   7.561 -0.2587 -0.3151 -0.4932
   30CHL1  H11A 2181   2.189   5.972   7.522  3.0524  1.4233 -1.1699
   30CHL1  H11B 2182   2.301   5.860   7.470  0.4830  0.5096 -0.1978
   30CHL1    C9 2183   2.150   5.757   7.589  0.3621 -0.6036  0.4235
   30CHL1    H9 2184   2.211   5.669   7.618  0.5501 -1.0281 -1.1995
   30CHL1   C10 2185   2.064   5.710   7.464  0.0573  0.6388  0.4115
   30CHL1   C19 2186   1.992   5.828   7.392  0.3160 -1.3400 -0.2551
   30CHL1  H19A 2187   2.065   5.884   7.330 -1.7426 -0.7469 -2.2669
   30CHL1  H19B 2188   1.914   5.792   7.321 -0.6635 -1.4462  0.8463
   30CHL1  H19C 2189   1.933   5.891   7.461  1.0746  0.5046 -1.2394
   30CHL1    C1 2190   2.162   5.644   7.370 -0.4173  0.7030  0.2748
   30CHL1   H1A 2191   2.243   5.714   7.339  0.4162 -0.3002  0.1576
   30CHL1   H1B 2192   2.212   5.560   7.423 -0.6586 -0.4798 -1.2962
   30CHL1    C2 2193   2.105   5.586   7.234  0.5039 -0.2850 -0.0553
   30CHL1   H2A 2194   2.187   5.546   7.171 -0.8520  2.1247 -3.6359
   30CHL1   H2B 2195   2.056   5.672   7.183 -0.9417 -0.8819  0.2832
   30CHL1   C20 2196   2.346   6.115   7.976  0.4018  0.2541 -0.5398
   30CHL1   H20 2197   2.269   6.186   7.940  1.0680  0.8358 -0.8461
   30CHL1   C21 2198   2.463   6.142   7.886  0.6002  0.1795 -0.1124
   30CHL1  H21A 2199   2.433   6.169   7.782 -2.1524 -0.5568  0.4160
   30CHL1  H21B 2200   2.528   6.053   7.894  1.1637  0.6994  1.3506
   30CHL1  H21C 2201   2.520   6.232   7.918  0.2079  0.7278 -0.9034
   30CHL1   C22 2202   2.385   6.127   8.122  0.4934  0.5026 -1.1053
   30CHL1  H22A 2203   2.314   6.085   8.197  2.6104  1.0495  1.3528
   30CHL1  H22B 2204   2.475   6.062   8.127 -0.3521 -0.6255  0.2352
   30CHL1   C23 2205   2.432   6.269   8.161  0.2592 -0.2004 -0.1323
   30CHL1  H23A 2206   2.525   6.302   8.111 -0.0719  2.5223  0.9064
   30CHL1  H23B 2207   2.355   6.340   8.124  1.7049  1.6414  0.2642
   30CHL1   C24 2208   2.448   6.279   8.313 -0.0163  0.1287  0.6414
   30CHL1  H24A 2209   2.359   6.252   8.374 -1.2383 -0.9097 -1.4493
   30CHL1  H24B 2210   2.535   6.214   8.334 -0.2292 -0.2512  0.3445
   30CHL1   C25 2211   2.476   6.425   8.359  0.3291  0.9390  0.9099
   30CHL1   H25 2212   2.397   6.485   8.309  0.6822 -0.1215 -0.9871
   30CHL1   C26 2213   2.460   6.427   8.513  0.1431 -0.5984  0.7908
   30CHL1  H26A 2214   2.509   6.512   8.566  1.0149 -1.6721  1.7548
   30CHL1  H26B 2215   2.351   6.421   8.535  0.3443 -1.4676  1.6177
   30CHL1  H26C 2216   2.514   6.339   8.552  1.8306  0.1642  0.2614
   30CHL1   C27 2217   2.614   6.474   8.316 -0.3243 -0.0748  0.0783
   30CHL1  H27A 2218   2.695   6.418   8.365  0.0628 -0.4129 -0.9335
   30CHL1  H27B 2219   2.634   6.464   8.207  1.4790 -1.6909  0.5170
   30CHL1  H27C 2220   2.633   6.581   8.341  0.5648 -0.0370 -0.7129
   31CHL1    C3 2221   3.200   0.827   6.895 -0.5110 -1.0256  0.6289
   31CHL1    H3 2222   3.195   0.938   6.895  3.5523 -0.5634 -3.2173
   31CHL1    O3 2223   3.164   0.780   6.769 -0.1044 -0.8746  0.0280
   31CHL1   H3' 2224   3.175   0.685   6.768 -0.6283 -0.9544  0.7426
   31CHL1    C4 2225   3.348   0.789   6.915 -0.3370  0.5030 -0.6492
   31CHL1   H4A 2226   3.357   0.682   6.887 -1.1558  0.3040 -0.1825
   31CHL1   H4B 2227   3.414   0.838   6.840  1.5588 -2.4520 -1.0773
   31CHL1    C5 2228   3.405   0.811   7.054  0.4114 -0.2055 -0.6286
   31CHL1    C6 2229   3.530   0.864   7.076  0.4478  0.0779 -0.3712
   31CHL1    H6 2230   3.592   0.893   6.990  1.8311 -0.1155  0.5321
   31CHL1    C7 2231   3.600   0.889   7.203 -0.2525  0.8799  0.6302
   31CHL1   H7A 2232   3.704   0.850   7.195 -0.6028 -0.0188  0.3357
   31CHL1   H7B 2233   3.593   0.996   7.229 -0.7309  1.1190 -0.4122
   31CHL1    C8 2234   3.526   0.808   7.315  0.6989  0.0811  0.0628
   31CHL1    H8 2235   3.552   0.700   7.305 -4.6907 -1.4335 -0.7293
   31CHL1   C14 2236   3.581   0.857   7.450  0.1440 -0.0064  0.2366
   31CHL1   H14 2237   3.559   0.965   7.461  0.4312  0.3252 -2.0139
   31CHL1   C15 2238   3.734   0.856   7.472  0.8017  0.2497  0.6417
   31CHL1  H15A 2239   3.779   0.757   7.454 -0.8003 -0.2362 -0.9491
   31CHL1  H15B 2240   3.783   0.936   7.413 -0.2959  1.8738  1.8285
   31CHL1   C16 2241   3.740   0.877   7.616 -0.5373  0.1642  0.8473
   31CHL1  H16A 2242   3.798   0.800   7.671  0.7790  0.4286 -0.1379
   31CHL1  H16B 2243   3.777   0.977   7.648  0.0295  1.0635 -2.2846
   31CHL1   C17 2244   3.595   0.869   7.682 -0.2336  0.0393 -0.0552
   31CHL1   H17 2245   3.555   0.972   7.670 -3.2550 -1.1990 -1.6306
   31CHL1   C13 2246   3.512   0.795   7.577  0.0253 -0.0324  0.1875
   31CHL1   C18 2247   3.545   0.651   7.589  0.0950 -0.0933  0.4019
   31CHL1  H18A 2248   3.468   0.608   7.656 -0.6352  2.1174  1.0833
   31CHL1  H18B 2249   3.526   0.608   7.488 -0.1184  1.4162 -0.2290
   31CHL1  H18C 2250   3.644   0.620   7.628 -0.5880 -0.3063  2.0322
   31CHL1   C12 2251   3.361   0.822   7.567  0.4650 -0.0985  0.0276
   31CHL1  H12A 2252   3.311   0.775   7.654  1.0224 -0.1953  0.3015
   31CHL1  H12B 2253   3.342   0.931   7.579  0.2430 -0.2513  1.0826
   31CHL1   C11 2254   3.303   0.772   7.431 -0.4662 -0.0335 -0.2212
   31CHL1  H11A 2255   3.302   0.661   7.435  1.9368 -0.0775  1.7874
   31CHL1  H11B 2256   3.198   0.802   7.409 -0.0856  0.4394 -1.4706
   31CHL1    C9 2257   3.373   0.824   7.306 -0.8489  0.3343 -0.0480
   31CHL1    H9 2258   3.348   0.932   7.310 -0.7817  0.3542 -0.1622
   31CHL1   C10 2259   3.316   0.770   7.174 -0.0524 -0.5656  0.2872
   31CHL1   C19 2260   3.310   0.618   7.179 -0.2792  0.3234  0.1342
   31CHL1  H19A 2261   3.218   0.588   7.234 -0.6488  2.0772  0.5459
   31CHL1  H19B 2262   3.316   0.563   7.083  0.2918  0.2447  0.2100
   31CHL1  H19C 2263   3.401   0.582   7.232  0.8746  1.4930 -0.9891
   31CHL1    C1 2264   3.167   0.818   7.147 -0.2907  0.0338  0.5487
   31CHL1   H1A 2265   3.095   0.794   7.228  0.1042  0.4382  1.0278
   31CHL1   H1B 2266   3.174   0.929   7.149  1.0418 -0.0327  0.9289
   31CHL1    C2 2267   3.108   0.771   7.009 -0.5017 -0.1553  0.0414
   31CHL1   H2A 2268   3.005   0.810   6.997 -0.4154 -0.1123 -0.6451
   31CHL1   H2B 2269   3.098   0.661   7.000 -1.1042  0.0406 -2.5528
   31CHL1   C20 2270   3.601   0.816   7.823 -0.2025 -0.2136  0.6499
   31CHL1   H20 2271   3.660   0.722   7.828  0.5919  0.3107  1.4226
   31CHL1   C21 2272   3.463   0.777   7.886  0.4890 -0.2994  0.1238
   31CHL1  H21A 2273   3.473   0.738   7.989 -0.9257 -0.5854  0.1668
   31CHL1  H21B 2274   3.415   0.693   7.831  1.0848  0.0017 -0.8882
   31CHL1  H21C 2275   3.383   0.854   7.885  1.4155  0.6921 -0.7742
   31CHL1   C22 2276   3.680   0.914   7.914  0.9573 -0.4534  0.0625
   31CHL1  H22A 2277   3.766   0.958   7.859  1.0994  0.1741  0.7663
   31CHL1  H22B 2278   3.608   0.992   7.946  1.6242 -0.7407  2.4937
   31CHL1   C23 2279   3.734   0.844   8.040 -0.1034  0.0927  0.1145
   31CHL1  H23A 2280   3.652   0.791   8.094  1.5207 -0.6427  1.9691
   31CHL1  H23B 2281   3.805   0.762   8.015 -0.8726 -1.0880  1.6690
   31CHL1   C24 2282   3.826   0.925   8.134 -0.0463  0.0531 -0.6126
   31CHL1  H24A 2283   3.932   0.931   8.102  0.3617  1.6744  0.9038
   31CHL1  H24B 2284   3.786   1.028   8.140  0.4720  0.1918  0.7902
   31CHL1   C25 2285   3.837   0.871   8.279  0.2426  0.4423 -0.8644
   31CHL1   H25 2286   3.914   0.933   8.329  0.7762  0.4073 -1.6311
   31CHL1   C26 2287   3.696   0.877   8.358 -0.1539 -0.5395 -0.2405
   31CHL1  H26A 2288   3.710   0.842   8.463 -0.5828  0.5232  0.1870
   31CHL1  H26B 2289   3.658   0.980   8.343 -0.1861 -0.9303 -3.4236
   31CHL1  H26C 2290   3.621   0.819   8.301  0.6281  0.9451 -2.9661
   31CHL1   C27 2291   3.894   0.734   8.294  0.2488  0.0650  0.0727
   31CHL1  H27A 2292   3.889   0.685   8.394  1.2328  1.4267  0.8191
   31CHL1  H27B 2293   3.996   0.727   8.251 -0.8126 -0.8210 -2.4814
   31CHL1  H27C 2294   3.830   0.665   8.235  2.0874 -0.2723 -1.6165
   32CHL1    C3 2295   5.147   5.006   6.999  0.6893  0.3912 -0.5761
   32CHL1    H3 2296   5.227   5.083   7.007 -0.7698  1.7862  1.6754
   32CHL1    O3 2297   5.105   5.013   6.866 -0.3009  0.0234  0.1395
   32CHL1   H3' 2298   5.044   4.939   6.863  0.3153 -0.4755 -0.6785
   32CHL1    C4 2299   5.178   4.860   7.034 -0.2290  0.2298 -0.0815
   32CHL1   H4A 2300   5.100   4.791   6.994  0.7179  0.4029 -2.3994
   32CHL1   H4B 2301   5.265   4.833   6.971 -1.5703 -2.4466 -0.9648
   32CHL1    C5 2302   5.192   4.828   7.180  0.1286  0.2187 -0.4673
   32CHL1    C6 2303   5.295   4.757   7.224  0.9436  0.3605  0.4112
   32CHL1    H6 2304   5.367   4.720   7.148  0.0398 -0.1759 -0.2018
   32CHL1    C7 2305   5.296   4.707   7.369  0.5640  0.4837  0.5529
   32CHL1   H7A 2306   5.336   4.604   7.383  0.2147  0.0009 -1.6656
   32CHL1   H7B 2307   5.378   4.765   7.415  0.1905 -0.0723  1.9927
   32CHL1    C8 2308   5.158   4.722   7.450 -0.5848  0.0598 -0.3526
   32CHL1    H8 2309   5.091   4.642   7.412 -1.0224  1.3386 -2.3952
   32CHL1   C14 2310   5.179   4.707   7.600  0.8572  0.4952 -0.3408
   32CHL1   H14 2311   5.250   4.789   7.623  1.0349 -0.0970  1.3323
   32CHL1   C15 2312   5.250   4.579   7.657 -0.6309  0.5732 -0.2047
   32CHL1  H15A 2313   5.213   4.483   7.616 -1.1908  0.6172  0.1946
   32CHL1  H15B 2314   5.361   4.579   7.650 -0.6193  0.6970 -0.0291
   32CHL1   C16 2315   5.203   4.584   7.804 -0.0116  0.5177 -0.5305
   32CHL1  H16A 2316   5.134   4.500   7.828  1.1218 -0.4637 -0.6121
   32CHL1  H16B 2317   5.281   4.579   7.884 -3.4383  0.7852  3.1447
   32CHL1   C17 2318   5.124   4.713   7.827 -0.5858 -0.7953  0.3614
   32CHL1   H17 2319   5.203   4.790   7.835  0.6433 -1.7919 -1.3779
   32CHL1   C13 2320   5.061   4.737   7.683  0.2456  0.6078  0.4422
   32CHL1   C18 2321   4.951   4.633   7.655  0.3508 -0.0067 -0.3068
   32CHL1  H18A 2322   4.915   4.629   7.550 -2.5363 -1.5389  0.6388
   32CHL1  H18B 2323   4.972   4.527   7.681 -0.8816 -0.1902  0.0293
   32CHL1  H18C 2324   4.867   4.665   7.721  2.9689  2.4027  2.1380
   32CHL1   C12 2325   5.003   4.879   7.658  0.0867  0.9023  0.4074
   32CHL1  H12A 2326   4.911   4.897   7.717 -1.2243 -1.8649 -0.6108
   32CHL1  H12B 2327   5.083   4.948   7.693  1.0495  0.2660 -0.4705
   32CHL1   C11 2328   4.983   4.902   7.503  0.8530  0.9045 -0.5832
   32CHL1  H11A 2329   4.891   4.844   7.481 -0.9591  3.3910 -0.1247
   32CHL1  H11B 2330   4.953   5.007   7.483 -1.9791  0.1658 -0.6288
   32CHL1    C9 2331   5.097   4.853   7.418  0.5149 -0.2943  0.3210
   32CHL1    H9 2332   5.178   4.927   7.437 -0.2818  0.6820  0.0346
   32CHL1   C10 2333   5.072   4.872   7.265 -0.1085  0.7549 -0.3046
   32CHL1   C19 2334   4.948   4.785   7.219 -0.2510  0.5658  0.3263
   32CHL1  H19A 2335   4.962   4.677   7.238  2.5000  0.9831  0.9774
   32CHL1  H19B 2336   4.859   4.809   7.282  2.4589  1.2894  4.2034
   32CHL1  H19C 2337   4.935   4.791   7.108  1.2115  1.7560  0.1951
   32CHL1    C1 2338   5.062   5.023   7.236 -0.3733  1.3398  0.4169
   32CHL1   H1A 2339   4.988   5.069   7.305  1.5222  0.1707  3.4648
   32CHL1   H1B 2340   5.157   5.074   7.264  0.0177  1.6543 -1.4096
   32CHL1    C2 2341   5.030   5.054   7.085 -0.7561  0.6399  0.0529
   32CHL1   H2A 2342   5.013   5.163   7.082 -1.0391  0.5817 -0.8238
   32CHL1   H2B 2343   4.937   5.002   7.053 -0.1221 -0.7304  0.3771
   32CHL1   C20 2344   5.036   4.699   7.960  0.1352 -0.3353  0.5655
   32CHL1   H20 2345   4.955   4.626   7.939 -0.0952 -0.1977  0.9651
   32CHL1   C21 2346   4.962   4.834   7.989 -0.2556 -0.1607 -0.0167
   32CHL1  H21A 2347   5.032   4.917   8.013  0.4943 -1.1350  1.3094
   32CHL1  H21B 2348   4.913   4.818   8.088  1.6618 -1.6255  0.7504
   32CHL1  H21C 2349   4.890   4.870   7.913 -1.8536  2.7605  2.6473
   32CHL1   C22 2350   5.123   4.648   8.086  0.3973  0.2114  0.1209
   32CHL1  H22A 2351   5.039   4.643   8.159 -1.6958 -0.7833 -2.1713
   32CHL1  H22B 2352   5.152   4.544   8.057  2.0253  0.9659 -1.0969
   32CHL1   C23 2353   5.245   4.726   8.140 -1.4606  0.0981  0.4579
   32CHL1  H23A 2354   5.331   4.703   8.073 -0.8154 -0.2100  1.3742
   32CHL1  H23B 2355   5.221   4.834   8.149 -0.5100  0.3434  0.1982
   32CHL1   C24 2356   5.293   4.689   8.280  0.3570 -0.6059 -0.4511
   32CHL1  H24A 2357   5.208   4.712   8.347 -0.1270 -0.5147 -1.0854
   32CHL1  H24B 2358   5.305   4.578   8.285 -0.1671 -0.6209  1.0026
   32CHL1   C25 2359   5.423   4.750   8.331  0.2213 -0.1245  0.1397
   32CHL1   H25 2360   5.492   4.778   8.249  0.2963 -0.5703  0.0492
   32CHL1   C26 2361   5.404   4.877   8.417 -0.4172  0.0245  0.5869
   32CHL1  H26A 2362   5.329   4.850   8.495 -0.3806 -1.3318  0.1763
   32CHL1  H26B 2363   5.507   4.891   8.457  0.2513 -2.5024 -0.0880
   32CHL1  H26C 2364   5.377   4.969   8.361  3.1587  0.4756 -0.6841
   32CHL1   C27 2365   5.483   4.646   8.414 -0.3447 -0.1389  0.1753
   32CHL1  H27A 2366   5.580   4.689   8.447 -0.4468  0.6356 -0.5191
   32CHL1  H27B 2367   5.414   4.613   8.495 -1.7135 -0.6751 -1.1825
   32CHL1  H27C 2368   5.509   4.562   8.346  0.5666 -0.3266  0.7279
   33CHL1    C3 2369   3.193   5.375   7.001 -0.2427 -0.3762 -0.2400
   33CHL1    H3 2370   3.302   5.353   7.003 -0.3540 -0.9514 -0.1940
   33CHL1    O3 2371   3.157   5.388   6.864 -0.1217 -0.3573  0.1200
   33CHL1   H3' 2372   3.211   5.460   6.830  0.8649 -1.1860 -0.1138
   33CHL1    C4 2373   3.114   5.259   7.060 -0.5511  0.1442 -0.2276
   33CHL1   H4A 2374   3.006   5.267   7.033 -1.4762  0.1467  3.0390
   33CHL1   H4B 2375   3.157   5.172   7.006  2.3226  1.1666  0.2659
   33CHL1    C5 2376   3.143   5.247   7.212  0.9916  0.8713  0.1225
   33CHL1    C6 2377   3.174   5.126   7.263  0.5423  0.1699 -0.1027
   33CHL1    H6 2378   3.189   5.043   7.192  3.6686 -1.3988  2.1550
   33CHL1    C7 2379   3.179   5.099   7.404  0.2194  0.4746 -0.7836
   33CHL1   H7A 2380   3.128   5.003   7.429  0.1836  0.5974 -0.3787
   33CHL1   H7B 2381   3.285   5.093   7.436 -0.5933  0.3231  2.1694
   33CHL1    C8 2382   3.124   5.216   7.487  0.5766 -0.0119  0.0954
   33CHL1    H8 2383   3.014   5.221   7.476  0.3694 -1.0651  1.3964
   33CHL1   C14 2384   3.163   5.203   7.631 -0.0723 -0.5903  0.3516
   33CHL1   H14 2385   3.275   5.204   7.630 -0.0411  1.8334 -0.5782
   33CHL1   C15 2386   3.133   5.072   7.693  0.2298 -0.3514  0.7095
   33CHL1  H15A 2387   3.037   5.035   7.651  0.4110 -1.1956  1.0340
   33CHL1  H15B 2388   3.212   4.997   7.676 -2.2051 -2.9369  0.0820
   33CHL1   C16 2389   3.121   5.096   7.846  0.2541  0.0134 -0.6364
   33CHL1  H16A 2390   3.016   5.075   7.875  0.5749 -1.4038 -0.4317
   33CHL1  H16B 2391   3.179   5.034   7.917 -1.8076 -1.1206  0.1210
   33CHL1   C17 2392   3.145   5.244   7.857  0.6687 -0.2910  1.1871
   33CHL1   H17 2393   3.255   5.260   7.870  1.1659 -2.2155 -0.1505
   33CHL1   C13 2394   3.102   5.302   7.722 -0.2701 -0.9420  0.4063
   33CHL1   C18 2395   2.947   5.299   7.708  0.6000 -0.5209  0.0600
   33CHL1  H18A 2396   2.902   5.372   7.779  0.4224  1.4098 -1.9407
   33CHL1  H18B 2397   2.919   5.325   7.604 -0.9079 -0.9325  0.3421
   33CHL1  H18C 2398   2.901   5.202   7.737 -0.2262  0.2178  1.3306
   33CHL1   C12 2399   3.159   5.441   7.687  0.3508  0.4857  0.1117
   33CHL1  H12A 2400   3.106   5.519   7.746 -0.2491 -0.8511  1.4116
   33CHL1  H12B 2401   3.264   5.434   7.724  0.0297  1.6583  1.3317
   33CHL1   C11 2402   3.133   5.470   7.539 -0.5134 -0.8006  0.4143
   33CHL1  H11A 2403   3.032   5.513   7.525 -0.8341 -1.1717  1.4357
   33CHL1  H11B 2404   3.199   5.554   7.513  0.8550 -1.7266  0.7718
   33CHL1    C9 2405   3.166   5.354   7.434  0.2442  0.0102 -0.0370
   33CHL1    H9 2406   3.277   5.350   7.434  0.2801  0.5622  1.3247
   33CHL1   C10 2407   3.113   5.370   7.295 -0.1243  0.5470 -0.2460
   33CHL1   C19 2408   2.954   5.391   7.284 -0.0328  0.5377  0.0399
   33CHL1  H19A 2409   2.933   5.481   7.345 -2.2254  0.2143 -0.1535
   33CHL1  H19B 2410   2.913   5.390   7.180  3.0248 -2.7983 -1.3571
   33CHL1  H19C 2411   2.898   5.311   7.337  0.7601 -0.7219 -0.9627
   33CHL1    C1 2412   3.178   5.493   7.228 -0.7880  0.1000 -0.1490
   33CHL1   H1A 2413   3.140   5.589   7.270  1.6717  1.3521 -0.5936
   33CHL1   H1B 2414   3.285   5.476   7.253 -0.5223 -1.1776 -1.9086
   33CHL1    C2 2415   3.162   5.503   7.076  0.0625  0.1262 -0.1798
   33CHL1   H2A 2416   3.229   5.587   7.046 -0.9036  0.9990  0.0804
   33CHL1   H2B 2417   3.057   5.533   7.058 -0.8873 -1.5692  2.1041
   33CHL1   C20 2418   3.080   5.301   7.981  0.0260 -0.1341  0.7574
   33CHL1   H20 2419   2.972   5.324   7.968  0.1370  0.8120  1.4248
   33CHL1   C21 2420   3.126   5.447   8.017  0.1599  0.6153 -0.4246
   33CHL1  H21A 2421   3.093   5.484   8.116 -3.1618  2.0474 -1.8967
   33CHL1  H21B 2422   3.080   5.518   7.945 -2.3492 -2.2556 -1.8910
   33CHL1  H21C 2423   3.236   5.433   8.009  0.1512 -0.3578  0.9306
   33CHL1   C22 2424   3.096   5.212   8.106 -0.2396  0.5023 -0.2066
   33CHL1  H22A 2425   3.052   5.269   8.191 -1.4397  0.9267 -1.0795
   33CHL1  H22B 2426   3.035   5.121   8.089 -0.4054  0.1939  1.8004
   33CHL1   C23 2427   3.241   5.185   8.151  0.7465 -0.2600 -0.3029
   33CHL1  H23A 2428   3.309   5.129   8.082  2.6053 -0.9585  1.9717
   33CHL1  H23B 2429   3.283   5.288   8.159 -0.4367  0.2833 -0.9051
   33CHL1   C24 2430   3.259   5.112   8.291  0.4214 -0.2306  0.2911
   33CHL1  H24A 2431   3.185   5.163   8.356  1.8225  0.8879  1.0613
   33CHL1  H24B 2432   3.241   5.002   8.288 -2.7506  0.2152 -2.1630
   33CHL1   C25 2433   3.401   5.115   8.355 -0.4017  0.6696 -0.3083
   33CHL1   H25 2434   3.444   5.215   8.374 -0.4859  1.2128 -2.6995
   33CHL1   C26 2435   3.397   5.047   8.492  0.0546 -0.3004 -0.9763
   33CHL1  H26A 2436   3.335   5.107   8.562  0.5913  1.8321 -2.2332
   33CHL1  H26B 2437   3.366   4.942   8.472 -1.8734  0.5585 -2.9822
   33CHL1  H26C 2438   3.496   5.039   8.540  0.0922  0.0574 -0.9940
   33CHL1   C27 2439   3.493   5.029   8.262 -0.0225  0.6728 -0.6670
   33CHL1  H27A 2440   3.590   5.007   8.312 -0.9731  0.9097  1.3707
   33CHL1  H27B 2441   3.450   4.928   8.244  1.7427  0.0229 -1.5335
   33CHL1  H27C 2442   3.515   5.065   8.159 -0.6385 -2.3514 -1.9859
   34CHL1    C3 2443   5.911   4.033   7.078  0.1475  0.7070  0.4960
   34CHL1    H3 2444   5.812   4.002   7.038 -0.4441  2.7774  0.2664
   34CHL1    O3 2445   6.000   4.033   6.971 -0.5250  1.1129  0.1574
   34CHL1   H3' 2446   5.998   4.119   6.929  1.7033  0.9999 -0.3300
   34CHL1    C4 2447   5.901   4.173   7.126  0.1686 -0.6264 -0.4664
   34CHL1   H4A 2448   6.003   4.201   7.159 -0.4063  0.1795  0.7308
   34CHL1   H4B 2449   5.859   4.235   7.044  1.5147 -0.5530 -1.1195
   34CHL1    C5 2450   5.824   4.167   7.254  0.1375 -0.0377  0.1825
   34CHL1    C6 2451   5.734   4.265   7.273 -0.0338  0.2839 -0.3134
   34CHL1    H6 2452   5.715   4.342   7.197 -0.7707  1.0601  0.6260
   34CHL1    C7 2453   5.666   4.285   7.407  0.1733  0.0536 -0.2961
   34CHL1   H7A 2454   5.674   4.393   7.432  2.1834  0.0156 -0.5943
   34CHL1   H7B 2455   5.560   4.251   7.405  0.4894 -1.3090  2.0999
   34CHL1    C8 2456   5.726   4.208   7.532  0.1438 -0.4254 -0.3830
   34CHL1    H8 2457   5.821   4.262   7.555 -0.5878  1.4919 -1.5713
   34CHL1   C14 2458   5.639   4.211   7.650 -0.6139 -0.3331  0.4972
   34CHL1   H14 2459   5.549   4.156   7.614 -0.0281 -0.5885 -0.6252
   34CHL1   C15 2460   5.593   4.348   7.703  0.6081 -0.2194  0.1598
   34CHL1  H15A 2461   5.685   4.401   7.736  0.9811 -0.1986 -0.8779
   34CHL1  H15B 2462   5.535   4.403   7.626 -0.6624  0.4896  1.5977
   34CHL1   C16 2463   5.519   4.301   7.837 -0.2911  0.1481 -0.2494
   34CHL1  H16A 2464   5.557   4.369   7.916  2.1825  1.2916 -2.2676
   34CHL1  H16B 2465   5.408   4.307   7.837 -0.3214 -0.3739  0.2099
   34CHL1   C17 2466   5.564   4.153   7.863  0.7307 -0.1199  0.7104
   34CHL1   H17 2467   5.479   4.094   7.823 -0.4985  2.2383 -0.4143
   34CHL1   C13 2468   5.679   4.124   7.766  0.8867 -0.1446 -0.4869
   34CHL1   C18 2469   5.813   4.176   7.829 -0.9792 -0.9504 -0.9993
   34CHL1  H18A 2470   5.788   4.267   7.887  0.1058  0.2615 -2.3638
   34CHL1  H18B 2471   5.846   4.101   7.904 -0.1021  1.9949  1.8034
   34CHL1  H18C 2472   5.897   4.191   7.758 -1.1668  0.2409 -0.9897
   34CHL1   C12 2473   5.694   3.978   7.712  0.1126  0.7524  0.0249
   34CHL1  H12A 2474   5.707   3.907   7.796  2.5286  1.6561  0.5012
   34CHL1  H12B 2475   5.604   3.943   7.657  1.2903 -2.0598 -0.3248
   34CHL1   C11 2476   5.797   3.968   7.601 -0.1207  0.1321 -0.0941
   34CHL1  H11A 2477   5.902   3.971   7.638 -0.2609  3.5678  0.3534
   34CHL1  H11B 2478   5.782   3.869   7.554  0.4240  1.5135 -3.4769
   34CHL1    C9 2479   5.764   4.069   7.483  0.0423  0.3027  0.0615
   34CHL1    H9 2480   5.676   4.018   7.438  0.2830 -0.6873  0.6798
   34CHL1   C10 2481   5.871   4.067   7.363  0.0370  1.0244 -0.0204
   34CHL1   C19 2482   6.014   4.099   7.422  0.8583  0.5143 -0.1839
   34CHL1  H19A 2483   6.089   4.115   7.342  1.1508 -1.3853 -0.3405
   34CHL1  H19B 2484   6.010   4.189   7.486 -0.9680 -1.4674  2.7359
   34CHL1  H19C 2485   6.048   4.012   7.483  1.6936  0.9028 -0.0826
   34CHL1    C1 2486   5.879   3.925   7.298  0.6623  0.0343  0.0168
   34CHL1   H1A 2487   5.932   3.856   7.366 -0.6511  1.1439  2.2659
   34CHL1   H1B 2488   5.781   3.873   7.284 -0.1293  1.2896  0.7011
   34CHL1    C2 2489   5.961   3.925   7.178 -0.3168 -0.5109  0.1677
   34CHL1   H2A 2490   5.951   3.826   7.128 -1.3357 -0.3814  0.0925
   34CHL1   H2B 2491   6.070   3.931   7.193 -0.2126  1.1579 -1.0581
   34CHL1   C20 2492   5.583   4.135   8.020 -0.1269  0.3637  0.0782
   34CHL1   H20 2493   5.669   4.203   8.042  0.4978 -0.3079 -0.2470
   34CHL1   C21 2494   5.618   3.989   8.059 -0.2581 -0.8687  0.1576
   34CHL1  H21A 2495   5.535   3.917   8.040 -0.5906 -0.9048  1.6376
   34CHL1  H21B 2496   5.650   3.981   8.165  1.2452 -1.3204 -0.3027
   34CHL1  H21C 2497   5.716   3.974   8.009  0.8856 -0.1826  2.1239
   34CHL1   C22 2498   5.471   4.192   8.109  0.2612  0.3415 -0.5801
   34CHL1  H22A 2499   5.457   4.299   8.083  2.4326  0.7316 -0.3059
   34CHL1  H22B 2500   5.379   4.134   8.088 -0.3675  0.7845  0.8405
   34CHL1   C23 2501   5.470   4.173   8.262 -0.3629 -1.1801  0.1846
   34CHL1  H23A 2502   5.459   4.068   8.294  2.6290 -1.8420 -0.6146
   34CHL1  H23B 2503   5.570   4.202   8.300 -0.7577 -1.4646  1.4904
   34CHL1   C24 2504   5.367   4.258   8.331  1.1471  0.2112 -0.1103
   34CHL1  H24A 2505   5.402   4.364   8.338 -2.4362  1.4259  1.6720
   34CHL1  H24B 2506   5.270   4.254   8.277  0.0301 -0.8913  1.8724
   34CHL1   C25 2507   5.347   4.215   8.476 -0.0674  0.0411 -0.0278
   34CHL1   H25 2508   5.440   4.175   8.522 -0.4469  0.4010  1.0809
   34CHL1   C26 2509   5.300   4.330   8.566 -0.0143 -0.1755  0.2543
   34CHL1  H26A 2510   5.302   4.309   8.675  1.3903 -0.8980  0.1191
   34CHL1  H26B 2511   5.363   4.421   8.566  1.6974 -1.3091  0.5432
   34CHL1  H26C 2512   5.199   4.365   8.536  0.1141 -0.3607 -0.4091
   34CHL1   C27 2513   5.248   4.103   8.470  0.4781 -0.1794  0.0469
   34CHL1  H27A 2514   5.285   4.025   8.399 -0.7856 -0.1519 -0.6833
   34CHL1  H27B 2515   5.232   4.045   8.563  0.5212  2.0720  1.5048
   34CHL1  H27C 2516   5.163   4.142   8.409  2.3945  1.8074 -1.4942
   35CHL1    C3 2517   0.606   4.823   7.146 -0.2719 -0.5693  0.3875
   35CHL1    H3 2518   0.546   4.916   7.157 -0.1228 -0.5288  0.8511
   35CHL1    O3 2519   0.657   4.828   7.011  0.3393  0.0546 -0.3632
   35CHL1   H3' 2520   0.706   4.748   6.991  2.3569  0.8279  1.1421
   35CHL1    C4 2521   0.721   4.837   7.242 -0.3091 -0.0027 -0.2422
   35CHL1   H4A 2522   0.789   4.749   7.248  1.8473  1.6359  0.9809
   35CHL1   H4B 2523   0.785   4.926   7.225 -0.5639  0.9625  3.0814
   35CHL1    C5 2524   0.667   4.849   7.383  0.0943 -0.4140 -0.1779
   35CHL1    C6 2525   0.688   4.955   7.454  0.1920  0.2695 -0.5232
   35CHL1    H6 2526   0.749   5.037   7.413  0.0421  0.5370 -0.2167
   35CHL1    C7 2527   0.640   4.968   7.593  0.1872  0.3558 -0.4185
   35CHL1   H7A 2528   0.720   5.004   7.662 -0.7595  1.6381  0.0529
   35CHL1   H7B 2529   0.553   5.037   7.591 -0.6848 -0.6940  0.5140
   35CHL1    C8 2530   0.590   4.828   7.652 -0.6524 -0.6231  0.3408
   35CHL1    H8 2531   0.684   4.772   7.671 -0.5434 -0.7682 -0.5619
   35CHL1   C14 2532   0.518   4.840   7.782 -0.2517 -0.4777  0.3378
   35CHL1   H14 2533   0.433   4.906   7.754  2.4300  2.9439 -0.4264
   35CHL1   C15 2534   0.581   4.919   7.898 -0.3379 -0.1204 -0.3396
   35CHL1  H15A 2535   0.687   4.890   7.908 -0.4623 -0.4065  0.1985
   35CHL1  H15B 2536   0.581   5.028   7.874  3.6782 -0.1010 -0.9892
   35CHL1   C16 2537   0.495   4.885   8.014  1.0262  1.2046  0.5870
   35CHL1  H16A 2538   0.573   4.852   8.085  3.1252  1.9913 -1.2275
   35CHL1  H16B 2539   0.447   4.975   8.057  0.5177  1.1954  0.0602
   35CHL1   C17 2540   0.404   4.768   7.971  0.6016  0.0248 -0.4570
   35CHL1   H17 2541   0.306   4.812   7.942  0.5990  0.4790  0.2449
   35CHL1   C13 2542   0.467   4.711   7.839  0.7841 -0.7718 -0.3076
   35CHL1   C18 2543   0.584   4.617   7.873  0.3515 -0.3570  0.5455
   35CHL1  H18A 2544   0.674   4.670   7.910  1.6655 -1.4462 -0.9663
   35CHL1  H18B 2545   0.561   4.531   7.940 -1.2817 -2.8295 -2.8657
   35CHL1  H18C 2546   0.612   4.569   7.777 -0.1963  1.5990 -0.6682
   35CHL1   C12 2547   0.364   4.659   7.742  0.3364  0.5234 -0.1415
   35CHL1  H12A 2548   0.306   4.570   7.772 -0.5962  1.3296  0.5326
   35CHL1  H12B 2549   0.280   4.731   7.733 -0.6941 -0.8887 -2.9326
   35CHL1   C11 2550   0.425   4.631   7.602  0.2705 -0.2468 -0.8399
   35CHL1  H11A 2551   0.497   4.547   7.615 -0.2095 -0.4709  0.4837
   35CHL1  H11B 2552   0.339   4.599   7.540 -0.8454  0.8269  0.1074
   35CHL1    C9 2553   0.501   4.757   7.549 -0.4188  0.8638  0.2867
   35CHL1    H9 2554   0.422   4.830   7.522  0.1253  2.0972  1.8948
   35CHL1   C10 2555   0.575   4.726   7.411 -0.1849 -1.0199 -0.4733
   35CHL1   C19 2556   0.652   4.596   7.423  0.6696 -0.9330  0.5614
   35CHL1  H19A 2557   0.720   4.585   7.335  0.4214 -2.4575  0.5410
   35CHL1  H19B 2558   0.709   4.596   7.519 -0.8368 -2.5574  1.4985
   35CHL1  H19C 2559   0.581   4.512   7.437 -1.7725  1.1687  1.6204
   35CHL1    C1 2560   0.460   4.706   7.302  0.2464  0.0847  0.1907
   35CHL1   H1A 2561   0.397   4.616   7.318  0.8698 -0.4591 -0.3849
   35CHL1   H1B 2562   0.397   4.797   7.294 -1.7360 -1.3139 -1.0168
   35CHL1    C2 2563   0.520   4.697   7.164  0.3024  0.0483 -0.3132
   35CHL1   H2A 2564   0.441   4.680   7.087 -1.3368 -2.2441  1.6981
   35CHL1   H2B 2565   0.582   4.606   7.147 -1.4667 -0.9598 -1.8088
   35CHL1   C20 2566   0.371   4.666   8.089 -0.4027 -0.5960  0.5286
   35CHL1   H20 2567   0.473   4.638   8.125  0.5130  1.1253 -0.5960
   35CHL1   C21 2568   0.289   4.537   8.051  0.4499 -0.1511 -0.3524
   35CHL1  H21A 2569   0.344   4.486   7.969  1.2313 -1.1812  0.7671
   35CHL1  H21B 2570   0.188   4.561   8.011  0.0203  0.5670  1.1035
   35CHL1  H21C 2571   0.280   4.466   8.136 -0.5386  1.0756  0.6040
   35CHL1   C22 2572   0.289   4.745   8.187 -0.3630 -0.0905  0.0103
   35CHL1  H22A 2573   0.331   4.845   8.213  0.5288 -0.8795  1.7370
   35CHL1  H22B 2574   0.189   4.761   8.140 -0.9960 -0.4162  1.2060
   35CHL1   C23 2575   0.255   4.669   8.315 -0.4447 -0.9993 -0.1676
   35CHL1  H23A 2576   0.189   4.587   8.279 -0.0112 -0.3043 -2.7481
   35CHL1  H23B 2577   0.339   4.622   8.370  0.2182  0.8233  0.4534
   35CHL1   C24 2578   0.192   4.758   8.413 -0.4875 -0.0234  0.1055
   35CHL1  H24A 2579   0.259   4.844   8.436  0.8532 -1.3295  1.2675
   35CHL1  H24B 2580   0.099   4.791   8.362  1.0728  1.1627 -2.1692
   35CHL1   C25 2581   0.168   4.699   8.552  0.1638  0.3123 -0.1513
   35CHL1   H25 2582   0.260   4.643   8.576 -2.0130 -2.5512  2.2556
   35CHL1   C26 2583   0.131   4.802   8.658 -0.0185 -0.0273  0.5128
   35CHL1  H26A 2584   0.202   4.884   8.680 -0.1541  0.6726 -1.4449
   35CHL1  H26B 2585   0.041   4.856   8.621  1.1334  1.2812 -0.5086
   35CHL1  H26C 2586   0.100   4.755   8.754  0.1703  0.4840  0.8306
   35CHL1   C27 2587   0.054   4.588   8.550 -0.0495 -0.0039 -0.6741
   35CHL1  H27A 2588  -0.008   4.599   8.458 -1.3812 -1.4572  0.0015
   35CHL1  H27B 2589  -0.009   4.583   8.641 -0.5450  1.2968 -0.9268
   35CHL1  H27C 2590   0.102   4.488   8.548  1.4231  0.6835 -1.8224
   36CHL1    C3 2591   2.006   5.097   7.384  0.6097  0.8805 -0.1534
   36CHL1    H3 2592   2.074   5.184   7.375  0.4319  0.8540 -2.5285
   36CHL1    O3 2593   2.000   5.019   7.264  0.4109  0.1628  0.3546
   36CHL1   H3' 2594   1.972   5.092   7.209 -0.9051  0.2158  1.0628
   36CHL1    C4 2595   2.038   5.006   7.492 -0.2049 -0.1004 -0.3546
   36CHL1   H4A 2596   1.972   4.918   7.478  0.6104 -0.6762 -0.6868
   36CHL1   H4B 2597   2.138   4.961   7.473 -0.2831 -0.7739  0.7397
   36CHL1    C5 2598   2.042   5.055   7.629 -0.0683  0.2041 -0.8553
   36CHL1    C6 2599   2.150   5.047   7.706 -0.0836  0.0295 -0.0850
   36CHL1    H6 2600   2.236   4.988   7.670 -0.6094 -0.2312 -0.9520
   36CHL1    C7 2601   2.170   5.102   7.846 -0.3906 -0.2365  1.1125
   36CHL1   H7A 2602   2.204   5.033   7.926 -0.2903 -0.1988  1.1027
   36CHL1   H7B 2603   2.245   5.184   7.851  1.0715 -1.4722  0.4417
   36CHL1    C8 2604   2.033   5.154   7.909 -0.1500 -0.3925  0.3017
   36CHL1    H8 2605   1.973   5.068   7.945 -0.0032 -0.9400 -0.7364
   36CHL1   C14 2606   2.059   5.243   8.027 -0.3043 -0.0595 -0.5825
   36CHL1   H14 2607   2.103   5.335   7.984  0.9684  0.2094  1.1612
   36CHL1   C15 2608   2.162   5.204   8.131 -0.0059 -0.4739  0.3780
   36CHL1  H15A 2609   2.170   5.094   8.143 -2.8643 -0.8898 -0.7179
   36CHL1  H15B 2610   2.264   5.237   8.102 -0.0223 -2.0108 -1.6594
   36CHL1   C16 2611   2.117   5.270   8.259 -0.1203 -0.2698  0.2288
   36CHL1  H16A 2612   2.092   5.184   8.325 -1.6372 -1.6507 -1.9984
   36CHL1  H16B 2613   2.201   5.325   8.307  0.9816 -2.4563  0.9498
   36CHL1   C17 2614   1.993   5.354   8.222 -0.2171  0.1535  0.3565
   36CHL1   H17 2615   2.026   5.451   8.180 -1.7057  0.2766 -0.6179
   36CHL1   C13 2616   1.931   5.281   8.098  0.6418  0.3404  0.1257
   36CHL1   C18 2617   1.849   5.156   8.145  0.0143  0.3174 -0.1774
   36CHL1  H18A 2618   1.920   5.097   8.207  1.0284  1.9942  0.3484
   36CHL1  H18B 2619   1.777   5.197   8.219  0.4492 -0.9597  1.0020
   36CHL1  H18C 2620   1.798   5.097   8.066 -0.0453 -1.3182  1.0308
   36CHL1   C12 2621   1.850   5.364   8.005  0.4327 -0.0834  0.6906
   36CHL1  H12A 2622   1.759   5.396   8.060 -0.1882 -2.0202  0.8769
   36CHL1  H12B 2623   1.908   5.452   7.970  1.0187 -0.5850  0.3956
   36CHL1   C11 2624   1.821   5.286   7.874  1.1061  0.5361  0.3600
   36CHL1  H11A 2625   1.747   5.208   7.903  0.3441  0.7684 -0.9151
   36CHL1  H11B 2626   1.772   5.357   7.804  0.6135 -0.8675 -0.7753
   36CHL1    C9 2627   1.945   5.227   7.807 -0.8537 -0.0542 -0.9180
   36CHL1    H9 2628   2.003   5.316   7.776 -0.6273 -0.2069 -0.9388
   36CHL1   C10 2629   1.921   5.138   7.678  0.0273 -0.5532  0.0149
   36CHL1   C19 2630   1.804   5.045   7.714 -0.3175  0.0578 -0.5920
   36CHL1  H19A 2631   1.832   4.986   7.804 -1.1874 -0.1159 -0.4239
   36CHL1  H19B 2632   1.707   5.091   7.743 -0.7245  1.0071 -3.1468
   36CHL1  H19C 2633   1.778   4.973   7.633  1.1793  0.3853 -1.3938
   36CHL1    C1 2634   1.867   5.225   7.555 -0.2040  0.5287  0.5665
   36CHL1   H1A 2635   1.764   5.260   7.577 -0.9100 -0.3868 -1.0817
   36CHL1   H1B 2636   1.933   5.313   7.542 -1.1714  1.4422  1.7333
   36CHL1    C2 2637   1.864   5.153   7.416  1.4300  0.3036  0.4040
   36CHL1   H2A 2638   1.832   5.224   7.337 -2.4028  0.3040  1.7196
   36CHL1   H2B 2639   1.796   5.065   7.414  0.1464  1.2338  1.1311
   36CHL1   C20 2640   1.915   5.400   8.351 -0.4163 -0.0477  0.2407
   36CHL1   H20 2641   1.834   5.325   8.365 -0.5847 -0.0666 -0.7357
   36CHL1   C21 2642   1.847   5.528   8.316 -0.0295 -0.1067  0.1031
   36CHL1  H21A 2643   1.779   5.505   8.232  0.3748 -0.1522 -0.2145
   36CHL1  H21B 2644   1.919   5.606   8.286 -1.2593  0.6325 -1.0011
   36CHL1  H21C 2645   1.777   5.562   8.395  0.9110  0.0570  0.8950
   36CHL1   C22 2646   2.008   5.418   8.471 -0.3626 -0.1276 -0.1821
   36CHL1  H22A 2647   2.055   5.319   8.492  1.3608  1.1677  2.7008
   36CHL1  H22B 2648   2.095   5.482   8.445  0.3070 -1.5382 -1.5779
   36CHL1   C23 2649   1.940   5.465   8.606 -1.0877 -0.3429  0.6226
   36CHL1  H23A 2650   1.919   5.573   8.591  0.4459 -0.1343 -0.2086
   36CHL1  H23B 2651   1.843   5.410   8.612 -1.4289 -0.2023 -2.1533
   36CHL1   C24 2652   2.033   5.442   8.724 -0.6873  0.0036 -0.1089
   36CHL1  H24A 2653   2.057   5.334   8.730  0.9304  0.2478 -1.3100
   36CHL1  H24B 2654   2.127   5.495   8.693 -0.2314 -0.6527  0.1279
   36CHL1   C25 2655   1.987   5.495   8.865 -0.6127  1.2641  0.5029
   36CHL1   H25 2656   1.960   5.601   8.847  2.7687  1.7121 -3.4130
   36CHL1   C26 2657   1.862   5.422   8.934 -0.4003  0.2472 -0.1112
   36CHL1  H26A 2658   1.893   5.316   8.946  0.5529  0.4602 -0.5514
   36CHL1  H26B 2659   1.823   5.474   9.024 -3.6396  0.1609 -1.3555
   36CHL1  H26C 2660   1.784   5.410   8.857  0.6516 -2.2664 -0.8788
   36CHL1   C27 2661   2.100   5.489   8.965 -0.0257 -0.2593 -0.5101
   36CHL1  H27A 2662   2.048   5.521   9.057 -1.2103 -3.1970 -0.0409
   36CHL1  H27B 2663   2.142   5.387   8.976 -0.3866 -0.3344  0.2023
   36CHL1  H27C 2664   2.184   5.556   8.936  1.6165 -1.3661  1.4010
   37CHL1    C3 2665   5.570   1.362   7.084  0.0509  0.8810 -0.0947
   37CHL1    H3 2666   5.559   1.252   7.094  2.3015  0.8046  3.7684
   37CHL1    O3 2667   5.553   1.395   6.948  0.5788  0.0236  0.1827
   37CHL1   H3' 2668   5.611   1.332   6.905 -1.5623 -0.1883 -2.6562
   37CHL1    C4 2669   5.458   1.432   7.168 -0.8304 -0.6036  0.7213
   37CHL1   H4A 2670   5.468   1.533   7.124  0.3914 -0.5311  1.1284
   37CHL1   H4B 2671   5.357   1.398   7.136 -0.2538 -0.7920 -0.9714
   37CHL1    C5 2672   5.475   1.437   7.320  0.2853 -0.5047  0.0475
   37CHL1    C6 2673   5.371   1.400   7.401 -0.2091  0.1862 -0.4509
   37CHL1    H6 2674   5.275   1.381   7.350 -0.5764 -1.1028  0.6684
   37CHL1    C7 2675   5.370   1.396   7.554 -0.6961 -0.0605 -0.4184
   37CHL1   H7A 2676   5.276   1.434   7.600 -0.5652  0.9362 -0.9349
   37CHL1   H7B 2677   5.369   1.288   7.577  0.7620 -0.0570 -0.2359
   37CHL1    C8 2678   5.505   1.456   7.608  0.5525 -0.5810 -0.5645
   37CHL1    H8 2679   5.481   1.564   7.605  1.1613 -0.4113  0.2089
   37CHL1   C14 2680   5.530   1.426   7.761 -1.1007  0.1721  0.6978
   37CHL1   H14 2681   5.541   1.316   7.761 -0.8827  0.1746 -0.3264
   37CHL1   C15 2682   5.413   1.442   7.858  0.6804 -0.7560  0.6105
   37CHL1  H15A 2683   5.350   1.529   7.831  0.6773 -1.2062 -0.9454
   37CHL1  H15B 2684   5.342   1.358   7.842 -1.6480  1.4631 -1.9366
   37CHL1   C16 2685   5.478   1.463   7.994 -0.0885  0.5253  0.1396
   37CHL1  H16A 2686   5.435   1.554   8.041 -0.2692  0.2214  0.5633
   37CHL1  H16B 2687   5.449   1.385   8.067 -2.3645  1.9346  0.8402
   37CHL1   C17 2688   5.630   1.465   7.963  0.3188 -0.7878  0.4159
   37CHL1   H17 2689   5.659   1.358   7.970 -1.7322 -1.4507 -0.4756
   37CHL1   C13 2690   5.647   1.506   7.814  0.2944  0.0702 -0.3856
   37CHL1   C18 2691   5.623   1.657   7.792 -0.0764  0.0964  0.3320
   37CHL1  H18A 2692   5.706   1.712   7.840  0.3095 -0.7785  0.6813
   37CHL1  H18B 2693   5.630   1.692   7.687  1.5548  0.1306  0.4361
   37CHL1  H18C 2694   5.532   1.695   7.843 -0.4213 -1.2679  0.7867
   37CHL1   C12 2695   5.774   1.461   7.740 -0.0284  0.9483  0.1988
   37CHL1  H12A 2696   5.862   1.518   7.777 -0.1565  0.6766  0.9349
   37CHL1  H12B 2697   5.800   1.355   7.756  1.0680  1.3112  0.9727
   37CHL1   C11 2698   5.758   1.492   7.592 -0.1880 -0.3352  0.4252
   37CHL1  H11A 2699   5.772   1.601   7.573  2.0512 -0.4836  0.9686
   37CHL1  H11B 2700   5.843   1.440   7.542 -1.2110 -0.7016 -1.0089
   37CHL1    C9 2701   5.626   1.428   7.523  1.1352 -0.5418  0.4229
   37CHL1    H9 2702   5.639   1.319   7.541  0.7863 -0.7041 -0.2801
   37CHL1   C10 2703   5.617   1.466   7.367 -0.1172 -0.7294  0.5293
   37CHL1   C19 2704   5.638   1.613   7.346 -0.3334  0.0412  0.7531
   37CHL1  H19A 2705   5.748   1.627   7.349 -0.0776 -1.7221  0.4931
   37CHL1  H19B 2706   5.605   1.646   7.245  0.6775 -0.1210  0.3633
   37CHL1  H19C 2707   5.593   1.682   7.421  3.8361  1.3892  2.2865
   37CHL1    C1 2708   5.717   1.382   7.279  0.4707 -0.0049  0.3387
   37CHL1   H1A 2709   5.820   1.394   7.318 -0.4800  0.2947  2.9565
   37CHL1   H1B 2710   5.702   1.272   7.291 -2.2743  0.2789  0.1625
   37CHL1    C2 2711   5.706   1.402   7.127  1.0452  0.2686  0.6135
   37CHL1   H2A 2712   5.793   1.353   7.078  1.3287 -0.7515  2.0591
   37CHL1   H2B 2713   5.713   1.512   7.111 -1.1666  0.1688 -1.5543
   37CHL1   C20 2714   5.714   1.548   8.068  0.1926 -0.1492 -0.5247
   37CHL1   H20 2715   5.679   1.653   8.060  0.8590  0.2117  0.9357
   37CHL1   C21 2716   5.867   1.543   8.044  0.4785 -0.6985  0.1886
   37CHL1  H21A 2717   5.880   1.616   7.962  0.1228 -0.9862 -0.1289
   37CHL1  H21B 2718   5.898   1.440   8.016 -1.7843 -1.3341 -0.1559
   37CHL1  H21C 2719   5.924   1.583   8.131  0.2058 -0.6493  0.3469
   37CHL1   C22 2720   5.688   1.512   8.219 -0.2891  0.0189 -0.2100
   37CHL1  H22A 2721   5.751   1.576   8.284 -1.6032  1.3999 -0.2382
   37CHL1  H22B 2722   5.588   1.543   8.256 -0.0138 -0.0948  0.6541
   37CHL1   C23 2723   5.717   1.357   8.244 -0.2117 -0.2402 -0.1287
   37CHL1  H23A 2724   5.666   1.302   8.162  0.8063  1.5562 -2.0702
   37CHL1  H23B 2725   5.827   1.341   8.242 -0.3688 -2.4977  2.9297
   37CHL1   C24 2726   5.685   1.321   8.389  0.1313  0.6102  0.6490
   37CHL1  H24A 2727   5.750   1.385   8.452  0.0411  0.4818  0.8728
   37CHL1  H24B 2728   5.581   1.354   8.409 -1.3605 -3.0251 -0.2019
   37CHL1   C25 2729   5.697   1.173   8.411  0.5444  0.0071 -0.6188
   37CHL1   H25 2730   5.773   1.141   8.336  1.7072  2.4339 -0.5632
   37CHL1   C26 2731   5.757   1.131   8.550  0.4283  0.3719 -0.5936
   37CHL1  H26A 2732   5.690   1.170   8.629  2.2946  3.5555 -0.3796
   37CHL1  H26B 2733   5.769   1.021   8.538  0.3173  0.1403  1.2246
   37CHL1  H26C 2734   5.857   1.172   8.578 -0.5013  0.8149  2.4032
   37CHL1   C27 2735   5.571   1.093   8.377  0.3510 -0.9760  0.2962
   37CHL1  H27A 2736   5.585   0.993   8.331 -1.7841  0.2411 -3.4200
   37CHL1  H27B 2737   5.503   1.090   8.465 -1.0677 -0.2257 -0.7359
   37CHL1  H27C 2738   5.515   1.153   8.302  0.7067 -0.1565  0.6678
   38CHL1    C3 2739   3.576   2.142   6.632 -0.0757 -0.2206 -0.0224
   38CHL1    H3 2740   3.470   2.168   6.649  0.0363 -0.7513  1.6566
   38CHL1    O3 2741   3.604   2.127   6.500  0.1570 -0.2991 -0.0811
   38CHL1   H3' 2742   3.685   2.076   6.503  1.3279  1.5242  0.3790
   38CHL1    C4 2743   3.667   2.245   6.690 -0.0106  0.7360  0.1800
   38CHL1   H4A 2744   3.775   2.226   6.672 -0.1996 -2.3885  1.6355
   38CHL1   H4B 2745   3.645   2.333   6.626  1.8453 -0.8077 -2.8133
   38CHL1    C5 2746   3.644   2.264   6.842 -0.2750  0.2996  0.2133
   38CHL1    C6 2747   3.629   2.389   6.895  0.2091 -0.4372  0.4683
   38CHL1    H6 2748   3.607   2.475   6.830 -1.9478 -0.4905  1.0431
   38CHL1    C7 2749   3.612   2.417   7.040 -0.0522  0.3525  0.4116
   38CHL1   H7A 2750   3.696   2.488   7.055  0.3718  0.2326 -1.2593
   38CHL1   H7B 2751   3.510   2.457   7.059 -0.3734 -0.1353 -0.2707
   38CHL1    C8 2752   3.640   2.298   7.132 -0.4889  0.7934 -0.7256
   38CHL1    H8 2753   3.747   2.295   7.161 -0.3468  0.6660 -1.2498
   38CHL1   C14 2754   3.570   2.323   7.266 -0.0252  0.3196 -1.1720
   38CHL1   H14 2755   3.465   2.325   7.230  0.7126 -0.4885 -3.5907
   38CHL1   C15 2756   3.589   2.456   7.336 -0.5265  0.1965  0.0750
   38CHL1  H15A 2757   3.698   2.479   7.345 -0.4953 -0.5761  2.7026
   38CHL1  H15B 2758   3.534   2.543   7.296  1.4533  0.3112 -2.6314
   38CHL1   C16 2759   3.554   2.428   7.486  0.0176  0.6213 -0.1085
   38CHL1  H16A 2760   3.644   2.460   7.544  0.9142  0.3912 -1.3230
   38CHL1  H16B 2761   3.464   2.485   7.517 -0.0000  1.7684 -2.1448
   38CHL1   C17 2762   3.512   2.273   7.483 -0.0328 -0.4293 -0.5090
   38CHL1   H17 2763   3.404   2.268   7.457 -0.1132 -1.1861 -0.0521
   38CHL1   C13 2764   3.587   2.213   7.364 -0.0183  0.0430 -0.1348
   38CHL1   C18 2765   3.737   2.204   7.401  0.0997  0.0975 -0.3112
   38CHL1  H18A 2766   3.782   2.158   7.310 -2.1607 -0.1867 -1.3587
   38CHL1  H18B 2767   3.781   2.304   7.420 -1.3977  0.8045 -0.3733
   38CHL1  H18C 2768   3.747   2.126   7.479  0.0511 -0.3723 -0.7709
   38CHL1   C12 2769   3.536   2.083   7.303  0.0921 -1.0024 -0.2029
   38CHL1  H12A 2770   3.552   1.999   7.375 -0.5471  0.5810  1.8671
   38CHL1  H12B 2771   3.426   2.100   7.304  0.1646  0.4630  3.8989
   38CHL1   C11 2772   3.596   2.049   7.167  0.0517  0.3489 -0.9096
   38CHL1  H11A 2773   3.702   2.021   7.183 -0.4801 -0.6585  1.4395
   38CHL1  H11B 2774   3.540   1.965   7.120 -1.8346  0.0581  1.6150
   38CHL1    C9 2775   3.591   2.167   7.070  0.3834 -0.3159  0.1417
   38CHL1    H9 2776   3.481   2.186   7.064  0.1327  0.2316  3.9674
   38CHL1   C10 2777   3.656   2.144   6.924 -0.3392  0.5015  0.0592
   38CHL1   C19 2778   3.804   2.087   6.945 -0.1471 -0.6302 -0.4405
   38CHL1  H19A 2779   3.802   1.992   7.003  0.6848 -0.1635  0.3726
   38CHL1  H19B 2780   3.858   2.076   6.849  1.0806  1.4354 -0.0609
   38CHL1  H19C 2781   3.876   2.149   7.002 -0.5624  0.3869 -0.9974
   38CHL1    C1 2782   3.566   2.036   6.860  0.0819 -0.4625 -0.5768
   38CHL1   H1A 2783   3.582   1.939   6.912 -1.3246  0.7379  2.2444
   38CHL1   H1B 2784   3.462   2.073   6.871  1.0782  2.9619 -1.5587
   38CHL1    C2 2785   3.598   2.009   6.718 -0.0422 -0.1949 -0.3593
   38CHL1   H2A 2786   3.525   1.933   6.683 -0.5164 -0.4295  1.0966
   38CHL1   H2B 2787   3.703   1.981   6.699  1.6774  2.0245  4.3453
   38CHL1   C20 2788   3.520   2.208   7.621 -0.8952 -0.0933 -0.7974
   38CHL1   H20 2789   3.630   2.197   7.630 -0.9411 -1.8985 -1.9280
   38CHL1   C21 2790   3.428   2.083   7.641 -0.1405  0.7144 -0.4276
   38CHL1  H21A 2791   3.453   2.018   7.727 -1.0271  0.4508 -0.3532
   38CHL1  H21B 2792   3.433   2.023   7.548 -1.1893 -0.2850  0.1228
   38CHL1  H21C 2793   3.320   2.109   7.651 -0.9170 -2.2890 -0.1430
   38CHL1   C22 2794   3.481   2.316   7.734  0.0184 -0.4745  0.3984
   38CHL1  H22A 2795   3.554   2.400   7.726 -1.8240  1.1271 -0.2716
   38CHL1  H22B 2796   3.384   2.363   7.708 -0.1496 -1.4364 -0.8059
   38CHL1   C23 2797   3.494   2.263   7.872 -0.3571 -0.4513 -0.1349
   38CHL1  H23A 2798   3.426   2.175   7.882  1.7753 -2.3094 -1.1225
   38CHL1  H23B 2799   3.597   2.223   7.883 -0.9848 -2.4390 -1.0090
   38CHL1   C24 2800   3.473   2.370   7.981  0.4551 -0.5587  0.6163
   38CHL1  H24A 2801   3.553   2.447   7.975 -1.2921  1.3959  1.2298
   38CHL1  H24B 2802   3.384   2.435   7.965  1.4490  0.6874 -0.1325
   38CHL1   C25 2803   3.491   2.319   8.123  0.6828  0.3413 -0.2847
   38CHL1   H25 2804   3.569   2.240   8.128 -0.0143 -0.5262 -2.1826
   38CHL1   C26 2805   3.522   2.437   8.222 -0.0872  1.0242 -0.3531
   38CHL1  H26A 2806   3.520   2.387   8.322 -1.1112  1.3170 -0.2161
   38CHL1  H26B 2807   3.622   2.483   8.211 -0.1686  1.2353 -0.2084
   38CHL1  H26C 2808   3.440   2.511   8.212 -2.2548 -1.3975 -2.0871
   38CHL1   C27 2809   3.362   2.252   8.169 -0.1742 -0.3211 -0.1108
   38CHL1  H27A 2810   3.387   2.183   8.253 -0.3933 -0.9726 -0.5747
   38CHL1  H27B 2811   3.288   2.332   8.191  1.7258  1.2613  0.8169
   38CHL1  H27C 2812   3.321   2.182   8.093 -0.3867  1.2639 -1.5280
   39CHL1    C3 2813   2.726   0.517   7.092 -0.1311 -0.5942 -0.5492
   39CHL1    H3 2814   2.811   0.560   7.035 -0.9503  0.3157 -1.1058
   39CHL1    O3 2815   2.619   0.528   7.006 -0.0792 -0.1204  0.3127
   39CHL1   H3' 2816   2.553   0.465   7.035 -1.0374  0.7605  0.0990
   39CHL1    C4 2817   2.736   0.382   7.153 -0.8245 -0.0389 -0.4183
   39CHL1   H4A 2818   2.637   0.345   7.189 -1.1097 -1.3942 -2.3984
   39CHL1   H4B 2819   2.766   0.315   7.069 -1.6400  0.0781 -0.8132
   39CHL1    C5 2820   2.837   0.367   7.265 -0.8773  0.4716 -0.3426
   39CHL1    C6 2821   2.924   0.265   7.268 -0.4573  0.3067  0.2877
   39CHL1    H6 2822   2.925   0.187   7.191  0.1677 -0.7420  1.3313
   39CHL1    C7 2823   3.027   0.255   7.375 -0.0102  0.4225  0.2393
   39CHL1   H7A 2824   3.051   0.153   7.411 -1.2615  0.6230  1.7743
   39CHL1   H7B 2825   3.122   0.301   7.341  1.1452  0.8855  3.7039
   39CHL1    C8 2826   2.990   0.335   7.505  0.2112  0.2243  0.3520
   39CHL1    H8 2827   2.912   0.277   7.558  2.7036 -2.7254  1.1391
   39CHL1   C14 2828   3.108   0.337   7.602  0.5053  0.2101  0.3557
   39CHL1   H14 2829   3.192   0.391   7.553 -1.8602  3.1100 -0.7703
   39CHL1   C15 2830   3.160   0.204   7.665  0.5896 -0.0223 -0.5185
   39CHL1  H15A 2831   3.073   0.147   7.704 -0.7264  0.2009 -2.8929
   39CHL1  H15B 2832   3.214   0.138   7.594 -1.8895 -3.0589  0.2257
   39CHL1   C16 2833   3.258   0.251   7.770 -0.8791  0.7280  0.1665
   39CHL1  H16A 2834   3.251   0.182   7.857  0.3562 -0.7280 -0.8488
   39CHL1  H16B 2835   3.360   0.258   7.727 -0.3981  0.7876  1.2898
   39CHL1   C17 2836   3.212   0.396   7.805 -0.8592  0.1516  0.3680
   39CHL1   H17 2837   3.280   0.464   7.749 -1.6031  0.4610 -0.1754
   39CHL1   C13 2838   3.079   0.420   7.729  0.9840 -0.3791  0.2300
   39CHL1   C18 2839   2.961   0.370   7.820 -0.3629  0.2668 -0.0296
   39CHL1  H18A 2840   2.987   0.277   7.874 -0.6328  0.0550 -0.2634
   39CHL1  H18B 2841   2.935   0.433   7.908  0.1252 -1.7092  1.6120
   39CHL1  H18C 2842   2.864   0.353   7.768 -0.8994  0.3420  0.9212
   39CHL1   C12 2843   3.054   0.566   7.685  0.2350 -0.6800  0.2769
   39CHL1  H12A 2844   3.047   0.632   7.774 -1.5859 -1.9589  1.1457
   39CHL1  H12B 2845   3.145   0.608   7.636  0.4591 -0.9918  0.4165
   39CHL1   C11 2846   2.928   0.573   7.589 -0.1712 -0.0963  0.1085
   39CHL1  H11A 2847   2.840   0.558   7.655 -1.1398  2.0045 -0.6298
   39CHL1  H11B 2848   2.921   0.682   7.569 -0.0020  0.0297  0.7028
   39CHL1    C9 2849   2.948   0.476   7.467  0.0342  0.2669 -0.8486
   39CHL1    H9 2850   3.033   0.525   7.415 -2.1052  4.4302 -0.8273
   39CHL1   C10 2851   2.831   0.482   7.364 -0.2314 -0.4388 -0.8164
   39CHL1   C19 2852   2.703   0.459   7.449  0.3283 -0.4247 -0.2371
   39CHL1  H19A 2853   2.687   0.541   7.522  0.3343  1.1042 -1.8904
   39CHL1  H19B 2854   2.614   0.467   7.382  0.0265  1.2167  0.2957
   39CHL1  H19C 2855   2.706   0.363   7.505 -1.6001  1.5609  3.7382
   39CHL1    C1 2856   2.832   0.617   7.283 -0.6173  0.3816 -0.6624
   39CHL1   H1A 2857   2.830   0.706   7.350 -1.1257  0.7322 -1.1419
   39CHL1   H1B 2858   2.924   0.626   7.223 -0.8461 -1.0138 -1.2756
   39CHL1    C2 2859   2.704   0.629   7.194 -0.6042  0.4237 -0.0591
   39CHL1   H2A 2860   2.697   0.728   7.144  1.6374 -0.5996 -2.5984
   39CHL1   H2B 2861   2.612   0.604   7.252 -0.3809  0.5426  0.3561
   39CHL1   C20 2862   3.222   0.429   7.962  0.2685  0.1726  0.5382
   39CHL1   H20 2863   3.157   0.356   8.014  0.3932 -0.3996 -0.1056
   39CHL1   C21 2864   3.174   0.569   7.999 -0.4875  1.0083  0.6326
   39CHL1  H21A 2865   3.068   0.586   7.972 -0.8686  0.4443  1.7171
   39CHL1  H21B 2866   3.221   0.647   7.935 -0.2963 -0.4194 -1.0479
   39CHL1  H21C 2867   3.189   0.600   8.105 -0.8244 -1.8557  1.6114
   39CHL1   C22 2868   3.365   0.406   8.029  0.2431 -0.0014 -0.0763
   39CHL1  H22A 2869   3.445   0.458   7.972  0.0835 -1.1783 -1.4379
   39CHL1  H22B 2870   3.348   0.465   8.122 -0.4882 -1.4268  0.7363
   39CHL1   C23 2871   3.409   0.269   8.087 -0.0511 -0.0322  0.2184
   39CHL1  H23A 2872   3.320   0.217   8.129 -0.4355  0.9216  0.6113
   39CHL1  H23B 2873   3.461   0.203   8.015 -1.2883 -0.0256 -0.7246
   39CHL1   C24 2874   3.505   0.300   8.211  0.6563  0.3487  0.1931
   39CHL1  H24A 2875   3.601   0.318   8.158  1.3512 -1.3478  0.8115
   39CHL1  H24B 2876   3.472   0.394   8.262 -1.2297  0.4171 -1.0361
   39CHL1   C25 2877   3.522   0.174   8.290  0.0093 -0.3222  0.7716
   39CHL1   H25 2878   3.543   0.095   8.215 -0.9293 -0.8231  1.0147
   39CHL1   C26 2879   3.649   0.174   8.363  0.3282  0.4483  0.0431
   39CHL1  H26A 2880   3.731   0.215   8.301 -2.0443  2.6190 -1.9259
   39CHL1  H26B 2881   3.633   0.244   8.448  1.9554  0.7700  0.1178
   39CHL1  H26C 2882   3.671   0.077   8.413  2.1688  1.1202  0.6104
   39CHL1   C27 2883   3.398   0.143   8.378  0.4099  0.0191 -0.0420
   39CHL1  H27A 2884   3.340   0.232   8.411 -0.7978 -0.1768 -1.4846
   39CHL1  H27B 2885   3.333   0.078   8.315  0.1665 -0.5394  0.7689
   39CHL1  H27C 2886   3.443   0.080   8.457  0.0075  0.2747  0.3947
   40CHL1    C3 2887   4.030   5.533   6.991 -1.0620  0.1724  0.0747
   40CHL1    H3 2888   4.129   5.582   6.995  0.1130 -2.1182  1.5231
   40CHL1    O3 2889   3.993   5.525   6.853  0.4656  0.0711 -0.1350
   40CHL1   H3' 2890   3.906   5.565   6.852 -0.3387 -1.6300 -0.3945
   40CHL1    C4 2891   4.054   5.389   7.030 -0.1414 -0.1088 -0.1951
   40CHL1   H4A 2892   3.963   5.326   7.019 -0.9836  0.7819  1.3716
   40CHL1   H4B 2893   4.136   5.337   6.976  1.9383  1.3899  1.3677
   40CHL1    C5 2894   4.099   5.387   7.173  0.0012 -0.4110 -1.1005
   40CHL1    C6 2895   4.220   5.334   7.199 -0.8638 -0.5925 -0.1977
   40CHL1    H6 2896   4.290   5.291   7.126  0.5054  0.0558  0.6993
   40CHL1    C7 2897   4.280   5.310   7.334 -0.3656 -0.3489 -0.2063
   40CHL1   H7A 2898   4.311   5.207   7.362 -1.6912 -0.4233  1.1496
   40CHL1   H7B 2899   4.365   5.380   7.351  0.8808 -1.5870 -1.0732
   40CHL1    C8 2900   4.170   5.336   7.447 -0.2661 -0.0364  0.4821
   40CHL1    H8 2901   4.108   5.244   7.453  1.4336 -1.2410  0.2870
   40CHL1   C14 2902   4.238   5.360   7.581 -0.0262 -0.5179  0.5496
   40CHL1   H14 2903   4.291   5.457   7.572 -1.1956  0.0679 -0.3342
   40CHL1   C15 2904   4.340   5.260   7.629  0.1912  0.1642  0.1124
   40CHL1  H15A 2905   4.299   5.159   7.609  1.1013 -0.4359  1.1736
   40CHL1  H15B 2906   4.436   5.258   7.572  1.2138  0.5228  1.7572
   40CHL1   C16 2907   4.359   5.305   7.771  0.3326 -0.1092 -0.1841
   40CHL1  H16A 2908   4.377   5.222   7.842  1.4556  1.3560  1.3084
   40CHL1  H16B 2909   4.445   5.374   7.767 -0.2561  0.6863  0.5971
   40CHL1   C17 2910   4.238   5.397   7.811  0.2641  0.3037  0.5477
   40CHL1   H17 2911   4.270   5.503   7.797 -1.3655  0.5088 -2.6103
   40CHL1   C13 2912   4.133   5.383   7.698 -0.4448 -0.4021 -0.3198
   40CHL1   C18 2913   4.054   5.252   7.719  0.9498 -0.3730  1.4313
   40CHL1  H18A 2914   3.984   5.259   7.804 -1.3219  0.9010 -0.4286
   40CHL1  H18B 2915   3.983   5.221   7.639  1.5777 -0.2740  0.8258
   40CHL1  H18C 2916   4.126   5.169   7.736  1.1058 -0.5859 -0.1397
   40CHL1   C12 2917   4.053   5.519   7.659 -0.9039  0.3854 -0.5344
   40CHL1  H12A 2918   3.976   5.542   7.736  1.3415  0.5721  1.7726
   40CHL1  H12B 2919   4.127   5.601   7.666 -1.2198  0.6814 -0.6037
   40CHL1   C11 2920   3.985   5.508   7.521  0.2568 -0.3077 -0.2017
   40CHL1  H11A 2921   3.905   5.436   7.545 -0.6318  0.7843  0.1945
   40CHL1  H11B 2922   3.946   5.610   7.500  0.8501 -0.6708 -3.6908
   40CHL1    C9 2923   4.080   5.460   7.411 -0.2215  0.3898 -0.0521
   40CHL1    H9 2924   4.154   5.543   7.413  0.3943 -0.1103  2.8796
   40CHL1   C10 2925   4.004   5.454   7.271 -0.0836  0.1925 -0.5573
   40CHL1   C19 2926   3.878   5.366   7.288 -1.2014  0.0642  0.4682
   40CHL1  H19A 2927   3.909   5.261   7.304  1.6948  0.5745 -1.0811
   40CHL1  H19B 2928   3.815   5.407   7.370  1.6609 -0.8884  3.3443
   40CHL1  H19C 2929   3.823   5.371   7.191 -1.3893 -0.8363  0.5244
   40CHL1    C1 2930   3.972   5.598   7.222 -0.2892  0.5745  0.1127
   40CHL1   H1A 2931   3.905   5.650   7.295  1.4638  2.5609  0.3996
   40CHL1   H1B 2932   4.065   5.656   7.238  0.2665 -0.4149  0.5928
   40CHL1    C2 2933   3.929   5.604   7.075 -0.3129  0.4964  0.6530
   40CHL1   H2A 2934   3.929   5.709   7.041  0.9027  0.7773  1.4852
   40CHL1   H2B 2935   3.831   5.552   7.063 -0.9947  1.9724 -0.3789
   40CHL1   C20 2936   4.196   5.373   7.960  0.5499  0.3571 -0.5082
   40CHL1   H20 2937   4.162   5.268   7.975  1.0650 -0.0993 -2.3146
   40CHL1   C21 2938   4.087   5.481   7.987 -0.4756  0.2470 -0.5132
   40CHL1  H21A 2939   4.124   5.582   7.962 -0.3539  0.3337 -0.0002
   40CHL1  H21B 2940   4.061   5.466   8.094 -1.2576  0.2069 -0.7074
   40CHL1  H21C 2941   3.989   5.465   7.937 -1.6648  0.7629  1.5102
   40CHL1   C22 2942   4.312   5.392   8.060  0.3382  0.0304  0.2610
   40CHL1  H22A 2943   4.409   5.339   8.050  0.2713  0.1524 -1.3702
   40CHL1  H22B 2944   4.343   5.499   8.066 -0.5314  0.2632  0.7281
   40CHL1   C23 2945   4.282   5.341   8.201  0.0285  0.6109 -0.1284
   40CHL1  H23A 2946   4.201   5.403   8.245  1.1496  2.9561 -1.1874
   40CHL1  H23B 2947   4.247   5.236   8.194  0.3262  0.4607  0.5704
   40CHL1   C24 2948   4.405   5.340   8.295 -0.0422  0.2761 -0.0483
   40CHL1  H24A 2949   4.495   5.300   8.244  0.5312 -1.1509  1.9506
   40CHL1  H24B 2950   4.425   5.445   8.324 -0.6140  0.5703 -0.7143
   40CHL1   C25 2951   4.394   5.251   8.422  0.0364 -0.2739  0.2628
   40CHL1   H25 2952   4.394   5.146   8.386  2.1290 -0.1123 -0.3475
   40CHL1   C26 2953   4.512   5.271   8.509  0.3354  0.3517 -0.6123
   40CHL1  H26A 2954   4.501   5.204   8.597 -1.1875  1.3552 -0.0019
   40CHL1  H26B 2955   4.608   5.246   8.460  0.5357  0.8980 -0.5054
   40CHL1  H26C 2956   4.527   5.377   8.538  0.4680 -0.6451  3.7046
   40CHL1   C27 2957   4.259   5.277   8.495 -0.0176 -0.8264  0.5432
   40CHL1  H27A 2958   4.266   5.381   8.532  0.4716 -0.6164 -0.1268
   40CHL1  H27B 2959   4.182   5.251   8.419 -0.4810  0.4822  0.5397
   40CHL1  H27C 2960   4.247   5.202   8.577  0.5887  0.4765  1.8672
   41CHL1    C3 2961   4.847   5.651   7.030  0.7276  0.2808  0.6358
   41CHL1    H3 2962   4.925   5.726   7.053  0.7991  0.6511 -0.7251
   41CHL1    O3 2963   4.826   5.662   6.892  0.0972 -0.3393  0.1739
   41CHL1   H3' 2964   4.913   5.655   6.852 -0.0163 -0.2155 -0.0966
   41CHL1    C4 2965   4.917   5.516   7.063 -0.1757 -0.2048  0.4117
   41CHL1   H4A 2966   4.857   5.437   7.012  2.1113 -1.4120 -0.5509
   41CHL1   H4B 2967   5.013   5.530   7.009  0.3293  2.2864  1.7909
   41CHL1    C5 2968   4.935   5.486   7.206 -0.4229  0.2365  0.2384
   41CHL1    C6 2969   5.059   5.448   7.256  0.6669 -0.3312 -0.5026
   41CHL1    H6 2970   5.143   5.435   7.187 -0.1626 -1.6157 -1.3268
   41CHL1    C7 2971   5.078   5.415   7.404  0.5577 -0.2077  0.6307
   41CHL1   H7A 2972   5.138   5.322   7.414  1.9477  0.5469 -0.4077
   41CHL1   H7B 2973   5.118   5.497   7.466 -0.3067 -0.3380  1.3885
   41CHL1    C8 2974   4.941   5.380   7.469 -0.4176 -0.9796 -0.1109
   41CHL1    H8 2975   4.924   5.276   7.432  0.0789 -0.5696 -1.5401
   41CHL1   C14 2976   4.969   5.374   7.623  0.2187 -1.1229  0.3639
   41CHL1   H14 2977   5.017   5.468   7.657 -1.7108 -0.2656  0.8555
   41CHL1   C15 2978   5.072   5.276   7.665  0.0834 -0.0594  0.5516
   41CHL1  H15A 2979   5.051   5.175   7.623 -0.1682  0.0593  0.3903
   41CHL1  H15B 2980   5.173   5.322   7.656 -0.3530  0.7988 -0.0331
   41CHL1   C16 2981   5.059   5.273   7.822  0.1192  0.2575  0.1162
   41CHL1  H16A 2982   5.074   5.168   7.857 -2.1158  0.2609  1.2312
   41CHL1  H16B 2983   5.137   5.324   7.882 -0.8848 -2.2206  3.8934
   41CHL1   C17 2984   4.914   5.339   7.856 -0.8284 -0.1910  0.5095
   41CHL1   H17 2985   4.945   5.441   7.889 -0.7174 -0.9687  2.9559
   41CHL1   C13 2986   4.852   5.358   7.718 -0.1838  0.3573  0.0232
   41CHL1   C18 2987   4.772   5.234   7.677 -0.1979 -0.2903  0.3614
   41CHL1  H18A 2988   4.686   5.226   7.746  0.1185  2.5548  1.2177
   41CHL1  H18B 2989   4.732   5.238   7.574  0.1235 -0.0120  0.2438
   41CHL1  H18C 2990   4.836   5.143   7.684 -0.1650 -0.3498 -0.6186
   41CHL1   C12 2991   4.754   5.477   7.694 -0.4626 -0.0872 -0.2438
   41CHL1  H12A 2992   4.661   5.462   7.752 -1.1883  0.8890 -1.1246
   41CHL1  H12B 2993   4.814   5.567   7.721 -1.5140  1.1994 -1.9569
   41CHL1   C11 2994   4.720   5.492   7.542 -0.0184  0.1075  0.1608
   41CHL1  H11A 2995   4.648   5.409   7.524 -0.4130  0.7039 -1.0744
   41CHL1  H11B 2996   4.673   5.592   7.539  0.2135  0.1870 -1.6744
   41CHL1    C9 2997   4.839   5.494   7.442  0.1296  0.0285 -0.5857
   41CHL1    H9 2998   4.907   5.580   7.457  1.6603 -1.1442 -0.5474
   41CHL1   C10 2999   4.807   5.510   7.288  0.0546  0.4270 -0.6235
   41CHL1   C19 3000   4.689   5.409   7.263  0.2623 -0.4744 -0.5739
   41CHL1  H19A 3001   4.716   5.323   7.328  3.1928  1.6009  1.2170
   41CHL1  H19B 3002   4.599   5.450   7.314  0.2363 -0.7158 -0.4231
   41CHL1  H19C 3003   4.674   5.386   7.155 -1.5597 -1.4894 -0.1407
   41CHL1    C1 3004   4.756   5.656   7.256 -0.6347 -0.2077 -0.2577
   41CHL1   H1A 3005   4.659   5.659   7.311 -0.7276  0.2652 -0.4450
   41CHL1   H1B 3006   4.830   5.732   7.289 -0.7970 -0.2986  0.3338
   41CHL1    C2 3007   4.724   5.669   7.105 -0.0857  0.1653 -1.6053
   41CHL1   H2A 3008   4.703   5.777   7.085  2.5895  1.3899  1.2683
   41CHL1   H2B 3009   4.643   5.600   7.077 -0.3472 -0.1799 -0.0868
   41CHL1   C20 3010   4.847   5.264   7.969 -0.1910  0.2711 -0.7753
   41CHL1   H20 3011   4.815   5.165   7.931 -2.1527  1.2439 -1.7639
   41CHL1   C21 3012   4.719   5.336   8.002  0.4234  0.2093  0.4175
   41CHL1  H21A 3013   4.651   5.318   7.916  1.3847 -0.7853 -0.1777
   41CHL1  H21B 3014   4.736   5.446   8.003  0.1452  0.3706 -2.5504
   41CHL1  H21C 3015   4.663   5.285   8.083 -1.6089 -0.5309 -1.3633
   41CHL1   C22 3016   4.944   5.241   8.092 -0.4119 -0.9274  0.2779
   41CHL1  H22A 3017   5.040   5.197   8.059  1.2020  2.5399 -0.0771
   41CHL1  H22B 3018   4.966   5.341   8.135  0.7529 -1.2454  0.4376
   41CHL1   C23 3019   4.888   5.143   8.199  0.1856  1.1957  0.4266
   41CHL1  H23A 3020   4.809   5.191   8.260  0.4455 -0.5431  2.2342
   41CHL1  H23B 3021   4.857   5.055   8.137  2.0478  0.2365  0.7930
   41CHL1   C24 3022   5.003   5.076   8.287  0.7164 -0.0697  0.1634
   41CHL1  H24A 3023   5.075   5.017   8.227  1.5578  1.0970 -0.0086
   41CHL1  H24B 3024   5.057   5.167   8.323 -1.2497  1.3941 -0.4059
   41CHL1   C25 3025   4.971   5.010   8.426 -0.0514  0.2331  0.2143
   41CHL1   H25 3026   5.057   4.962   8.477  0.1374  1.3765  1.0173
   41CHL1   C26 3027   4.898   5.103   8.523 -0.6407 -0.1212 -0.1846
   41CHL1  H26A 3028   4.974   5.180   8.547 -0.4267 -0.2924 -0.3164
   41CHL1  H26B 3029   4.814   5.151   8.467  0.2220 -0.2678 -1.6443
   41CHL1  H26C 3030   4.860   5.044   8.609 -1.4779 -0.8024 -0.9932
   41CHL1   C27 3031   4.874   4.886   8.396 -0.5380  0.0472 -0.5426
   41CHL1  H27A 3032   4.771   4.907   8.360 -0.5866  1.9811  0.5821
   41CHL1  H27B 3033   4.921   4.815   8.325  2.3994 -0.0351  1.2862
   41CHL1  H27C 3034   4.861   4.852   8.501  1.0466  2.4583  0.5438
   42CHL1    C3 3035   0.321   3.501   7.013  0.4755  0.0364 -0.0760
   42CHL1    H3 3036   0.309   3.396   6.979  0.6262  0.3762 -1.2573
   42CHL1    O3 3037   0.364   3.569   6.898 -0.1768  0.2208 -0.0944
   42CHL1   H3' 3038   0.440   3.520   6.867  0.4046  1.7842 -1.2770
   42CHL1    C4 3039   0.178   3.557   7.050 -0.1130 -0.0758  0.5083
   42CHL1   H4A 3040   0.192   3.667   7.054 -0.9923  0.0122  2.1127
   42CHL1   H4B 3041   0.106   3.539   6.967  1.5230 -0.9218 -0.7712
   42CHL1    C5 3042   0.125   3.499   7.178  0.6274 -0.3063  0.1421
   42CHL1    C6 3043   0.002   3.436   7.188 -0.7550 -0.7023 -0.1557
   42CHL1    H6 3044  -0.051   3.417   7.093  0.1265 -0.0940 -0.7760
   42CHL1    C7 3045  -0.051   3.376   7.315  0.2651 -0.1194  0.7823
   42CHL1   H7A 3046  -0.160   3.389   7.336 -0.3737 -4.0625  0.6794
   42CHL1   H7B 3047  -0.046   3.265   7.314 -0.0157 -0.1403  1.1598
   42CHL1    C8 3048   0.016   3.432   7.442 -0.2849  0.5275 -0.0521
   42CHL1    H8 3049  -0.025   3.535   7.451 -0.3475  0.6935 -1.9105
   42CHL1   C14 3050  -0.013   3.354   7.578  0.9004 -0.1837 -0.2361
   42CHL1   H14 3051   0.021   3.249   7.563  0.2386 -0.9238  2.7623
   42CHL1   C15 3052  -0.162   3.325   7.616 -0.0498 -0.4170 -0.4465
   42CHL1  H15A 3053  -0.224   3.416   7.603  1.3612  0.9229  1.5192
   42CHL1  H15B 3054  -0.192   3.235   7.559  0.5035 -2.1179  1.7770
   42CHL1   C16 3055  -0.162   3.302   7.775 -0.2439 -0.3575 -0.0454
   42CHL1  H16A 3056  -0.224   3.381   7.823  1.5368 -0.3321  2.4142
   42CHL1  H16B 3057  -0.205   3.203   7.800 -0.6695 -0.4690 -1.1540
   42CHL1   C17 3058  -0.015   3.325   7.820 -0.0793  0.4720  0.2143
   42CHL1   H17 3059   0.029   3.224   7.807  1.5854  1.2439 -0.3855
   42CHL1   C13 3060   0.046   3.414   7.707 -0.2767  0.2359  0.4063
   42CHL1   C18 3061  -0.005   3.553   7.740  0.5916 -0.1274 -0.4074
   42CHL1  H18A 3062   0.062   3.588   7.822  0.7823 -1.0449 -0.1552
   42CHL1  H18B 3063   0.008   3.617   7.650  0.8356  1.6533  0.8479
   42CHL1  H18C 3064  -0.109   3.553   7.777  0.4494  1.4936 -0.7238
   42CHL1   C12 3065   0.199   3.409   7.686  1.0887 -0.8905 -0.9017
   42CHL1  H12A 3066   0.249   3.463   7.769 -1.3931  1.5110 -0.8218
   42CHL1  H12B 3067   0.218   3.301   7.671 -3.2868 -2.1216  0.9828
   42CHL1   C11 3068   0.242   3.483   7.561  0.5460  0.3754  0.2478
   42CHL1  H11A 3069   0.230   3.593   7.565  0.5177  0.5570 -2.5642
   42CHL1  H11B 3070   0.351   3.466   7.565  0.3490 -1.1072  0.2445
   42CHL1    C9 3071   0.167   3.438   7.433  0.6372 -0.1637  0.2588
   42CHL1    H9 3072   0.188   3.329   7.420 -1.1202 -0.6802  1.3420
   42CHL1   C10 3073   0.214   3.509   7.302 -0.1256 -0.0400  0.6323
   42CHL1   C19 3074   0.237   3.657   7.325 -0.0039 -0.7132 -0.0054
   42CHL1  H19A 3075   0.326   3.676   7.389 -0.6674 -1.1797  1.0814
   42CHL1  H19B 3076   0.253   3.717   7.232 -0.9794  0.4711  0.5733
   42CHL1  H19C 3077   0.163   3.704   7.392  0.3428  1.6671 -1.1912
   42CHL1    C1 3078   0.348   3.444   7.252 -0.0232  0.4669  0.3153
   42CHL1   H1A 3079   0.422   3.452   7.335  2.0086 -0.9186 -1.2381
   42CHL1   H1B 3080   0.339   3.334   7.243  1.6708  0.3537 -0.3762
   42CHL1    C2 3081   0.423   3.505   7.125  0.7677 -0.6420  0.3713
   42CHL1   H2A 3082   0.508   3.440   7.094 -0.6422 -1.2389 -2.6445
   42CHL1   H2B 3083   0.460   3.606   7.149  2.3078 -0.9698 -0.4671
   42CHL1   C20 3084  -0.009   3.362   7.964  0.6409 -0.0247 -0.0418
   42CHL1   H20 3085  -0.067   3.452   7.993 -1.3525 -1.4800  0.6938
   42CHL1   C21 3086   0.141   3.374   7.998  0.7392 -0.2226  1.1898
   42CHL1  H21A 3087   0.190   3.289   7.946 -1.1718  0.5941 -2.1816
   42CHL1  H21B 3088   0.156   3.365   8.108 -2.3413 -1.4860  1.5991
   42CHL1  H21C 3089   0.173   3.472   7.957  0.9727 -1.3172 -1.3794
   42CHL1   C22 3090  -0.078   3.255   8.052 -0.5655 -0.5439  0.3916
   42CHL1  H22A 3091  -0.183   3.242   8.020 -1.0744 -1.0926  2.2066
   42CHL1  H22B 3092  -0.029   3.155   8.043  0.9271  0.0726  1.3095
   42CHL1   C23 3093  -0.087   3.288   8.202 -0.5611  0.7080  0.2841
   42CHL1  H23A 3094   0.007   3.310   8.257 -0.9157 -1.4010  1.8652
   42CHL1  H23B 3095  -0.147   3.381   8.214 -1.5898  0.4793 -2.3498
   42CHL1   C24 3096  -0.167   3.177   8.289 -1.0339  0.2835 -0.4398
   42CHL1  H24A 3097  -0.267   3.205   8.249 -0.4715  2.1393 -0.6320
   42CHL1  H24B 3098  -0.135   3.075   8.260  1.8927  1.0980 -0.4187
   42CHL1   C25 3099  -0.162   3.206   8.443  0.4270 -0.1749  0.3504
   42CHL1   H25 3100  -0.239   3.143   8.492 -0.8939  2.7194  2.2820
   42CHL1   C26 3101  -0.022   3.172   8.495 -0.4404 -0.4534  0.1305
   42CHL1  H26A 3102   0.007   3.065   8.488 -0.0032 -0.2555 -1.5568
   42CHL1  H26B 3103   0.048   3.223   8.426 -2.0539  1.3513 -0.2557
   42CHL1  H26C 3104  -0.015   3.204   8.602 -0.3961  1.2851 -0.3621
   42CHL1   C27 3105  -0.199   3.348   8.485  0.0346 -0.2759  0.7020
   42CHL1  H27A 3106  -0.127   3.421   8.443 -2.3862  1.4987 -0.5800
   42CHL1  H27B 3107  -0.196   3.369   8.594  0.9935  0.1043  0.6132
   42CHL1  H27C 3108  -0.298   3.374   8.444  0.0963  1.2011  1.4377
   43CHL1    C3 3109   6.414   6.713   6.914 -0.2617 -0.3634 -0.4234
   43CHL1    H3 3110   6.518   6.676   6.917  0.0936  0.6866  1.2789
   43CHL1    O3 3111   6.368   6.667   6.788  0.3985 -0.1241  0.4325
   43CHL1   H3' 3112   6.367   6.572   6.777  0.3404 -0.0595 -0.1437
   43CHL1    C4 3113   6.330   6.650   7.018  1.0277  0.5073  0.5457
   43CHL1   H4A 3114   6.226   6.678   6.990  1.1517  0.8752  0.4462
   43CHL1   H4B 3115   6.326   6.540   7.010  0.7160  0.4662  1.2128
   43CHL1    C5 3116   6.364   6.694   7.160 -0.3135  0.3742 -0.3920
   43CHL1    C6 3117   6.385   6.601   7.251  0.6677  0.0008  1.3637
   43CHL1    H6 3118   6.376   6.496   7.221 -0.9461 -0.0790  2.0404
   43CHL1    C7 3119   6.413   6.621   7.397  0.3009  0.3545  0.3243
   43CHL1   H7A 3120   6.340   6.562   7.457  1.8514 -3.3963 -1.1420
   43CHL1   H7B 3121   6.512   6.578   7.425 -0.6349 -0.8987  1.8940
   43CHL1    C8 3122   6.403   6.775   7.436 -0.1333  0.3997  0.2298
   43CHL1    H8 3123   6.297   6.802   7.454  0.1082  1.9884 -0.5906
   43CHL1   C14 3124   6.478   6.805   7.561 -0.3493  0.2433  0.1533
   43CHL1   H14 3125   6.586   6.798   7.532 -0.5133 -1.7873 -0.1422
   43CHL1   C15 3126   6.448   6.715   7.686 -1.0029  0.2500  0.5250
   43CHL1  H15A 3127   6.341   6.686   7.691 -0.9166 -0.2921 -0.5022
   43CHL1  H15B 3128   6.517   6.628   7.688  0.1906  1.1803  0.6068
   43CHL1   C16 3129   6.482   6.809   7.803  0.0909  0.6372  0.7102
   43CHL1  H16A 3130   6.386   6.822   7.858 -0.7029  1.6470 -0.8267
   43CHL1  H16B 3131   6.551   6.761   7.876  0.5249  0.3514  0.1156
   43CHL1   C17 3132   6.530   6.948   7.749  0.2160  0.3330 -0.1442
   43CHL1   H17 3133   6.641   6.952   7.734 -0.1981  0.6898 -4.5088
   43CHL1   C13 3134   6.468   6.953   7.604  0.0692 -0.3609 -0.2089
   43CHL1   C18 3135   6.321   7.003   7.615  0.3711 -0.0993  0.0275
   43CHL1  H18A 3136   6.320   7.108   7.650 -0.8887 -0.0518 -0.1241
   43CHL1  H18B 3137   6.270   7.008   7.516 -0.1447 -0.2692  0.2860
   43CHL1  H18C 3138   6.266   6.928   7.675 -2.7147  0.2815 -2.0825
   43CHL1   C12 3139   6.544   7.031   7.499  0.6705  0.4193 -0.1020
   43CHL1  H12A 3140   6.532   7.139   7.523 -3.8002 -0.2226  1.5837
   43CHL1  H12B 3141   6.650   6.996   7.493  0.7247  0.7467 -1.2531
   43CHL1   C11 3142   6.486   7.015   7.357 -0.3632 -0.2473  0.4191
   43CHL1  H11A 3143   6.392   7.073   7.349 -1.4867 -2.1389 -1.2236
   43CHL1  H11B 3144   6.557   7.051   7.279 -1.3976  0.5489 -0.1751
   43CHL1    C9 3145   6.460   6.865   7.320 -0.8343 -0.1616 -0.3331
   43CHL1    H9 3146   6.562   6.823   7.305 -0.2928 -0.0344  2.4730
   43CHL1   C10 3147   6.392   6.848   7.183  0.4420  0.1933 -0.4249
   43CHL1   C19 3148   6.253   6.920   7.194  1.1489 -0.9084  0.5095
   43CHL1  H19A 3149   6.213   6.910   7.297  4.5005  2.5567  2.3991
   43CHL1  H19B 3150   6.265   7.028   7.171 -0.3238 -1.0463 -1.0997
   43CHL1  H19C 3151   6.180   6.877   7.122 -0.8338 -0.1622  1.9886
   43CHL1    C1 3152   6.470   6.906   7.067 -1.3528 -0.6028  0.5050
   43CHL1   H1A 3153   6.492   7.014   7.075  1.1098 -1.0896  1.4631
   43CHL1   H1B 3154   6.575   6.868   7.066 -0.9696  0.4240 -0.0412
   43CHL1    C2 3155   6.415   6.869   6.923 -0.5148  0.5993 -0.3084
   43CHL1   H2A 3156   6.483   6.902   6.842  0.5244  1.8657  1.0194
   43CHL1   H2B 3157   6.321   6.920   6.894 -0.0239  2.6349  1.4175
   43CHL1   C20 3158   6.502   7.061   7.850 -0.1863 -0.0861 -0.2378
   43CHL1   H20 3159   6.394   7.073   7.872 -0.5761 -0.8832 -1.5564
   43CHL1   C21 3160   6.551   7.200   7.799 -0.3999  0.2865  0.2091
   43CHL1  H21A 3161   6.524   7.279   7.872  1.0699  2.0583 -1.0701
   43CHL1  H21B 3162   6.488   7.219   7.710  2.3253 -1.7617 -2.3597
   43CHL1  H21C 3163   6.657   7.203   7.764 -0.1761  0.6903  0.8954
   43CHL1   C22 3164   6.573   7.028   7.989  0.0554  0.3271  0.5160
   43CHL1  H22A 3165   6.516   6.947   8.040  0.9142  0.8526  2.4095
   43CHL1  H22B 3166   6.678   6.997   7.970 -0.1206 -0.4040  0.7010
   43CHL1   C23 3167   6.577   7.150   8.077 -0.7652 -0.8834 -0.0341
   43CHL1  H23A 3168   6.658   7.220   8.047  0.2696 -0.9457  2.3479
   43CHL1  H23B 3169   6.486   7.208   8.048 -0.6778 -1.1641 -0.8721
   43CHL1   C24 3170   6.598   7.125   8.228  0.5000 -0.2250 -0.0728
   43CHL1  H24A 3171   6.528   7.045   8.261  2.1863 -0.9393  1.9668
   43CHL1  H24B 3172   6.698   7.082   8.249 -0.0444 -1.1084  0.8170
   43CHL1   C25 3173   6.577   7.242   8.325  0.6657  0.2691 -0.7185
   43CHL1   H25 3174   6.501   7.317   8.295 -0.0710  1.3768  3.2837
   43CHL1   C26 3175   6.524   7.189   8.470 -0.5892 -0.6933  0.2927
   43CHL1  H26A 3176   6.422   7.148   8.456 -0.9798  1.1309 -3.5013
   43CHL1  H26B 3177   6.587   7.117   8.527  0.0906  0.3228  0.8629
   43CHL1  H26C 3178   6.518   7.280   8.533  0.2697 -1.4640  1.5210
   43CHL1   C27 3179   6.715   7.309   8.340  0.3875  0.2971  0.7224
   43CHL1  H27A 3180   6.784   7.240   8.394  0.3957  1.2124  1.9371
   43CHL1  H27B 3181   6.765   7.329   8.243  0.8046 -0.6600  0.7270
   43CHL1  H27C 3182   6.709   7.407   8.393 -0.8983  0.1034  0.9733
   44CHL1    C3 3183   6.576   5.466   6.776  1.1451 -0.0515 -0.1336
   44CHL1    H3 3184   6.575   5.378   6.844 -1.2357 -0.5102 -0.6427
   44CHL1    O3 3185   6.579   5.428   6.641  0.3224  0.3848 -0.1218
   44CHL1   H3' 3186   6.491   5.390   6.631  0.3513 -1.0984  3.7065
   44CHL1    C4 3187   6.445   5.540   6.803  0.2731  0.4785 -0.1840
   44CHL1   H4A 3188   6.444   5.630   6.738  1.1534 -0.3542 -1.3774
   44CHL1   H4B 3189   6.358   5.473   6.786  2.1209 -2.0782 -0.0548
   44CHL1    C5 3190   6.438   5.574   6.953  0.4292 -0.3935 -0.3057
   44CHL1    C6 3191   6.336   5.526   7.026 -0.4176  0.1906 -0.0831
   44CHL1    H6 3192   6.248   5.476   6.982 -0.6243 -1.7503  2.3061
   44CHL1    C7 3193   6.335   5.545   7.172 -0.1878 -0.4461  0.0060
   44CHL1   H7A 3194   6.232   5.547   7.212 -0.2196  0.4707 -0.1028
   44CHL1   H7B 3195   6.383   5.458   7.222  0.5440 -0.5602 -0.8739
   44CHL1    C8 3196   6.414   5.661   7.227 -0.7345  0.2333  0.4181
   44CHL1    H8 3197   6.361   5.752   7.193 -1.7051 -0.2965  0.4811
   44CHL1   C14 3198   6.425   5.659   7.384  0.2414 -0.1377 -0.7667
   44CHL1   H14 3199   6.457   5.554   7.400  2.0590  0.2171 -1.6734
   44CHL1   C15 3200   6.302   5.654   7.474  0.0018  0.0017 -1.1144
   44CHL1  H15A 3201   6.220   5.709   7.422  0.3418 -1.3313 -3.1557
   44CHL1  H15B 3202   6.267   5.550   7.494 -2.0595  0.3874 -2.4007
   44CHL1   C16 3203   6.346   5.718   7.609  0.2115 -0.0362 -0.1009
   44CHL1  H16A 3204   6.284   5.807   7.633 -1.1647 -0.3273 -2.2827
   44CHL1  H16B 3205   6.340   5.647   7.695 -1.2771  0.4591  0.2408
   44CHL1   C17 3206   6.502   5.745   7.595  0.7048  0.5558  0.3535
   44CHL1   H17 3207   6.550   5.647   7.614  1.5859  0.6965 -1.0003
   44CHL1   C13 3208   6.520   5.761   7.444 -0.1823  0.5212 -0.6630
   44CHL1   C18 3209   6.460   5.904   7.410 -0.0396  0.5180 -0.5309
   44CHL1  H18A 3210   6.367   5.919   7.470  0.0788 -0.1690 -0.1611
   44CHL1  H18B 3211   6.537   5.980   7.431  0.4532 -0.5793  2.1602
   44CHL1  H18C 3212   6.421   5.923   7.308 -2.2588  1.3042  0.3888
   44CHL1   C12 3213   6.662   5.749   7.384  0.6349  0.0207  0.3265
   44CHL1  H12A 3214   6.738   5.825   7.413  0.6701  1.1343 -2.3322
   44CHL1  H12B 3215   6.691   5.647   7.417  0.2051 -0.3288 -0.3518
   44CHL1   C11 3216   6.659   5.755   7.238 -0.1011  0.4104  0.7319
   44CHL1  H11A 3217   6.633   5.860   7.212  0.0090  0.4972  0.9742
   44CHL1  H11B 3218   6.757   5.731   7.192 -0.8966 -2.7540  0.4192
   44CHL1    C9 3219   6.553   5.659   7.166 -0.7090 -0.3878  0.9353
   44CHL1    H9 3220   6.593   5.559   7.192  1.6788 -0.1141 -1.2730
   44CHL1   C10 3221   6.557   5.645   7.007  0.1394  0.4046 -0.1424
   44CHL1   C19 3222   6.549   5.794   6.959 -0.0387  0.3674  0.4095
   44CHL1  H19A 3223   6.649   5.834   6.985 -0.0205 -0.2032  1.2386
   44CHL1  H19B 3224   6.540   5.805   6.849 -0.5900  1.2548  0.5366
   44CHL1  H19C 3225   6.462   5.844   7.006 -1.5623 -0.1970 -1.6426
   44CHL1    C1 3226   6.687   5.590   6.959 -0.3366 -0.1074 -0.5335
   44CHL1   H1A 3227   6.773   5.654   6.986 -1.5554  1.7003 -0.7443
   44CHL1   H1B 3228   6.711   5.495   7.013 -0.5168 -0.9247 -1.8296
   44CHL1    C2 3229   6.690   5.558   6.810 -0.4962  0.5764  0.8189
   44CHL1   H2A 3230   6.784   5.504   6.787  0.2378  2.2850 -0.3934
   44CHL1   H2B 3231   6.685   5.655   6.757 -3.4282  0.3608  0.5575
   44CHL1   C20 3232   6.552   5.858   7.689  0.2195 -0.1846 -0.0437
   44CHL1   H20 3233   6.512   5.957   7.658  1.3813  0.9188  1.7536
   44CHL1   C21 3234   6.706   5.881   7.686 -0.9518 -0.7730  0.1058
   44CHL1  H21A 3235   6.724   5.934   7.590 -0.7817  3.3341  2.2205
   44CHL1  H21B 3236   6.761   5.785   7.689  0.5797 -0.0779 -2.6232
   44CHL1  H21C 3237   6.748   5.952   7.760  3.3673 -1.1003 -1.7398
   44CHL1   C22 3238   6.522   5.825   7.833 -0.3715  0.0389 -0.1761
   44CHL1  H22A 3239   6.574   5.902   7.894  1.3439 -0.2680 -1.1929
   44CHL1  H22B 3240   6.413   5.832   7.851 -0.2884  1.3288 -0.1000
   44CHL1   C23 3241   6.577   5.689   7.882 -0.4691  0.6130  0.6260
   44CHL1  H23A 3242   6.545   5.604   7.819  0.1095  1.2558 -0.5682
   44CHL1  H23B 3243   6.684   5.681   7.853 -0.2808  0.0253  1.4319
   44CHL1   C24 3244   6.554   5.662   8.032 -1.0820 -0.4463  0.5656
   44CHL1  H24A 3245   6.617   5.571   8.043  0.5418  0.4406 -0.9594
   44CHL1  H24B 3246   6.595   5.742   8.097 -1.3012  0.6844 -0.6552
   44CHL1   C25 3247   6.413   5.634   8.071 -0.3046 -0.4734 -0.1238
   44CHL1   H25 3248   6.354   5.724   8.044 -1.1289 -0.8196  0.4953
   44CHL1   C26 3249   6.350   5.517   7.994 -0.1972 -0.2752 -0.4052
   44CHL1  H26A 3250   6.335   5.554   7.891  1.6143 -1.6732 -1.2379
   44CHL1  H26B 3251   6.426   5.436   7.997 -0.4339 -0.4741  1.5387
   44CHL1  H26C 3252   6.252   5.493   8.040 -0.8099  0.6770 -1.1653
   44CHL1   C27 3253   6.415   5.613   8.220  0.5518  0.7933 -0.2774
   44CHL1  H27A 3254   6.309   5.603   8.253  0.6993  0.4233  0.0935
   44CHL1  H27B 3255   6.475   5.525   8.251 -2.6723 -1.4235  0.2581
   44CHL1  H27C 3256   6.457   5.703   8.270 -2.0930  1.2890  1.2769
   45CHL1    C3 3257   2.745   2.645   6.896 -0.7662 -0.4967  0.2358
   45CHL1    H3 3258   2.802   2.551   6.910  0.7902  0.6924  2.6688
   45CHL1    O3 3259   2.715   2.659   6.755 -0.5412  0.1073  0.2776
   45CHL1   H3' 3260   2.680   2.578   6.717 -2.1590  1.7262 -1.9021
   45CHL1    C4 3261   2.614   2.636   6.969 -0.3383 -0.3332  0.7461
   45CHL1   H4A 3262   2.549   2.717   6.931  1.3424  1.3253  1.2610
   45CHL1   H4B 3263   2.567   2.541   6.936 -2.0557  1.9876 -4.4184
   45CHL1    C5 3264   2.619   2.637   7.116 -0.2487 -0.3499 -0.0626
   45CHL1    C6 3265   2.554   2.543   7.184  0.3621  0.5877 -0.8105
   45CHL1    H6 3266   2.499   2.462   7.133 -1.6353  0.8642  0.7891
   45CHL1    C7 3267   2.545   2.542   7.335 -0.0960 -0.2543 -0.6602
   45CHL1   H7A 3268   2.441   2.532   7.374 -0.2369  1.6472 -0.4286
   45CHL1   H7B 3269   2.614   2.467   7.379  0.6092  1.6219  1.6095
   45CHL1    C8 3270   2.602   2.678   7.391  0.2358  0.4491  0.0157
   45CHL1    H8 3271   2.523   2.756   7.387 -0.4455  0.2635  4.7586
   45CHL1   C14 3272   2.637   2.662   7.542  0.4775  0.0552  0.2968
   45CHL1   H14 3273   2.714   2.584   7.558  0.9260  0.6624  1.1938
   45CHL1   C15 3274   2.518   2.627   7.634  1.1912  0.2376 -0.0574
   45CHL1  H15A 3275   2.428   2.677   7.593  1.6421  0.4074 -0.8755
   45CHL1  H15B 3276   2.488   2.520   7.640  0.7954  0.2902 -0.9188
   45CHL1   C16 3277   2.560   2.672   7.771 -0.4705 -1.1806  0.8081
   45CHL1  H16A 3278   2.491   2.750   7.809  1.9463  1.9747 -0.7521
   45CHL1  H16B 3279   2.565   2.588   7.843 -0.5593 -2.1047 -0.2311
   45CHL1   C17 3280   2.704   2.739   7.752  0.3726  0.2470  0.4542
   45CHL1   H17 3281   2.781   2.664   7.779  3.3619  2.2785 -1.7030
   45CHL1   C13 3282   2.710   2.780   7.605  0.7929 -0.6529  0.1505
   45CHL1   C18 3283   2.620   2.913   7.584  0.4490  0.5865 -0.3153
   45CHL1  H18A 3284   2.523   2.893   7.635  0.5989  0.2764 -0.1423
   45CHL1  H18B 3285   2.669   3.004   7.624 -1.7714  0.5351  2.9025
   45CHL1  H18C 3286   2.585   2.924   7.479  0.4715  2.1063 -0.1729
   45CHL1   C12 3287   2.849   2.798   7.541 -0.1635 -0.6240  0.0278
   45CHL1  H12A 3288   2.909   2.879   7.586 -0.6390 -0.2623  0.0096
   45CHL1  H12B 3289   2.905   2.702   7.555 -0.1501 -0.9954 -2.2557
   45CHL1   C11 3290   2.828   2.824   7.392  0.0070 -0.0336  0.2336
   45CHL1  H11A 3291   2.787   2.927   7.386 -1.9355 -0.7405  0.5855
   45CHL1  H11B 3292   2.927   2.818   7.343 -0.6867  0.0641 -1.2437
   45CHL1    C9 3293   2.733   2.717   7.323 -0.2391  0.1081 -0.0026
   45CHL1    H9 3294   2.793   2.624   7.317 -1.9806 -1.0959  0.5116
   45CHL1   C10 3295   2.711   2.753   7.173  0.6348 -0.1627 -0.0557
   45CHL1   C19 3296   2.642   2.891   7.156  0.2649  0.0454 -0.1492
   45CHL1  H19A 3297   2.696   2.983   7.187 -0.6836  0.8658 -0.8566
   45CHL1  H19B 3298   2.609   2.910   7.052  0.5187  0.5516 -0.1408
   45CHL1  H19C 3299   2.550   2.886   7.218  0.1071 -0.8965 -0.4424
   45CHL1    C1 3300   2.841   2.752   7.102  0.0732 -0.0183  0.6535
   45CHL1   H1A 3301   2.906   2.837   7.132 -0.0879  0.2362  0.2879
   45CHL1   H1B 3302   2.910   2.672   7.135  2.2137  1.2547 -0.5161
   45CHL1    C2 3303   2.840   2.755   6.950  0.3002  0.2965  0.1757
   45CHL1   H2A 3304   2.936   2.741   6.896  0.0587  0.2185 -0.2326
   45CHL1   H2B 3305   2.792   2.846   6.908 -1.9520 -1.5492 -1.5018
   45CHL1   C20 3306   2.720   2.856   7.858 -0.5201  0.4763 -0.8140
   45CHL1   H20 3307   2.636   2.927   7.844  0.3979  1.6754 -0.4107
   45CHL1   C21 3308   2.855   2.924   7.842  0.5361 -0.6541 -0.3871
   45CHL1  H21A 3309   2.934   2.848   7.822  0.7596 -0.4502 -0.2911
   45CHL1  H21B 3310   2.891   2.973   7.936 -0.1523 -3.2107  1.2949
   45CHL1  H21C 3311   2.851   2.992   7.753  3.9461  1.3724  0.7948
   45CHL1   C22 3312   2.706   2.803   7.998  0.3992 -0.1103  0.3408
   45CHL1  H22A 3313   2.638   2.715   8.000 -1.6031  1.2594 -1.7825
   45CHL1  H22B 3314   2.804   2.755   8.018  0.5030  0.0545  0.2372
   45CHL1   C23 3315   2.660   2.895   8.112 -0.5385  0.0379  0.7996
   45CHL1  H23A 3316   2.726   2.984   8.117  0.0454 -0.3175 -0.4105
   45CHL1  H23B 3317   2.556   2.926   8.087  0.2325  0.7081 -1.8643
   45CHL1   C24 3318   2.667   2.817   8.248 -0.2153 -0.3225 -0.3640
   45CHL1  H24A 3319   2.590   2.737   8.243 -0.4249 -0.1385 -0.0764
   45CHL1  H24B 3320   2.769   2.777   8.266  0.8283  2.9825  2.1873
   45CHL1   C25 3321   2.646   2.916   8.361  0.8825 -0.5739  0.4402
   45CHL1   H25 3322   2.735   2.983   8.357  0.2815  0.3934  2.1763
   45CHL1   C26 3323   2.522   3.005   8.353  0.2113  0.1768 -0.0323
   45CHL1  H26A 3324   2.521   3.070   8.263  1.8491 -0.0077 -0.2078
   45CHL1  H26B 3325   2.431   2.941   8.346  0.3221  0.1385 -1.3793
   45CHL1  H26C 3326   2.510   3.073   8.440  1.7757  1.0658 -0.4807
   45CHL1   C27 3327   2.645   2.854   8.493  0.0699  1.0977 -0.2412
   45CHL1  H27A 3328   2.628   2.932   8.570  3.2676  0.6165  1.1439
   45CHL1  H27B 3329   2.563   2.780   8.508  2.0192 -0.8753  1.5243
   45CHL1  H27C 3330   2.738   2.802   8.526  0.4645  1.5238 -0.6761
   46CHL1    C3 3331   1.012   5.569   7.264 -0.1304 -0.2321 -0.3065
   46CHL1    H3 3332   0.996   5.673   7.298  0.9101  0.1008 -0.8000
   46CHL1    O3 3333   1.061   5.558   7.129  0.4632  0.2840  0.4090
   46CHL1   H3' 3334   1.024   5.478   7.091 -1.8857  2.5307 -2.4821
   46CHL1    C4 3335   1.117   5.510   7.357 -0.0321  0.2050 -0.3312
   46CHL1   H4A 3336   1.165   5.422   7.311  1.7080 -0.1891  2.0185
   46CHL1   H4B 3337   1.197   5.588   7.362  0.0647  0.1324 -0.7641
   46CHL1    C5 3338   1.063   5.498   7.503  0.4506 -0.0968  0.1694
   46CHL1    C6 3339   1.129   5.551   7.609  0.0595 -0.8196  0.3087
   46CHL1    H6 3340   1.233   5.584   7.593 -0.7517  1.4023 -0.7377
   46CHL1    C7 3341   1.082   5.546   7.755  0.2508  0.0012  0.0179
   46CHL1   H7A 3342   1.167   5.507   7.816 -0.6256 -2.0890 -0.0421
   46CHL1   H7B 3343   1.049   5.648   7.786 -3.9072 -0.3425 -2.5275
   46CHL1    C8 3344   0.961   5.446   7.768 -0.5739  0.7164  0.1702
   46CHL1    H8 3345   0.998   5.342   7.767 -0.7137  0.6509 -1.9926
   46CHL1   C14 3346   0.892   5.469   7.902 -0.6739  0.3273  0.4659
   46CHL1   H14 3347   0.854   5.573   7.890 -3.2198 -0.7765 -2.5050
   46CHL1   C15 3348   0.969   5.454   8.032  0.2836  0.5771 -0.1843
   46CHL1  H15A 3349   1.030   5.361   8.033  0.7678  0.8756  1.5473
   46CHL1  H15B 3350   1.035   5.542   8.049  1.5370 -0.3820  0.0897
   46CHL1   C16 3351   0.869   5.447   8.148  0.2562  0.6077 -0.3942
   46CHL1  H16A 3352   0.894   5.362   8.216 -0.4046 -0.3830 -1.3525
   46CHL1  H16B 3353   0.867   5.536   8.214 -0.7387  1.9393 -2.1578
   46CHL1   C17 3354   0.731   5.422   8.080 -0.1625  0.0814 -0.3901
   46CHL1   H17 3355   0.675   5.518   8.080 -1.8346 -0.8530  0.3992
   46CHL1   C13 3356   0.763   5.388   7.925  0.1361  0.5230  0.0004
   46CHL1   C18 3357   0.794   5.237   7.922  0.6995 -0.1489  0.1389
   46CHL1  H18A 3358   0.700   5.179   7.931  0.8541 -0.6387 -1.2687
   46CHL1  H18B 3359   0.839   5.205   7.826  1.0071  1.1904 -0.1876
   46CHL1  H18C 3360   0.874   5.207   7.993  1.8022  2.2295  0.0132
   46CHL1   C12 3361   0.665   5.431   7.816 -0.0567  0.1649 -0.3601
   46CHL1  H12A 3362   0.576   5.367   7.832  0.9197 -1.2033 -0.1652
   46CHL1  H12B 3363   0.643   5.539   7.831  0.1964  0.1602  0.0618
   46CHL1   C11 3364   0.727   5.408   7.677  0.4402  0.1428 -0.4748
   46CHL1  H11A 3365   0.730   5.299   7.658 -0.1447  0.1102 -0.4153
   46CHL1  H11B 3366   0.665   5.460   7.600 -0.8154  1.4556  1.3196
   46CHL1    C9 3367   0.868   5.471   7.654  0.7991  1.0453  0.7013
   46CHL1    H9 3368   0.857   5.581   7.649 -0.8402  0.8900  0.5096
   46CHL1   C10 3369   0.923   5.435   7.515  0.2832  0.2820 -0.2928
   46CHL1   C19 3370   0.940   5.282   7.491  0.4946  0.2460  0.0438
   46CHL1  H19A 3371   0.966   5.261   7.385  1.1654 -0.2846  0.3033
   46CHL1  H19B 3372   1.012   5.241   7.566  0.8185  0.4272 -0.1628
   46CHL1  H19C 3373   0.839   5.239   7.503  0.5523 -0.5822 -2.0643
   46CHL1    C1 3374   0.824   5.489   7.406  0.6270  0.5076  1.0329
   46CHL1   H1A 3375   0.739   5.418   7.394  1.3073 -0.1225 -0.2325
   46CHL1   H1B 3376   0.782   5.586   7.441 -0.2008  0.4774  0.1560
   46CHL1    C2 3377   0.878   5.508   7.262  0.0912  0.0242  1.1203
   46CHL1   H2A 3378   0.798   5.568   7.213  2.1376  2.8984  1.0404
   46CHL1   H2B 3379   0.884   5.409   7.212 -1.2497  0.7249 -0.5504
   46CHL1   C20 3380   0.633   5.324   8.158 -0.8487 -0.1292 -0.0439
   46CHL1   H20 3381   0.688   5.227   8.161  1.5352  1.1553  1.4797
   46CHL1   C21 3382   0.496   5.300   8.091  0.2647 -0.6816 -0.1752
   46CHL1  H21A 3383   0.436   5.233   8.156 -0.0900  0.3711  0.6135
   46CHL1  H21B 3384   0.536   5.252   8.000  2.3570 -0.4645  0.5809
   46CHL1  H21C 3385   0.434   5.392   8.086  1.2627 -0.0028 -0.4577
   46CHL1   C22 3386   0.610   5.367   8.305 -0.1784 -0.2619 -0.3611
   46CHL1  H22A 3387   0.697   5.429   8.339  0.1915 -0.9260 -0.0659
   46CHL1  H22B 3388   0.517   5.428   8.306 -0.0112  0.0632 -1.9593
   46CHL1   C23 3389   0.605   5.253   8.408  0.1682 -0.4231  0.4161
   46CHL1  H23A 3390   0.539   5.170   8.376  0.0750 -0.0097 -0.4797
   46CHL1  H23B 3391   0.699   5.193   8.411 -0.5004 -1.5856 -0.7934
   46CHL1   C24 3392   0.567   5.301   8.545 -0.3329 -0.0538  0.0101
   46CHL1  H24A 3393   0.642   5.381   8.564  0.1163 -0.2391 -0.9089
   46CHL1  H24B 3394   0.468   5.347   8.564  0.7984  1.3283  3.3511
   46CHL1   C25 3395   0.590   5.181   8.650  0.5496  0.4480 -0.0407
   46CHL1   H25 3396   0.688   5.134   8.632  1.5606  1.7841  1.6123
   46CHL1   C26 3397   0.602   5.241   8.792 -0.1211 -0.0751 -0.0396
   46CHL1  H26A 3398   0.615   5.161   8.868  1.6026 -0.5810 -0.8200
   46CHL1  H26B 3399   0.690   5.308   8.802  0.1017 -0.6373  2.4876
   46CHL1  H26C 3400   0.519   5.311   8.815 -0.0164  0.5116 -1.3560
   46CHL1   C27 3401   0.469   5.089   8.645 -0.2083  0.4517 -0.5194
   46CHL1  H27A 3402   0.453   5.055   8.541  1.3008 -0.6902 -0.4187
   46CHL1  H27B 3403   0.485   4.999   8.708  1.7697  0.8703 -0.3389
   46CHL1  H27C 3404   0.374   5.137   8.676 -1.7620 -1.7256 -1.6366
   47CHL1    C3 3405   0.409   5.326   6.900  0.6741  0.5524  0.2376
   47CHL1    H3 3406   0.423   5.436   6.914 -2.1149  1.8512 -4.5989
   47CHL1    O3 3407   0.454   5.297   6.771  0.0085  0.6993  0.1743
   47CHL1   H3' 3408   0.410   5.355   6.708 -0.4885 -0.4038 -0.5198
   47CHL1    C4 3409   0.487   5.245   6.995 -0.0598 -0.2659  0.3800
   47CHL1   H4A 3410   0.510   5.149   6.943 -0.8634  0.2923 -1.0694
   47CHL1   H4B 3411   0.587   5.294   6.996  0.1183 -0.4856 -1.7562
   47CHL1    C5 3412   0.435   5.234   7.133 -0.7669  0.5690  0.4960
   47CHL1    C6 3413   0.516   5.269   7.239  0.7974 -0.4035 -0.0845
   47CHL1    H6 3414   0.611   5.316   7.210  0.1140 -0.6168 -2.8929
   47CHL1    C7 3415   0.470   5.280   7.385  0.2483 -0.4231  0.2480
   47CHL1   H7A 3416   0.545   5.226   7.447  1.7352  1.0144 -0.2047
   47CHL1   H7B 3417   0.474   5.386   7.419  1.0648 -0.1611 -0.6319
   47CHL1    C8 3418   0.324   5.230   7.406 -0.2116 -0.0524 -0.2035
   47CHL1    H8 3419   0.325   5.119   7.409 -2.7585 -0.1215  2.1416
   47CHL1   C14 3420   0.267   5.282   7.537 -0.3474  0.4858  0.2523
   47CHL1   H14 3421   0.269   5.392   7.529  0.9651  0.5890  1.6087
   47CHL1   C15 3422   0.348   5.247   7.666 -0.0093 -0.4328  0.1947
   47CHL1  H15A 3423   0.377   5.140   7.673  0.7366 -0.1159  3.9966
   47CHL1  H15B 3424   0.443   5.302   7.683  0.4077 -1.7139  2.3325
   47CHL1   C16 3425   0.254   5.292   7.774  0.1994  0.5667 -0.1645
   47CHL1  H16A 3426   0.248   5.206   7.844 -1.2036 -0.2489 -1.2314
   47CHL1  H16B 3427   0.296   5.385   7.818  1.6300 -1.3805  2.8891
   47CHL1   C17 3428   0.107   5.315   7.709 -0.5372 -0.9028 -0.3038
   47CHL1   H17 3429   0.106   5.424   7.691  0.7770 -0.7211  0.5748
   47CHL1   C13 3430   0.116   5.244   7.568 -0.9388  0.1485 -0.1930
   47CHL1   C18 3431   0.104   5.095   7.586  0.3092  0.4747  0.0877
   47CHL1  H18A 3432  -0.004   5.070   7.591  0.1530  1.3570  1.4836
   47CHL1  H18B 3433   0.153   5.030   7.511 -1.4904 -1.7831  0.7673
   47CHL1  H18C 3434   0.145   5.061   7.683  2.1856 -0.6136 -1.0182
   47CHL1   C12 3435   0.034   5.292   7.444 -0.9512 -0.0201 -0.6074
   47CHL1  H12A 3436  -0.073   5.265   7.458 -0.7110  0.1815  2.3229
   47CHL1  H12B 3437   0.043   5.403   7.445 -0.4371 -0.0546  0.4287
   47CHL1   C11 3438   0.086   5.230   7.317  1.0419  0.3284  0.2472
   47CHL1  H11A 3439   0.070   5.120   7.320 -2.8798  0.7912  0.9570
   47CHL1  H11B 3440   0.024   5.277   7.237  0.9715 -1.7193 -0.9891
   47CHL1    C9 3441   0.233   5.272   7.291 -0.3929  0.0943 -0.0584
   47CHL1    H9 3442   0.230   5.383   7.285  1.4673  0.1217 -1.8534
   47CHL1   C10 3443   0.278   5.228   7.152 -0.2632 -0.1829 -0.4415
   47CHL1   C19 3444   0.257   5.076   7.121 -0.1398 -0.1372  0.4083
   47CHL1  H19A 3445   0.148   5.061   7.104 -0.2303  1.6644 -0.9804
   47CHL1  H19B 3446   0.301   5.051   7.022 -1.4490  0.1509 -0.2773
   47CHL1  H19C 3447   0.291   5.012   7.205  0.2803 -0.2951  0.1196
   47CHL1    C1 3448   0.205   5.314   7.047  0.3159 -0.2269 -0.7186
   47CHL1   H1A 3449   0.096   5.293   7.047  0.5395 -1.4716 -0.3539
   47CHL1   H1B 3450   0.221   5.420   7.075  0.5436 -0.3685 -0.2950
   47CHL1    C2 3451   0.256   5.289   6.906 -0.5877  0.2208  0.6028
   47CHL1   H2A 3452   0.194   5.353   6.839 -1.7974 -0.3325  1.1737
   47CHL1   H2B 3453   0.233   5.187   6.869  0.4703  0.9116 -2.2155
   47CHL1   C20 3454  -0.008   5.278   7.804  0.0791  1.2944 -0.3155
   47CHL1   H20 3455   0.007   5.170   7.827 -1.0320  1.2274  0.1564
   47CHL1   C21 3456  -0.137   5.307   7.740 -0.8345 -0.4972 -0.0377
   47CHL1  H21A 3457  -0.224   5.285   7.805 -0.3533 -1.3141  0.3436
   47CHL1  H21B 3458  -0.150   5.248   7.646  0.6645  0.0511 -0.6154
   47CHL1  H21C 3459  -0.140   5.414   7.711  0.4768 -0.0976  1.2134
   47CHL1   C22 3460  -0.002   5.362   7.944  0.4008  0.3478  0.0816
   47CHL1  H22A 3461   0.030   5.466   7.922 -0.3301  0.2135 -1.8212
   47CHL1  H22B 3462  -0.107   5.360   7.980  0.0303 -0.1409 -0.9789
   47CHL1   C23 3463   0.074   5.288   8.057  0.1379 -0.0911 -0.0048
   47CHL1  H23A 3464   0.032   5.185   8.066  0.1552 -0.0904  0.0789
   47CHL1  H23B 3465   0.184   5.285   8.040  0.3467 -1.3701  1.3769
   47CHL1   C24 3466   0.056   5.354   8.199 -0.0986 -0.8722 -0.4575
   47CHL1  H24A 3467   0.114   5.449   8.190  2.7261 -2.3044  1.3032
   47CHL1  H24B 3468  -0.052   5.374   8.215 -0.1983 -1.1873 -0.7159
   47CHL1   C25 3469   0.128   5.274   8.311 -0.0333 -0.1090  0.2495
   47CHL1   H25 3470   0.223   5.256   8.256 -0.1931 -1.7043  0.4495
   47CHL1   C26 3471   0.155   5.349   8.442 -0.0754  0.0946  0.2289
   47CHL1  H26A 3472   0.058   5.391   8.476 -0.9767 -2.5829  1.3072
   47CHL1  H26B 3473   0.187   5.277   8.521  0.7654 -1.1449 -1.2002
   47CHL1  H26C 3474   0.231   5.429   8.432  1.8200 -1.9138 -3.3587
   47CHL1   C27 3475   0.057   5.137   8.344 -0.4412 -0.1324 -0.3430
   47CHL1  H27A 3476  -0.019   5.154   8.423  1.0392  3.5231  0.5122
   47CHL1  H27B 3477   0.029   5.087   8.249  2.9571  1.5664 -2.4801
   47CHL1  H27C 3478   0.135   5.069   8.385  1.0071 -0.6288 -3.6027
   48CHL1    C3 3479   4.075   0.779   6.366 -0.6027  0.3548 -0.6130
   48CHL1    H3 3480   3.964   0.773   6.365 -0.6546  0.9981 -2.4576
   48CHL1    O3 3481   4.135   0.743   6.244  0.0349 -0.0060 -0.3879
   48CHL1   H3' 3482   4.180   0.659   6.254 -3.8047 -2.3670 -0.8243
   48CHL1    C4 3483   4.118   0.923   6.394 -0.2079  0.3041  0.4890
   48CHL1   H4A 3484   4.228   0.935   6.386  0.2411 -3.3707 -1.0660
   48CHL1   H4B 3485   4.059   0.980   6.320 -2.6219  0.1373  2.1750
   48CHL1    C5 3486   4.067   0.967   6.527 -0.0145  0.4903 -0.6574
   48CHL1    C6 3487   3.981   1.072   6.535 -0.1722  0.1893 -0.7189
   48CHL1    H6 3488   3.951   1.135   6.450 -1.5561 -0.6488 -0.8644
   48CHL1    C7 3489   3.934   1.112   6.676  0.4544 -0.5523  0.7169
   48CHL1   H7A 3490   3.942   1.222   6.682  4.4806 -0.6612  0.1076
   48CHL1   H7B 3491   3.826   1.087   6.689  0.0279  0.4263 -0.7410
   48CHL1    C8 3492   4.026   1.067   6.788  0.5661  0.4611  0.0930
   48CHL1    H8 3493   4.122   1.123   6.782  1.6073 -1.2244  0.3220
   48CHL1   C14 3494   3.966   1.100   6.927 -0.4066  0.3746 -0.2354
   48CHL1   H14 3495   3.872   1.041   6.924 -0.6953  0.8264 -0.2375
   48CHL1   C15 3496   3.932   1.246   6.957 -0.1008 -0.2464 -0.0294
   48CHL1  H15A 3497   4.030   1.298   6.950  1.3339 -2.0621  3.4891
   48CHL1  H15B 3498   3.853   1.278   6.886  0.3725  0.6160 -0.1765
   48CHL1   C16 3499   3.899   1.244   7.103 -0.1956 -0.0006  0.0126
   48CHL1  H16A 3500   3.933   1.341   7.144  1.0436 -0.8078  0.9873
   48CHL1  H16B 3501   3.790   1.239   7.123 -0.0886  0.0234  0.6477
   48CHL1   C17 3502   3.959   1.111   7.165  0.2158 -0.0202 -0.2881
   48CHL1   H17 3503   3.886   1.031   7.189  0.0781  0.1943  0.0056
   48CHL1   C13 3504   4.042   1.054   7.053  0.1393  0.1715  0.3250
   48CHL1   C18 3505   4.188   1.115   7.052  0.0248 -0.6362  0.3043
   48CHL1  H18A 3506   4.257   1.061   7.121  0.8759  0.7183  0.5501
   48CHL1  H18B 3507   4.229   1.097   6.950  0.9192 -3.1908  1.0254
   48CHL1  H18C 3508   4.190   1.221   7.085 -0.3525 -1.3005  2.6368
   48CHL1   C12 3509   4.037   0.902   7.041  0.0158  0.5848  0.0618
   48CHL1  H12A 3510   4.088   0.858   7.129 -0.8190 -0.1690  0.1709
   48CHL1  H12B 3511   3.931   0.872   7.036 -0.2062  1.3626 -0.0205
   48CHL1   C11 3512   4.113   0.858   6.911 -0.0966 -0.3365  0.2150
   48CHL1  H11A 3513   4.217   0.893   6.927  0.1259 -1.8753  2.5462
   48CHL1  H11B 3514   4.111   0.747   6.916  2.5289 -0.4074  0.7049
   48CHL1    C9 3515   4.046   0.915   6.780 -0.4154 -0.1251  0.2899
   48CHL1    H9 3516   3.944   0.876   6.803 -0.4930  0.4887  1.0427
   48CHL1   C10 3517   4.109   0.875   6.643  0.3128 -0.3273  0.4708
   48CHL1   C19 3518   4.265   0.894   6.659  0.0787 -0.0021  0.4859
   48CHL1  H19A 3519   4.285   0.994   6.703  0.3720 -0.9031  2.4911
   48CHL1  H19B 3520   4.290   0.817   6.736 -2.2813 -1.9686 -0.5732
   48CHL1  H19C 3521   4.322   0.874   6.565  0.9436 -0.1167  1.0177
   48CHL1    C1 3522   4.083   0.732   6.612 -0.6265 -0.4399  0.0719
   48CHL1   H1A 3523   4.110   0.665   6.696 -0.1256 -0.3275  0.0012
   48CHL1   H1B 3524   3.972   0.732   6.612 -0.6452  0.9451  0.5532
   48CHL1    C2 3525   4.131   0.684   6.472 -0.1152 -0.0583 -0.0868
   48CHL1   H2A 3526   4.090   0.582   6.454 -1.0478  0.5209 -1.4437
   48CHL1   H2B 3527   4.241   0.671   6.465 -0.1782 -0.3649 -0.5805
   48CHL1   C20 3528   4.019   1.131   7.302 -0.4143 -0.2438  0.3118
   48CHL1   H20 3529   4.103   1.199   7.278  1.3075 -1.5014  2.4233
   48CHL1   C21 3530   4.075   1.006   7.381 -0.3379 -0.0723  0.2569
   48CHL1  H21A 3531   3.996   0.962   7.446  1.1561 -3.2798  0.1144
   48CHL1  H21B 3532   4.145   1.046   7.456  0.5968  0.3135 -0.7928
   48CHL1  H21C 3533   4.126   0.930   7.318  0.4068  0.9965 -0.4657
   48CHL1   C22 3534   3.934   1.226   7.391  0.3402  0.0738  0.1401
   48CHL1  H22A 3535   3.911   1.323   7.343  0.6058 -1.3126 -3.0677
   48CHL1  H22B 3536   3.836   1.175   7.406  1.5194 -2.2377  0.5656
   48CHL1   C23 3537   3.998   1.254   7.529  0.6760  0.7870  0.7679
   48CHL1  H23A 3538   3.991   1.159   7.586 -1.7077 -0.1591 -0.9310
   48CHL1  H23B 3539   4.106   1.269   7.503  0.7823  0.1896  0.8417
   48CHL1   C24 3540   3.928   1.367   7.596 -0.7472 -0.5602  0.4940
   48CHL1  H24A 3541   3.931   1.458   7.532  1.2366 -0.3635  0.7874
   48CHL1  H24B 3542   3.820   1.349   7.613 -0.5030 -0.9119  1.7926
   48CHL1   C25 3543   3.979   1.404   7.737 -0.0309 -0.3358 -0.3664
   48CHL1   H25 3544   4.090   1.397   7.732  0.0467 -1.9310  2.1058
   48CHL1   C26 3545   3.945   1.548   7.780 -0.1337 -0.4003 -0.2762
   48CHL1  H26A 3546   3.966   1.552   7.889 -0.4243 -1.5033 -0.1619
   48CHL1  H26B 3547   4.018   1.621   7.738 -1.3607 -0.2105 -2.2100
   48CHL1  H26C 3548   3.840   1.579   7.764 -0.4215 -0.5573  1.1765
   48CHL1   C27 3549   3.928   1.299   7.837  1.0264  0.2227  0.1154
   48CHL1  H27A 3550   3.972   1.319   7.937  0.2066 -0.5374  0.6450
   48CHL1  H27B 3551   3.819   1.310   7.852  1.2264  0.2365  1.7592
   48CHL1  H27C 3552   3.954   1.195   7.807 -1.1153 -0.6428  1.0668
   49CHL1    C3 3553   3.254   1.667   6.811  0.0308 -0.0365  0.5748
   49CHL1    H3 3554   3.306   1.570   6.823  0.3438 -0.0043 -0.3877
   49CHL1    O3 3555   3.259   1.696   6.670 -0.7030 -0.2719 -0.1012
   49CHL1   H3' 3556   3.258   1.792   6.673 -1.9489 -0.2830  2.1197
   49CHL1    C4 3557   3.110   1.670   6.859  0.2702  0.4484  0.4443
   49CHL1   H4A 3558   3.085   1.776   6.836 -1.3324 -0.1580 -0.7142
   49CHL1   H4B 3559   3.041   1.610   6.797  1.5668  0.5164 -1.1264
   49CHL1    C5 3560   3.114   1.641   7.008 -0.0912  0.2739 -0.7413
   49CHL1    C6 3561   3.048   1.534   7.059  0.1858  0.1815 -0.7297
   49CHL1    H6 3562   2.979   1.479   6.994 -2.3150  1.8636  0.3349
   49CHL1    C7 3563   3.047   1.498   7.207  0.1147  0.4335  0.2117
   49CHL1   H7A 3564   2.943   1.483   7.244  0.7385  1.3165  2.4838
   49CHL1   H7B 3565   3.106   1.406   7.226 -0.2981 -0.0216 -0.6344
   49CHL1    C8 3566   3.087   1.618   7.295 -0.4132  0.3073 -0.0898
   49CHL1    H8 3567   3.011   1.698   7.296 -0.2672  0.4396  1.0440
   49CHL1   C14 3568   3.102   1.578   7.438 -0.3169  0.3557  0.0565
   49CHL1   H14 3569   3.183   1.502   7.444  0.1119  0.8335  0.3107
   49CHL1   C15 3570   2.976   1.518   7.517 -0.8405 -0.4461  1.0207
   49CHL1  H15A 3571   2.897   1.580   7.471  1.0398  0.8229 -0.6612
   49CHL1  H15B 3572   2.958   1.411   7.490  0.1555 -0.9611  2.2586
   49CHL1   C16 3573   3.005   1.535   7.664  0.7253 -0.0139 -0.0486
   49CHL1  H16A 3574   2.932   1.602   7.714  1.2432  0.4288  0.1154
   49CHL1  H16B 3575   2.998   1.442   7.724  0.9682  1.3615  2.2477
   49CHL1   C17 3576   3.138   1.615   7.660 -0.4809  0.4212  0.1795
   49CHL1   H17 3577   3.214   1.534   7.653 -0.5430  0.2922  0.8780
   49CHL1   C13 3578   3.153   1.692   7.525 -0.3939  1.1145  0.0549
   49CHL1   C18 3579   3.060   1.813   7.532 -0.1009 -0.2337  0.2966
   49CHL1  H18A 3580   3.096   1.879   7.614  1.8947 -0.5856 -0.2248
   49CHL1  H18B 3581   3.053   1.861   7.432 -1.8763 -1.3491 -0.1561
   49CHL1  H18C 3582   2.959   1.772   7.550  0.0223 -0.8662 -0.4020
   49CHL1   C12 3583   3.294   1.734   7.484  0.5857 -0.2002  0.2737
   49CHL1  H12A 3584   3.337   1.816   7.547  0.6862  0.9129 -1.2019
   49CHL1  H12B 3585   3.356   1.643   7.496  2.8842  1.3252  0.8699
   49CHL1   C11 3586   3.290   1.784   7.339  0.0270  0.3101  0.3998
   49CHL1  H11A 3587   3.223   1.873   7.346 -1.2301 -0.4049 -1.6547
   49CHL1  H11B 3588   3.394   1.810   7.313  1.3446 -1.6007  3.2319
   49CHL1    C9 3589   3.229   1.679   7.239 -0.6002  0.5540  0.3916
   49CHL1    H9 3590   3.292   1.588   7.227 -2.9104 -0.8624 -2.6703
   49CHL1   C10 3591   3.207   1.729   7.092  0.0989  0.1812  0.0454
   49CHL1   C19 3592   3.152   1.868   7.097  0.4196 -0.5149  0.1215
   49CHL1  H19A 3593   3.215   1.957   7.123 -0.9175  0.2139  0.9666
   49CHL1  H19B 3594   3.105   1.893   6.999 -1.5080 -0.1490  1.0934
   49CHL1  H19C 3595   3.080   1.887   7.179  1.6602  1.7122  0.8067
   49CHL1    C1 3596   3.350   1.744   7.027 -0.6168 -0.4900  0.0107
   49CHL1   H1A 3597   3.397   1.824   7.088 -0.9848 -1.1779  1.2064
   49CHL1   H1B 3598   3.405   1.652   7.056  0.6929  0.1158 -0.4404
   49CHL1    C2 3599   3.348   1.768   6.880 -0.7208 -0.2225 -0.0881
   49CHL1   H2A 3600   3.449   1.760   6.833 -0.4226  0.5072  0.4038
   49CHL1   H2B 3601   3.314   1.872   6.862  0.8230 -0.2162 -3.8607
   49CHL1   C20 3602   3.180   1.684   7.792 -0.2897 -0.3953  0.2927
   49CHL1   H20 3603   3.246   1.769   7.765 -0.7488  0.1578  0.8525
   49CHL1   C21 3604   3.249   1.573   7.872  0.8628  0.0056 -0.9250
   49CHL1  H21A 3605   3.179   1.488   7.880  0.4479  0.4545  0.6409
   49CHL1  H21B 3606   3.266   1.612   7.975 -0.5866  0.4025 -0.8184
   49CHL1  H21C 3607   3.349   1.539   7.838 -0.0862 -2.0636 -1.8284
   49CHL1   C22 3608   3.061   1.763   7.863 -0.1693  0.6455  0.1762
   49CHL1  H22A 3609   3.000   1.832   7.801  0.4662  0.1322 -1.0707
   49CHL1  H22B 3610   3.001   1.675   7.898  0.2259 -0.3000 -1.4147
   49CHL1   C23 3611   3.088   1.826   7.997  0.0759 -0.5033  0.5493
   49CHL1  H23A 3612   3.139   1.761   8.072  0.3709  0.6281  1.3580
   49CHL1  H23B 3613   3.165   1.903   7.976  0.2915 -0.8309  0.1487
   49CHL1   C24 3614   2.962   1.889   8.060  0.7447 -0.1459  0.1032
   49CHL1  H24A 3615   2.932   1.961   7.981 -0.8380  1.0806  1.7216
   49CHL1  H24B 3616   2.880   1.813   8.060  2.1082 -1.8189  3.1649
   49CHL1   C25 3617   2.973   1.954   8.199 -0.5388  0.2900  0.8095
   49CHL1   H25 3618   2.883   2.020   8.199 -1.2700 -0.6476 -0.7612
   49CHL1   C26 3619   2.975   1.839   8.296  0.3179 -0.0210  0.3075
   49CHL1  H26A 3620   3.077   1.797   8.287  1.2718  2.3597 -0.7157
   49CHL1  H26B 3621   2.954   1.873   8.400  0.9315  2.7225 -0.3824
   49CHL1  H26C 3622   2.901   1.761   8.267  1.0895 -0.3778 -0.7672
   49CHL1   C27 3623   3.102   2.037   8.211 -0.3493 -0.2083  0.2422
   49CHL1  H27A 3624   3.096   2.098   8.303  0.4871  0.2336  0.0069
   49CHL1  H27B 3625   3.192   1.972   8.215  0.6415  0.7969 -2.7847
   49CHL1  H27C 3626   3.106   2.114   8.131  0.8478 -0.3869  0.1065
   50CHL1    C3 3627   3.160   3.555   6.874  0.0778  0.5967 -0.1682
   50CHL1    H3 3628   3.082   3.478   6.894 -0.4082  1.0692 -0.2213
   50CHL1    O3 3629   3.190   3.544   6.735  0.2112  0.0956  0.8585
   50CHL1   H3' 3630   3.269   3.597   6.726  0.2299  0.2356  1.7944
   50CHL1    C4 3631   3.120   3.693   6.903  0.1763 -0.8091 -0.6793
   50CHL1   H4A 3632   3.204   3.762   6.881  0.4344 -0.4990  1.0716
   50CHL1   H4B 3633   3.029   3.717   6.844 -0.6162  1.0128  1.1652
   50CHL1    C5 3634   3.087   3.708   7.050 -0.0263  0.0549  0.7560
   50CHL1    C6 3635   2.963   3.742   7.088 -1.0754 -1.0688 -0.3224
   50CHL1    H6 3636   2.885   3.765   7.014  1.4588 -0.1991 -2.9406
   50CHL1    C7 3637   2.936   3.780   7.233 -0.3927  0.1609  0.0458
   50CHL1   H7A 3638   2.881   3.876   7.243 -0.9488 -0.1150 -0.3167
   50CHL1   H7B 3639   2.874   3.696   7.271 -3.2731  1.6552 -1.0729
   50CHL1    C8 3640   3.063   3.776   7.322 -0.4922 -0.1338  0.1114
   50CHL1    H8 3641   3.117   3.870   7.297 -0.0409 -0.2032  0.8012
   50CHL1   C14 3642   3.018   3.767   7.470  0.6918 -1.0193 -0.3444
   50CHL1   H14 3643   2.973   3.666   7.476  0.0910 -0.9772 -2.8227
   50CHL1   C15 3644   2.913   3.879   7.522 -0.3038 -0.1084 -0.2565
   50CHL1  H15A 3645   2.939   3.975   7.472 -0.3402 -0.4102 -0.8723
   50CHL1  H15B 3646   2.809   3.846   7.498 -0.3059  0.5952 -1.2903
   50CHL1   C16 3647   2.926   3.863   7.677 -0.5728  0.8098 -0.6101
   50CHL1  H16A 3648   2.957   3.963   7.715  1.9945  0.7018 -2.2179
   50CHL1  H16B 3649   2.829   3.846   7.729  0.0726  0.6532  0.5840
   50CHL1   C17 3650   3.049   3.769   7.707 -0.0540 -0.6327 -0.4498
   50CHL1   H17 3651   3.007   3.666   7.702 -0.9663 -0.2429 -1.0738
   50CHL1   C13 3652   3.132   3.762   7.575 -0.8467 -0.7887 -0.4856
   50CHL1   C18 3653   3.220   3.895   7.568 -0.0162  0.6216 -0.4739
   50CHL1  H18A 3654   3.304   3.875   7.639 -0.5583  0.6292  0.1825
   50CHL1  H18B 3655   3.260   3.912   7.466  0.2831  0.6313 -0.3558
   50CHL1  H18C 3656   3.160   3.981   7.603  2.4853  2.0955  0.4934
   50CHL1   C12 3657   3.222   3.636   7.548  0.9140  0.5416  0.2364
   50CHL1  H12A 3658   3.297   3.630   7.630 -1.6476  1.0421  2.7868
   50CHL1  H12B 3659   3.147   3.555   7.563 -0.7084  1.8688 -0.3545
   50CHL1   C11 3660   3.265   3.641   7.395 -0.3521  0.3075  0.0556
   50CHL1  H11A 3661   3.345   3.715   7.379  0.6689 -0.9216 -0.7059
   50CHL1  H11B 3662   3.305   3.538   7.384  1.5077  0.8307  1.3437
   50CHL1    C9 3663   3.151   3.653   7.289  0.2071  0.4546  0.2287
   50CHL1    H9 3664   3.085   3.564   7.293 -3.5966  2.8606 -2.3020
   50CHL1   C10 3665   3.199   3.664   7.144 -0.4799  0.2627  0.0552
   50CHL1   C19 3666   3.322   3.766   7.132  0.0198  0.4221  0.0671
   50CHL1  H19A 3667   3.347   3.782   7.025 -0.5108  1.5954  0.1007
   50CHL1  H19B 3668   3.291   3.858   7.186 -1.2128 -0.3306  0.6613
   50CHL1  H19C 3669   3.417   3.733   7.180 -0.0401  1.8924  1.2791
   50CHL1    C1 3670   3.252   3.522   7.105  0.1107 -0.1572 -0.0177
   50CHL1   H1A 3671   3.336   3.495   7.173  0.9063 -3.6636 -2.1600
   50CHL1   H1B 3672   3.176   3.447   7.135 -2.2223  1.7372 -0.8849
   50CHL1    C2 3673   3.284   3.508   6.958  0.2246  0.0030  0.0130
   50CHL1   H2A 3674   3.321   3.413   6.915 -0.8524 -0.1993 -0.5017
   50CHL1   H2B 3675   3.351   3.592   6.931 -2.3517  1.8606 -0.9861
   50CHL1   C20 3676   3.118   3.799   7.842  0.6211 -0.1749 -0.3938
   50CHL1   H20 3677   3.159   3.900   7.823 -0.2917  1.0963  3.4394
   50CHL1   C21 3678   3.235   3.707   7.859 -0.0414 -0.1201  0.1547
   50CHL1  H21A 3679   3.275   3.720   7.962  0.1710 -0.3327  0.0986
   50CHL1  H21B 3680   3.317   3.738   7.791 -1.6764  1.9518 -0.9778
   50CHL1  H21C 3681   3.204   3.600   7.846  2.3124 -0.9145  0.6156
   50CHL1   C22 3682   3.026   3.804   7.966  0.3530 -0.0968 -0.3390
   50CHL1  H22A 3683   2.970   3.900   7.974 -0.4519 -0.6795  1.5421
   50CHL1  H22B 3684   2.952   3.722   7.961 -1.2992  1.3447 -0.6539
   50CHL1   C23 3685   3.097   3.809   8.103 -0.2385  0.3647 -0.5230
   50CHL1  H23A 3686   3.156   3.715   8.113  2.3030  1.9632  0.3847
   50CHL1  H23B 3687   3.155   3.903   8.099  1.4381 -0.6479 -1.2709
   50CHL1   C24 3688   2.994   3.802   8.224 -0.2030  0.6101  0.1604
   50CHL1  H24A 3689   2.920   3.880   8.200  0.1617  1.9033  2.8655
   50CHL1  H24B 3690   2.938   3.706   8.227 -1.5656  1.4228  2.5225
   50CHL1   C25 3691   3.062   3.832   8.357 -0.4152 -0.6212  0.3614
   50CHL1   H25 3692   3.077   3.942   8.355 -0.1512 -0.5478 -4.2737
   50CHL1   C26 3693   2.973   3.793   8.473  0.7577 -0.6975 -0.1295
   50CHL1  H26A 3694   3.014   3.816   8.573  0.1911 -0.1833 -0.0066
   50CHL1  H26B 3695   2.883   3.854   8.447  2.0481  1.8692  1.0549
   50CHL1  H26C 3696   2.950   3.685   8.473  1.7736 -0.9244  0.2424
   50CHL1   C27 3697   3.198   3.754   8.376  0.2119 -0.2917 -0.5052
   50CHL1  H27A 3698   3.238   3.775   8.477 -0.4974  1.6236 -0.5959
   50CHL1  H27B 3699   3.173   3.645   8.373 -0.5234 -0.1502  0.1475
   50CHL1  H27C 3700   3.277   3.781   8.302  0.8222  0.0690  0.2707
   51CHL1    C3 3701   2.955   2.357   7.047  0.1503  0.3989 -1.3435
   51CHL1    H3 3702   2.919   2.462   7.046 -3.0211 -0.5256  0.7586
   51CHL1    O3 3703   2.981   2.320   6.911 -0.0930  0.4037 -0.0813
   51CHL1   H3' 3704   3.070   2.354   6.898  1.0559 -2.2088  0.4346
   51CHL1    C4 3705   3.089   2.352   7.117  0.2425 -0.2485  0.0533
   51CHL1   H4A 3706   3.134   2.253   7.095 -1.6660 -0.9129 -1.0659
   51CHL1   H4B 3707   3.158   2.425   7.069  1.4656 -2.1895 -1.2778
   51CHL1    C5 3708   3.075   2.390   7.267 -0.9293  0.6076  0.0992
   51CHL1    C6 3709   3.141   2.499   7.327  0.4676  0.0029  0.3142
   51CHL1    H6 3710   3.213   2.550   7.261 -0.5508 -0.8039 -1.4728
   51CHL1    C7 3711   3.131   2.527   7.474  0.0914  0.3966  0.2705
   51CHL1   H7A 3712   3.236   2.542   7.509  0.0570  1.2223  0.0421
   51CHL1   H7B 3713   3.088   2.626   7.500  3.2588  2.0968 -0.3964
   51CHL1    C8 3714   3.058   2.418   7.558  0.1919 -0.2738  0.6236
   51CHL1    H8 3715   3.132   2.335   7.570  1.9241  1.0024 -0.8355
   51CHL1   C14 3716   3.015   2.460   7.695 -0.2235 -0.6290  0.2928
   51CHL1   H14 3717   2.938   2.539   7.680  0.8209  0.6392  1.3775
   51CHL1   C15 3718   3.112   2.537   7.789 -0.1081  0.2111  0.4534
   51CHL1  H15A 3719   3.212   2.489   7.788 -0.6623 -0.9782 -0.1044
   51CHL1  H15B 3720   3.127   2.644   7.761 -0.4933 -0.3948 -2.3704
   51CHL1   C16 3721   3.047   2.532   7.928  0.6178  0.5938  0.5428
   51CHL1  H16A 3722   3.120   2.505   8.007  0.1487 -0.9341  0.4886
   51CHL1  H16B 3723   3.009   2.633   7.952 -0.4995  0.1044  0.8863
   51CHL1   C17 3724   2.923   2.435   7.920  0.0215 -0.6566  0.5354
   51CHL1   H17 3725   2.844   2.508   7.893  1.0098  0.0355 -0.5573
   51CHL1   C13 3726   2.952   2.355   7.780  0.2985  0.0780 -0.4411
   51CHL1   C18 3727   3.056   2.247   7.806 -0.2872  0.8478 -0.3453
   51CHL1  H18A 3728   3.087   2.193   7.713  0.6469  1.4526 -0.4022
   51CHL1  H18B 3729   3.151   2.287   7.849 -1.7485  3.4527  0.7049
   51CHL1  H18C 3730   3.013   2.173   7.876  1.8443  0.1562  0.3368
   51CHL1   C12 3731   2.823   2.298   7.712  0.1758 -0.3414  0.7399
   51CHL1  H12A 3732   2.797   2.207   7.769  0.3607 -0.2092  1.0404
   51CHL1  H12B 3733   2.736   2.368   7.715 -0.7105 -1.4114  0.7128
   51CHL1   C11 3734   2.854   2.254   7.568 -0.4272 -0.4744 -0.5299
   51CHL1  H11A 3735   2.910   2.158   7.576 -0.1375 -0.2170  0.8442
   51CHL1  H11B 3736   2.758   2.231   7.516  0.1866 -1.9662 -1.0594
   51CHL1    C9 3737   2.939   2.355   7.483 -0.6612 -0.0838  0.1376
   51CHL1    H9 3738   2.866   2.438   7.473  0.2112  0.6853  0.0626
   51CHL1   C10 3739   2.979   2.299   7.341 -0.2294  0.6923  0.0120
   51CHL1   C19 3740   3.045   2.160   7.351 -0.4252  0.0898  0.6567
   51CHL1  H19A 3741   3.066   2.109   7.254 -0.9787  2.6753 -0.9177
   51CHL1  H19B 3742   3.140   2.164   7.410  1.1980  1.6622 -1.8692
   51CHL1  H19C 3743   2.981   2.079   7.393 -1.0743  0.5959  0.6456
   51CHL1    C1 3744   2.848   2.286   7.264  0.0024  0.0547  0.0543
   51CHL1   H1A 3745   2.774   2.212   7.302 -1.8470  0.7314 -1.9629
   51CHL1   H1B 3746   2.803   2.385   7.289  0.4139 -0.2563  2.2442
   51CHL1    C2 3747   2.861   2.257   7.110  1.3395 -0.1363 -0.7308
   51CHL1   H2A 3748   2.763   2.270   7.059  0.5090 -1.4500  0.4567
   51CHL1   H2B 3749   2.905   2.156   7.094 -1.2111 -1.3070 -0.7792
   51CHL1   C20 3750   2.876   2.360   8.050  1.1297  0.4554  0.1866
   51CHL1   H20 3751   2.958   2.291   8.076 -0.8494 -2.0801  0.0675
   51CHL1   C21 3752   2.746   2.288   8.035  0.6338  0.4790  0.1596
   51CHL1  H21A 3753   2.692   2.262   8.128 -0.3070  2.3203  0.1634
   51CHL1  H21B 3754   2.749   2.193   7.978  2.8290 -0.2778  1.4060
   51CHL1  H21C 3755   2.689   2.372   7.991  2.5114  1.8876  0.2743
   51CHL1   C22 3756   2.866   2.467   8.162 -0.0529  0.9476 -0.5388
   51CHL1  H22A 3757   2.965   2.513   8.180 -0.5203  1.4202  1.0056
   51CHL1  H22B 3758   2.808   2.556   8.130 -1.6407 -0.1896 -0.9799
   51CHL1   C23 3759   2.816   2.402   8.299  0.8968  0.7063 -0.3155
   51CHL1  H23A 3760   2.706   2.388   8.286  0.8508  1.0862 -0.3692
   51CHL1  H23B 3761   2.848   2.296   8.295  0.2518  0.4708  0.4964
   51CHL1   C24 3762   2.875   2.461   8.421  0.8546 -0.1972  0.7258
   51CHL1  H24A 3763   2.986   2.458   8.417  0.8678  0.1190  0.8242
   51CHL1  H24B 3764   2.853   2.569   8.435 -1.3351 -0.5970  0.6885
   51CHL1   C25 3765   2.826   2.406   8.554  0.3457 -0.3763  0.2994
   51CHL1   H25 3766   2.869   2.304   8.563  0.0069 -0.6865 -1.2196
   51CHL1   C26 3767   2.892   2.476   8.671 -0.7540 -0.8431 -0.2997
   51CHL1  H26A 3768   2.861   2.581   8.692  0.9803 -0.4824  0.7560
   51CHL1  H26B 3769   2.891   2.422   8.769  1.4195  1.6608  1.2565
   51CHL1  H26C 3770   2.999   2.492   8.643 -0.6021  0.0530  0.7087
   51CHL1   C27 3771   2.679   2.396   8.557  0.4566  0.4451  0.1902
   51CHL1  H27A 3772   2.632   2.497   8.565  1.8291  1.0818  0.3615
   51CHL1  H27B 3773   2.644   2.349   8.462  2.3493 -0.6595  0.0097
   51CHL1  H27C 3774   2.637   2.330   8.636  1.7863  0.0785  0.6000
   52CHL1    C3 3775   5.419   3.027   7.128  0.1408  0.0121 -0.8056
   52CHL1    H3 3776   5.316   3.047   7.165  0.4159  0.4951 -0.2949
   52CHL1    O3 3777   5.431   3.010   6.988 -0.3067  0.9656  0.8673
   52CHL1   H3' 3778   5.501   2.945   6.978 -0.1286  1.5507 -3.1094
   52CHL1    C4 3779   5.504   3.139   7.172 -0.4713 -0.0049 -0.3640
   52CHL1   H4A 3780   5.610   3.114   7.146  0.0792  2.0221 -0.2427
   52CHL1   H4B 3781   5.489   3.236   7.120 -0.9730  0.2493  0.2497
   52CHL1    C5 3782   5.498   3.165   7.324  0.6810 -1.1601  0.1691
   52CHL1    C6 3783   5.457   3.280   7.386 -0.2737  0.5512  0.1499
   52CHL1    H6 3784   5.420   3.363   7.325 -0.8813 -0.0905 -0.3691
   52CHL1    C7 3785   5.455   3.305   7.535 -0.2076  0.1797  0.9600
   52CHL1   H7A 3786   5.502   3.395   7.578 -0.4449 -0.1178  1.8644
   52CHL1   H7B 3787   5.350   3.320   7.568 -0.1888 -0.8235  1.5063
   52CHL1    C8 3788   5.526   3.188   7.611  0.5807  0.0034  0.4285
   52CHL1    H8 3789   5.635   3.207   7.605  1.0929 -2.8226 -0.6953
   52CHL1   C14 3790   5.488   3.184   7.763 -0.1556  0.1932  0.4471
   52CHL1   H14 3791   5.378   3.169   7.770 -0.1480  0.4476  1.0745
   52CHL1   C15 3792   5.515   3.313   7.840  0.5613 -0.4581  0.3824
   52CHL1  H15A 3793   5.606   3.366   7.804  0.6481 -1.0977 -0.3779
   52CHL1  H15B 3794   5.432   3.380   7.811  0.9379 -0.5728 -1.0454
   52CHL1   C16 3795   5.537   3.269   7.987 -0.1112 -0.2432 -0.3012
   52CHL1  H16A 3796   5.641   3.297   8.012  1.5684 -4.3229 -1.8916
   52CHL1  H16B 3797   5.471   3.316   8.063  1.6188 -1.3781  2.0118
   52CHL1   C17 3798   5.520   3.111   7.990  0.4140 -0.2550  0.4305
   52CHL1   H17 3799   5.411   3.097   8.006  0.5544 -0.6690  1.0577
   52CHL1   C13 3800   5.552   3.074   7.843 -0.3907  0.6029  0.1153
   52CHL1   C18 3801   5.714   3.082   7.832  0.3086 -0.5936  0.2819
   52CHL1  H18A 3802   5.759   3.075   7.731  1.8307  3.0015  0.5621
   52CHL1  H18B 3803   5.752   3.180   7.867 -1.7074  0.6406 -0.7741
   52CHL1  H18C 3804   5.745   2.998   7.898  1.2984 -1.7739 -1.6087
   52CHL1   C12 3805   5.514   2.938   7.793  0.8977  0.0691 -1.3430
   52CHL1  H12A 3806   5.572   2.851   7.831  0.6545  0.0175 -1.0869
   52CHL1  H12B 3807   5.408   2.923   7.822  1.5827 -0.7800  0.9060
   52CHL1   C11 3808   5.548   2.934   7.642  0.5218 -0.0428 -0.4421
   52CHL1  H11A 3809   5.658   2.927   7.634  0.5066 -0.4657 -0.3253
   52CHL1  H11B 3810   5.500   2.840   7.607 -0.4067  0.2246  0.0449
   52CHL1    C9 3811   5.490   3.050   7.550 -0.5122  0.5301  0.5637
   52CHL1    H9 3812   5.380   3.053   7.542 -0.5258  1.8997  0.9169
   52CHL1   C10 3813   5.530   3.040   7.405 -0.4482  1.1346 -0.1359
   52CHL1   C19 3814   5.678   3.011   7.394  0.7218  0.4927 -0.4488
   52CHL1  H19A 3815   5.737   3.085   7.452 -1.8228  2.2141  0.0877
   52CHL1  H19B 3816   5.702   2.910   7.433  0.5655  1.2943  1.8686
   52CHL1  H19C 3817   5.719   3.013   7.291  2.9773  0.2904  0.3862
   52CHL1    C1 3818   5.449   2.918   7.347 -0.1343 -0.0035  0.6494
   52CHL1   H1A 3819   5.467   2.827   7.408  2.8801 -0.4610 -0.7257
   52CHL1   H1B 3820   5.339   2.924   7.362 -0.5008 -2.1199 -0.7198
   52CHL1    C2 3821   5.462   2.898   7.199  0.2102 -0.4651  0.6884
   52CHL1   H2A 3822   5.400   2.818   7.152 -0.6439  1.3599 -1.5180
   52CHL1   H2B 3823   5.568   2.876   7.174 -0.3663 -0.5251 -2.1105
   52CHL1   C20 3824   5.588   3.028   8.102 -0.1857 -0.9878  0.1408
   52CHL1   H20 3825   5.681   2.973   8.075  2.0780  2.8697 -0.6368
   52CHL1   C21 3826   5.482   2.926   8.163  0.5789 -0.5424 -0.2436
   52CHL1  H21A 3827   5.530   2.846   8.224  1.2161 -1.4578 -1.9034
   52CHL1  H21B 3828   5.430   2.882   8.076 -1.3535  0.7933  0.1870
   52CHL1  H21C 3829   5.414   2.989   8.225  1.3276  2.8042 -2.5597
   52CHL1   C22 3830   5.639   3.130   8.212 -0.1926  0.2174  0.2104
   52CHL1  H22A 3831   5.732   3.188   8.193  0.1850  0.6101  2.8294
   52CHL1  H22B 3832   5.560   3.204   8.234  0.7314  1.7111 -1.2627
   52CHL1   C23 3833   5.679   3.065   8.345 -0.3847  0.6162  0.0626
   52CHL1  H23A 3834   5.598   3.017   8.404  0.6662 -0.4581  0.6828
   52CHL1  H23B 3835   5.749   2.981   8.321 -1.4317 -1.4125  3.4012
   52CHL1   C24 3836   5.749   3.163   8.440 -0.0931  0.1181  0.2096
   52CHL1  H24A 3837   5.785   3.103   8.526  0.3909 -1.2107 -0.8937
   52CHL1  H24B 3838   5.841   3.208   8.398 -0.6460 -0.6506 -1.9748
   52CHL1   C25 3839   5.662   3.283   8.481  0.4007  0.8593  0.4363
   52CHL1   H25 3840   5.643   3.341   8.388 -2.2038 -1.6390 -0.7484
   52CHL1   C26 3841   5.517   3.244   8.529  0.4374  0.5745  0.4067
   52CHL1  H26A 3842   5.457   3.190   8.452  1.2514 -0.6585  0.6080
   52CHL1  H26B 3843   5.518   3.182   8.621 -0.9090  1.7445  1.2280
   52CHL1  H26C 3844   5.469   3.344   8.531  1.2010  1.1163 -2.6024
   52CHL1   C27 3845   5.735   3.371   8.585 -0.1008  0.4493  0.4373
   52CHL1  H27A 3846   5.671   3.459   8.607 -0.7405  0.2899 -0.7098
   52CHL1  H27B 3847   5.764   3.312   8.675 -0.5347  0.3255  0.4957
   52CHL1  H27C 3848   5.819   3.417   8.528 -0.8139  3.0370  1.3371
   53CHL1    C3 3849   1.194   6.667   7.279 -0.5458  0.1383 -0.4834
   53CHL1    H3 3850   1.275   6.739   7.254  1.1217 -1.1464  1.0306
   53CHL1    O3 3851   1.137   6.605   7.162  0.0240 -0.6501 -0.6243
   53CHL1   H3' 3852   1.113   6.675   7.102 -0.7727  0.0656  0.4772
   53CHL1    C4 3853   1.248   6.558   7.373 -1.0930 -0.2926 -0.0106
   53CHL1   H4A 3854   1.166   6.483   7.381  0.0461 -1.9163 -2.3642
   53CHL1   H4B 3855   1.332   6.508   7.322 -0.7081  0.6369 -0.3090
   53CHL1    C5 3856   1.295   6.614   7.511 -0.0180 -0.7642  0.1599
   53CHL1    C6 3857   1.419   6.602   7.554 -0.5266 -0.1464 -0.0696
   53CHL1    H6 3858   1.497   6.559   7.488  0.0653  0.9428 -0.0935
   53CHL1    C7 3859   1.472   6.651   7.689  0.6263  0.3758 -0.0717
   53CHL1   H7A 3860   1.524   6.573   7.749  0.4395 -1.3512 -2.0570
   53CHL1   H7B 3861   1.539   6.738   7.672  0.4126  1.0863  2.2701
   53CHL1    C8 3862   1.348   6.691   7.775 -0.5628 -0.3793  0.2657
   53CHL1    H8 3863   1.304   6.594   7.806 -1.1738 -0.6908 -1.4584
   53CHL1   C14 3864   1.394   6.759   7.897  0.2507 -0.2163 -0.2156
   53CHL1   H14 3865   1.425   6.857   7.854 -1.9401  0.0314 -1.3478
   53CHL1   C15 3866   1.505   6.696   7.986  0.0869  0.7591 -0.1491
   53CHL1  H15A 3867   1.466   6.596   8.015 -0.5123  0.7964 -0.8074
   53CHL1  H15B 3868   1.601   6.682   7.933  1.0821 -0.4238  1.8360
   53CHL1   C16 3869   1.498   6.770   8.118  0.2768 -0.5407  0.0435
   53CHL1  H16A 3870   1.484   6.697   8.200 -0.8828 -2.1025 -1.4601
   53CHL1  H16B 3871   1.586   6.834   8.141  0.3664 -0.1898 -1.2108
   53CHL1   C17 3872   1.371   6.860   8.110 -0.1304  0.8081  0.4710
   53CHL1   H17 3873   1.404   6.954   8.060 -1.6849  1.1481  0.0415
   53CHL1   C13 3874   1.280   6.798   8.001 -0.1937  0.6867 -0.3028
   53CHL1   C18 3875   1.211   6.666   8.053 -0.0255  0.1852  0.4840
   53CHL1  H18A 3876   1.137   6.703   8.126 -2.3468 -2.0110 -0.5965
   53CHL1  H18B 3877   1.159   6.609   7.974 -1.4637  1.5587  0.3947
   53CHL1  H18C 3878   1.287   6.609   8.111  2.0375  0.8330 -1.4129
   53CHL1   C12 3879   1.182   6.892   7.930  0.0243  0.2169  0.2183
   53CHL1  H12A 3880   1.095   6.912   7.997  0.0979  1.5791 -0.0671
   53CHL1  H12B 3881   1.235   6.988   7.915 -2.1386  1.2606 -1.1125
   53CHL1   C11 3882   1.135   6.828   7.795 -0.7110 -0.1555 -0.1652
   53CHL1  H11A 3883   1.086   6.735   7.831 -1.2638  0.1037 -0.2507
   53CHL1  H11B 3884   1.065   6.893   7.738  0.2907  0.3734 -0.8151
   53CHL1    C9 3885   1.245   6.775   7.699  0.4522 -0.0237 -0.1550
   53CHL1    H9 3886   1.313   6.855   7.664  0.1267 -0.6946 -2.4807
   53CHL1   C10 3887   1.180   6.699   7.581 -0.2411  0.0223  0.6876
   53CHL1   C19 3888   1.085   6.584   7.625 -0.0779 -0.7011 -0.3516
   53CHL1  H19A 3889   1.037   6.527   7.543 -1.2375 -0.6757  0.2946
   53CHL1  H19B 3890   1.139   6.514   7.692 -1.1332 -0.4940  0.7470
   53CHL1  H19C 3891   0.998   6.623   7.681 -0.7014 -1.1967 -0.9636
   53CHL1    C1 3892   1.105   6.800   7.484 -0.7647  0.2726 -0.3359
   53CHL1   H1A 3893   1.005   6.809   7.530 -0.5881  1.8923 -0.2132
   53CHL1   H1B 3894   1.144   6.904   7.493 -0.3358  0.2347 -1.4874
   53CHL1    C2 3895   1.082   6.745   7.341  0.5202 -0.1681  0.0800
   53CHL1   H2A 3896   1.046   6.833   7.284 -1.3776 -0.5852  0.5714
   53CHL1   H2B 3897   0.991   6.686   7.366 -2.0010  2.4459 -2.2098
   53CHL1   C20 3898   1.319   6.891   8.249  0.1142 -0.0355  0.3762
   53CHL1   H20 3899   1.252   6.812   8.289 -1.0054  1.2982  1.2295
   53CHL1   C21 3900   1.227   7.019   8.236 -0.8443 -0.3517  1.1897
   53CHL1  H21A 3901   1.141   6.998   8.169  0.6064  1.6769 -1.5298
   53CHL1  H21B 3902   1.289   7.093   8.181  0.7647  0.0062  3.3432
   53CHL1  H21C 3903   1.187   7.067   8.327 -0.6779  3.3878 -0.5160
   53CHL1   C22 3904   1.434   6.939   8.345 -0.9164 -0.3341 -0.2744
   53CHL1  H22A 3905   1.517   6.866   8.347  0.0991  0.7785  2.4027
   53CHL1  H22B 3906   1.468   7.035   8.302  0.5415 -1.2819 -1.3558
   53CHL1   C23 3907   1.394   6.943   8.498 -0.1632  0.1692  0.1225
   53CHL1  H23A 3908   1.341   7.040   8.513 -0.1581  0.1342  0.3757
   53CHL1  H23B 3909   1.319   6.861   8.506  0.0278  0.0100  0.2851
   53CHL1   C24 3910   1.509   6.930   8.586 -0.1869 -0.0713  0.2529
   53CHL1  H24A 3911   1.538   6.826   8.561 -0.7413 -0.2743  0.4378
   53CHL1  H24B 3912   1.596   6.994   8.561  0.6744 -1.0063  0.7962
   53CHL1   C25 3913   1.473   6.931   8.734 -0.2157 -0.2343  0.1845
   53CHL1   H25 3914   1.376   6.877   8.744  1.3013 -3.2256 -0.0415
   53CHL1   C26 3915   1.591   6.862   8.803  0.2196  0.0710 -0.0393
   53CHL1  H26A 3916   1.690   6.908   8.784 -0.0406 -0.1035 -2.0384
   53CHL1  H26B 3917   1.559   6.869   8.909 -2.2006 -0.6057 -0.6704
   53CHL1  H26C 3918   1.598   6.754   8.778 -0.3368  0.3416 -1.4480
   53CHL1   C27 3919   1.458   7.077   8.780 -0.7675 -0.4345 -0.6745
   53CHL1  H27A 3920   1.541   7.145   8.750  0.6686 -1.2398  1.2886
   53CHL1  H27B 3921   1.359   7.117   8.748 -0.6618 -1.6652 -2.7526
   53CHL1  H27C 3922   1.451   7.084   8.891  0.1390  0.1484 -0.6409
   54CHL1    C3 3923   1.347   1.598   7.042  0.1221  0.3165  0.6109
   54CHL1    H3 3924   1.306   1.696   7.072 -0.0973  0.5175 -0.3091
   54CHL1    O3 3925   1.322   1.597   6.905 -0.1638 -0.0042 -0.4099
   54CHL1   H3' 3926   1.374   1.527   6.866 -0.0789  0.7887 -1.8146
   54CHL1    C4 3927   1.492   1.562   7.077 -0.2721  0.8292  0.3111
   54CHL1   H4A 3928   1.510   1.459   7.042 -1.4479  0.5033  0.6143
   54CHL1   H4B 3929   1.555   1.631   7.016  0.1574 -0.1837 -0.4010
   54CHL1    C5 3930   1.514   1.568   7.227  0.1553 -0.2162  0.5840
   54CHL1    C6 3931   1.582   1.673   7.284  0.5408  0.8410 -0.2341
   54CHL1    H6 3932   1.630   1.749   7.221 -1.4078  1.0421 -1.5732
   54CHL1    C7 3933   1.607   1.691   7.434  0.4385 -0.0156  0.2647
   54CHL1   H7A 3934   1.709   1.727   7.456 -0.4224  2.8279 -0.0029
   54CHL1   H7B 3935   1.543   1.771   7.477 -2.6013 -2.4086  0.6062
   54CHL1    C8 3936   1.585   1.559   7.505  0.0302 -0.0583 -0.4665
   54CHL1    H8 3937   1.674   1.498   7.477  1.1264  0.6011  1.3767
   54CHL1   C14 3938   1.579   1.584   7.657 -0.3053  0.9872 -0.2312
   54CHL1   H14 3939   1.492   1.652   7.670 -1.2085 -0.3163  0.7852
   54CHL1   C15 3940   1.703   1.643   7.729 -0.2883  1.1280  0.3525
   54CHL1  H15A 3941   1.798   1.594   7.700 -1.1189 -0.4339  0.1489
   54CHL1  H15B 3942   1.712   1.752   7.711 -0.8886  0.9346 -1.3056
   54CHL1   C16 3943   1.681   1.612   7.877  0.4499  0.4553  0.3453
   54CHL1  H16A 3944   1.766   1.562   7.928 -1.7582 -0.2511  3.7192
   54CHL1  H16B 3945   1.664   1.704   7.937 -0.6091  0.6550 -0.2281
   54CHL1   C17 3946   1.561   1.513   7.883 -0.0087 -0.0286  0.2314
   54CHL1   H17 3947   1.471   1.574   7.906  0.1844  0.5097 -0.3999
   54CHL1   C13 3948   1.538   1.465   7.739 -0.4679  0.0271 -0.1002
   54CHL1   C18 3949   1.643   1.351   7.714  0.2764 -0.0416 -0.0777
   54CHL1  H18A 3950   1.739   1.370   7.766 -0.6685  2.0474  0.9965
   54CHL1  H18B 3951   1.609   1.254   7.755 -0.3720  1.3475  2.8832
   54CHL1  H18C 3952   1.676   1.337   7.608  1.5374 -1.8227  0.4915
   54CHL1   C12 3953   1.392   1.423   7.691 -0.1728  0.3569  0.5233
   54CHL1  H12A 3954   1.351   1.344   7.757 -1.8378  1.1436  0.4732
   54CHL1  H12B 3955   1.323   1.511   7.692  0.3392  0.8355 -1.5637
   54CHL1   C11 3956   1.395   1.382   7.550  0.4570 -0.4740  0.2998
   54CHL1  H11A 3957   1.453   1.287   7.540 -0.3873 -1.1409  1.4748
   54CHL1  H11B 3958   1.291   1.358   7.520 -0.1270  1.6163  0.5360
   54CHL1    C9 3959   1.447   1.493   7.456 -0.6374 -0.1617 -0.0675
   54CHL1    H9 3960   1.385   1.582   7.480  0.8090  1.1906 -1.1244
   54CHL1   C10 3961   1.431   1.464   7.306 -0.3840  0.2180  0.2782
   54CHL1   C19 3962   1.499   1.328   7.284 -0.3624  0.4018 -0.3137
   54CHL1  H19A 3963   1.604   1.328   7.322 -1.5384  0.1733  3.2575
   54CHL1  H19B 3964   1.442   1.248   7.335  1.1729 -0.8694 -0.5140
   54CHL1  H19C 3965   1.484   1.308   7.176 -2.7988 -0.4810  0.1422
   54CHL1    C1 3966   1.287   1.472   7.262  0.1980  0.0942  0.0062
   54CHL1   H1A 3967   1.230   1.380   7.289  0.1608  0.9194  3.1595
   54CHL1   H1B 3968   1.243   1.554   7.322  1.3049  1.7249 -1.3292
   54CHL1    C2 3969   1.260   1.492   7.112  0.2209 -0.5838  0.2863
   54CHL1   H2A 3970   1.151   1.512   7.099  0.1815  1.7573  3.0730
   54CHL1   H2B 3971   1.278   1.398   7.055 -0.4591  0.8800 -2.5482
   54CHL1   C20 3972   1.568   1.406   7.990  0.1303 -0.2533  0.2781
   54CHL1   H20 3973   1.644   1.327   7.974  0.6722  0.4989 -1.0052
   54CHL1   C21 3974   1.427   1.333   8.000 -0.5091 -0.1241  0.6434
   54CHL1  H21A 3975   1.400   1.272   7.912 -1.4247  2.0696 -0.6673
   54CHL1  H21B 3976   1.356   1.417   8.016  0.1430  0.6550 -0.4968
   54CHL1  H21C 3977   1.414   1.265   8.088 -1.6875  1.5601  1.8390
   54CHL1   C22 3978   1.613   1.473   8.118  0.1410 -0.0115 -0.4622
   54CHL1  H22A 3979   1.708   1.530   8.110  0.1178 -0.0590 -1.2078
   54CHL1  H22B 3980   1.541   1.552   8.149 -0.4356 -0.2480 -1.1695
   54CHL1   C23 3981   1.631   1.373   8.231 -0.0851 -0.2561 -0.3787
   54CHL1  H23A 3982   1.533   1.328   8.257 -0.4977  0.5165 -0.5784
   54CHL1  H23B 3983   1.692   1.286   8.198  0.5690  0.1580 -0.2683
   54CHL1   C24 3984   1.690   1.444   8.357  0.4329  0.3833 -0.3663
   54CHL1  H24A 3985   1.787   1.496   8.338  1.8972 -2.6878 -2.2105
   54CHL1  H24B 3986   1.619   1.526   8.381  1.3774  0.8719  0.9129
   54CHL1   C25 3987   1.713   1.351   8.482  0.4260  0.5401  0.0317
   54CHL1   H25 3988   1.740   1.251   8.442  0.4592  0.2785  0.7072
   54CHL1   C26 3989   1.824   1.403   8.569  0.1829  0.3522  0.0055
   54CHL1  H26A 3990   1.916   1.398   8.506  0.0023 -0.7702 -0.1919
   54CHL1  H26B 3991   1.801   1.508   8.599  2.6478  0.6605  1.0678
   54CHL1  H26C 3992   1.837   1.341   8.659 -0.5252 -0.0751 -0.1767
   54CHL1   C27 3993   1.578   1.344   8.561 -0.1739 -0.9397  0.1137
   54CHL1  H27A 3994   1.544   1.435   8.615 -0.8014 -2.7666  3.0029
   54CHL1  H27B 3995   1.496   1.307   8.495 -0.8390  1.9779 -0.8381
   54CHL1  H27C 3996   1.595   1.272   8.643  1.5507 -2.1908 -1.2619
   55CHL1    C3 3997   0.886   1.670   7.192 -0.4746 -0.5508 -0.1289
   55CHL1    H3 3998   0.987   1.717   7.199  0.0701 -1.5262 -1.0236
   55CHL1    O3 3999   0.860   1.635   7.058 -0.2434  0.3114  0.3750
   55CHL1   H3' 4000   0.859   1.715   7.005 -0.2562 -2.4698 -4.4173
   55CHL1    C4 4001   0.893   1.549   7.282  0.1564 -0.1342  0.0697
   55CHL1   H4A 4002   0.812   1.473   7.283  2.8097 -3.1779  1.6902
   55CHL1   H4B 4003   0.969   1.487   7.232  2.0558  1.8306  0.3538
   55CHL1    C5 4004   0.912   1.581   7.429  0.8683  0.3458  0.2730
   55CHL1    C6 4005   1.019   1.525   7.493  0.2304  0.1336 -0.2656
   55CHL1    H6 4006   1.089   1.462   7.434  0.7671  1.5097 -1.1424
   55CHL1    C7 4007   1.058   1.561   7.641  1.1645  0.4724  0.1851
   55CHL1   H7A 4008   1.115   1.477   7.686  0.5965  1.0246  1.9958
   55CHL1   H7B 4009   1.127   1.647   7.627  1.8673 -0.4158 -2.5916
   55CHL1    C8 4010   0.924   1.606   7.719  0.5189 -0.2125  0.7758
   55CHL1    H8 4011   0.846   1.527   7.722 -0.8582  1.1260  1.2323
   55CHL1   C14 4012   0.955   1.648   7.861 -0.6985  0.2527 -0.2716
   55CHL1   H14 4013   1.028   1.733   7.856 -0.1071 -0.0789  1.9558
   55CHL1   C15 4014   1.029   1.546   7.950  0.0380 -0.0752  0.4422
   55CHL1  H15A 4015   0.962   1.461   7.926  0.1029  0.1669 -0.6280
   55CHL1  H15B 4016   1.136   1.525   7.927 -0.1334  0.1101 -0.5629
   55CHL1   C16 4017   1.005   1.597   8.091 -0.1436  0.3778  0.8774
   55CHL1  H16A 4018   0.943   1.525   8.149  1.2433  0.0603  2.0395
   55CHL1  H16B 4019   1.103   1.619   8.139  1.1688  2.6321 -2.4695
   55CHL1   C17 4020   0.924   1.734   8.072 -0.0519 -0.1916 -1.1289
   55CHL1   H17 4021   1.007   1.805   8.048 -0.0950  0.2733  0.0349
   55CHL1   C13 4022   0.842   1.709   7.942  0.5753  0.5469 -0.1684
   55CHL1   C18 4023   0.733   1.605   7.969 -0.0264  0.3729 -0.2017
   55CHL1  H18A 4024   0.647   1.645   8.028 -0.0945 -0.7659  0.5006
   55CHL1  H18B 4025   0.693   1.559   7.876 -1.0870 -1.4414  1.0876
   55CHL1  H18C 4026   0.770   1.519   8.029 -1.4028  0.0690  0.2597
   55CHL1   C12 4027   0.786   1.830   7.867  0.1197  0.0513 -0.5275
   55CHL1  H12A 4028   0.699   1.876   7.919  0.8206 -0.8922  1.6191
   55CHL1  H12B 4029   0.873   1.895   7.844  1.5162 -1.6821 -0.4078
   55CHL1   C11 4030   0.732   1.792   7.721  0.1327 -0.1087  0.9345
   55CHL1  H11A 4031   0.645   1.724   7.730 -0.7844  1.0490  0.9933
   55CHL1  H11B 4032   0.687   1.887   7.684  0.7438  0.7590  2.3424
   55CHL1    C9 4033   0.850   1.717   7.637  0.1711 -0.5441 -0.1410
   55CHL1    H9 4034   0.930   1.792   7.620 -0.0729 -0.3228 -0.3097
   55CHL1   C10 4035   0.813   1.679   7.491 -0.2618 -0.1583  0.8798
   55CHL1   C19 4036   0.669   1.627   7.484 -0.2083 -0.0168 -0.4966
   55CHL1  H19A 4037   0.665   1.524   7.526 -1.1976 -1.4776 -3.8497
   55CHL1  H19B 4038   0.589   1.692   7.525 -1.2184  0.3217 -2.8606
   55CHL1  H19C 4039   0.635   1.605   7.380  0.3955  2.2990 -1.2355
   55CHL1    C1 4040   0.821   1.810   7.395  0.1420  0.2879  0.0645
   55CHL1   H1A 4041   0.759   1.889   7.444  0.7690  0.4636  0.5943
   55CHL1   H1B 4042   0.921   1.855   7.410  0.1613  1.1842 -2.2956
   55CHL1    C2 4043   0.792   1.781   7.246 -0.1882  0.6434  0.5129
   55CHL1   H2A 4044   0.808   1.873   7.185 -3.1995  1.2115  0.4106
   55CHL1   H2B 4045   0.688   1.742   7.248  0.1034 -0.2697  4.2398
   55CHL1   C20 4046   0.860   1.778   8.200 -0.1610 -0.0347 -0.0487
   55CHL1   H20 4047   0.769   1.716   8.217  1.4372 -1.8195  2.9458
   55CHL1   C21 4048   0.825   1.927   8.182 -0.1947  0.0010  0.8535
   55CHL1  H21A 4049   0.779   1.972   8.272 -0.2973 -2.4623  2.1082
   55CHL1  H21B 4050   0.749   1.935   8.101  0.5600 -1.8690 -0.0927
   55CHL1  H21C 4051   0.919   1.979   8.153  0.4097 -1.7943 -0.6376
   55CHL1   C22 4052   0.946   1.758   8.327 -0.0944  0.0065  1.1554
   55CHL1  H22A 4053   1.005   1.664   8.319 -1.5890 -0.8598 -0.3291
   55CHL1  H22B 4054   1.021   1.839   8.321 -0.6295  0.5477  1.6973
   55CHL1   C23 4055   0.861   1.754   8.456 -0.1051  0.7467  0.1902
   55CHL1  H23A 4056   0.812   1.853   8.463  0.2720  0.8724  1.1967
   55CHL1  H23B 4057   0.779   1.680   8.440  0.4986  0.2055 -0.4636
   55CHL1   C24 4058   0.939   1.726   8.586  0.1843  0.2611 -0.7213
   55CHL1  H24A 4059   1.002   1.816   8.606 -2.1035  2.1066 -1.4508
   55CHL1  H24B 4060   0.865   1.728   8.669  1.7720 -0.6851  0.8006
   55CHL1   C25 4061   1.019   1.605   8.605 -0.2223  0.6335 -0.2360
   55CHL1   H25 4062   1.107   1.606   8.537 -0.0618 -2.2823 -0.1951
   55CHL1   C26 4063   1.084   1.599   8.754 -0.9883  0.0250  0.2889
   55CHL1  H26A 4064   1.008   1.620   8.833  1.2852  0.3674  2.5087
   55CHL1  H26B 4065   1.148   1.509   8.758 -3.7326 -2.0615  0.4136
   55CHL1  H26C 4066   1.152   1.686   8.756  0.4771 -1.1087  1.5313
   55CHL1   C27 4067   0.936   1.476   8.586  0.1207 -0.1599  0.3415
   55CHL1  H27A 4068   0.865   1.472   8.671 -0.5715  2.1815 -0.0366
   55CHL1  H27B 4069   0.874   1.491   8.495 -0.4622  2.7493  1.1064
   55CHL1  H27C 4070   0.981   1.375   8.582 -3.7611 -2.0140 -2.8509
   56CHL1    C3 4071   0.115   6.695   7.052  0.6230  0.0600  0.0722
   56CHL1    H3 4072   0.044   6.780   7.059  0.2545 -0.3766  3.8776
   56CHL1    O3 4073   0.143   6.656   6.920 -0.1077  0.2871 -0.2926
   56CHL1   H3' 4074   0.234   6.677   6.898 -0.5939  1.9641 -0.8337
   56CHL1    C4 4075   0.247   6.744   7.111  0.3130 -0.2850 -0.0004
   56CHL1   H4A 4076   0.326   6.669   7.090  0.6006  0.1315 -0.4063
   56CHL1   H4B 4077   0.272   6.837   7.057  0.2608 -0.0705  0.3422
   56CHL1    C5 4078   0.234   6.781   7.260  0.1987 -0.0676 -0.5305
   56CHL1    C6 4079   0.261   6.907   7.306  0.4063 -0.2525  0.7999
   56CHL1    H6 4080   0.292   6.990   7.242 -0.9983 -0.3121  0.0131
   56CHL1    C7 4081   0.235   6.949   7.450 -0.0815  0.0067  0.2178
   56CHL1   H7A 4082   0.317   7.017   7.483  1.7818 -3.0121  2.3120
   56CHL1   H7B 4083   0.137   6.998   7.464 -0.5672 -1.3005  1.6140
   56CHL1    C8 4084   0.239   6.822   7.537 -0.3735  0.3501  0.3358
   56CHL1    H8 4085   0.342   6.780   7.538 -0.7943 -0.7325  1.2565
   56CHL1   C14 4086   0.192   6.860   7.673  0.5665  0.4809  0.7282
   56CHL1   H14 4087   0.084   6.886   7.669  0.8887  1.7388 -0.1020
   56CHL1   C15 4088   0.252   6.985   7.746  0.2053 -0.0162  0.1391
   56CHL1  H15A 4089   0.358   6.984   7.710  0.0189  1.6859 -0.5753
   56CHL1  H15B 4090   0.208   7.077   7.703 -0.2418  0.4155  1.4998
   56CHL1   C16 4091   0.233   6.965   7.894  0.3681 -0.0628 -0.1342
   56CHL1  H16A 4092   0.335   6.947   7.934 -1.1785 -1.1474  3.8220
   56CHL1  H16B 4093   0.179   7.051   7.939 -0.2139 -0.8228  0.6610
   56CHL1   C17 4094   0.150   6.837   7.907  0.1410  0.1332 -0.1858
   56CHL1   H17 4095   0.045   6.869   7.891 -0.0322 -0.8025 -1.0486
   56CHL1   C13 4096   0.193   6.754   7.782 -0.5203  0.3802  0.2813
   56CHL1   C18 4097   0.344   6.710   7.810  0.2671 -0.3414 -0.1156
   56CHL1  H18A 4098   0.407   6.802   7.817 -2.9514  1.9269  1.5914
   56CHL1  H18B 4099   0.355   6.654   7.906  2.7832  0.9355  0.4631
   56CHL1  H18C 4100   0.379   6.645   7.728 -2.8155 -1.6117 -0.5459
   56CHL1   C12 4101   0.104   6.640   7.743 -0.7151 -0.1202 -0.5641
   56CHL1  H12A 4102   0.141   6.559   7.810 -0.8956  0.6551  0.5069
   56CHL1  H12B 4103  -0.005   6.659   7.751 -0.7195 -0.0088 -0.8989
   56CHL1   C11 4104   0.145   6.594   7.599 -0.6477  0.2430 -0.2099
   56CHL1  H11A 4105   0.243   6.546   7.618 -1.2950 -0.4117  1.6763
   56CHL1  H11B 4106   0.077   6.512   7.565 -1.3421  0.2421  1.1072
   56CHL1    C9 4107   0.147   6.706   7.494 -0.8646 -0.8370  0.3802
   56CHL1    H9 4108   0.041   6.738   7.485 -0.9674 -1.2308  0.1645
   56CHL1   C10 4109   0.184   6.665   7.351 -0.0538  0.2370  0.4123
   56CHL1   C19 4110   0.302   6.564   7.356 -0.6074  0.5925  0.3773
   56CHL1  H19A 4111   0.345   6.534   7.258  2.3628 -0.4017  1.8569
   56CHL1  H19B 4112   0.389   6.605   7.413 -0.4224 -0.2852  0.7366
   56CHL1  H19C 4113   0.274   6.468   7.405 -0.6404  0.4202  0.0200
   56CHL1    C1 4114   0.049   6.610   7.283 -0.3158  0.0904  0.2150
   56CHL1   H1A 4115   0.016   6.524   7.345 -0.3728 -0.7596 -0.9463
   56CHL1   H1B 4116  -0.021   6.696   7.282  0.3206  0.6239 -1.0321
   56CHL1    C2 4117   0.066   6.571   7.136 -0.3485 -0.5126 -0.1605
   56CHL1   H2A 4118  -0.028   6.549   7.081  0.7033  1.8020 -3.1483
   56CHL1   H2B 4119   0.153   6.504   7.115 -0.1554 -0.3807  0.2135
   56CHL1   C20 4120   0.159   6.771   8.046  0.5701 -0.1220  0.2211
   56CHL1   H20 4121   0.261   6.731   8.066  1.5395  2.7570  1.5754
   56CHL1   C21 4122   0.035   6.669   8.062  0.6182  0.3877  0.0803
   56CHL1  H21A 4123   0.042   6.625   8.163  1.0442  1.6664  0.6262
   56CHL1  H21B 4124   0.039   6.596   7.978  2.4179 -0.8565  1.2016
   56CHL1  H21C 4125  -0.055   6.734   8.056  1.6752  1.7895 -2.3794
   56CHL1   C22 4126   0.143   6.879   8.155  0.5236 -0.1416  0.4300
   56CHL1  H22A 4127   0.232   6.945   8.143  0.2435  0.1654  0.0352
   56CHL1  H22B 4128   0.050   6.939   8.142 -0.6064 -1.8967  0.1146
   56CHL1   C23 4129   0.139   6.827   8.291 -0.0810  0.0702 -0.1346
   56CHL1  H23A 4130   0.048   6.765   8.305  0.1516 -0.2356  0.0226
   56CHL1  H23B 4131   0.228   6.761   8.293  1.1098  1.6430  1.3556
   56CHL1   C24 4132   0.147   6.929   8.407  0.1407 -0.2963 -0.0029
   56CHL1  H24A 4133   0.053   6.989   8.406  0.5337  0.3680 -2.4259
   56CHL1  H24B 4134   0.158   6.865   8.497  4.9234 -1.1449 -0.9002
   56CHL1   C25 4135   0.282   7.010   8.403 -0.0169  0.5718 -0.4415
   56CHL1   H25 4136   0.295   7.060   8.305 -0.6489 -2.1872 -2.0488
   56CHL1   C26 4137   0.285   7.114   8.516  0.0373 -0.0220  0.1151
   56CHL1  H26A 4138   0.296   7.064   8.615 -2.5826  0.3413  0.6689
   56CHL1  H26B 4139   0.185   7.162   8.520  0.6293  1.3068 -0.4943
   56CHL1  H26C 4140   0.363   7.193   8.511  0.0786 -0.0758 -0.1121
   56CHL1   C27 4141   0.407   6.922   8.425  1.2399  0.1348  0.3133
   56CHL1  H27A 4142   0.429   6.859   8.336 -0.1415  0.5240 -0.3471
   56CHL1  H27B 4143   0.491   6.990   8.448  0.1813  1.4652  0.3501
   56CHL1  H27C 4144   0.389   6.857   8.514 -1.4151  1.5223  0.9084
   57SAPC     N 4145   0.045   5.432  11.071  0.1043  0.2996 -0.0464
   57SAPC   C12 4146   0.096   5.437  10.933 -0.0770 -0.1807 -0.2336
   57SAPC  H12A 4147   0.199   5.468  10.927  0.1053  0.0376  2.5276
   57SAPC  H12B 4148   0.038   5.513  10.883  0.0411 -0.2822 -0.5260
   57SAPC   C13 4149  -0.106   5.445  11.077  0.0006  0.4852  0.2279
   57SAPC  H13A 4150  -0.141   5.544  11.055  1.4685  0.9750  0.0287
   57SAPC  H13B 4151  -0.156   5.374  11.012 -1.9213  2.4512 -0.5499
   57SAPC  H13C 4152  -0.140   5.417  11.176 -4.2921  1.6468 -0.7060
   57SAPC   C14 4153   0.088   5.304  11.136 -0.9193  0.0215  0.0978
   57SAPC  H14A 4154   0.195   5.297  11.141 -0.9605 -1.4519 -0.6036
   57SAPC  H14B 4155   0.061   5.311  11.240  3.1862  1.8760  1.2113
   57SAPC  H14C 4156   0.046   5.219  11.083 -0.2909  0.3005 -0.8817
   57SAPC   C15 4157   0.113   5.539  11.160  0.5714 -0.9055 -0.3662
   57SAPC  H15A 4158   0.080   5.636  11.124 -2.1235 -0.6318  2.4198
   57SAPC  H15B 4159   0.097   5.527  11.266  1.1833 -1.6886 -0.3588
   57SAPC  H15C 4160   0.220   5.536  11.149  1.1030  0.5349  3.1741
   57SAPC   C11 4161   0.080   5.309  10.851  0.9012  0.4734  0.1909
   57SAPC  H11A 4162   0.140   5.232  10.903  0.5095  0.4166  0.5621
   57SAPC  H11B 4163   0.126   5.318  10.750  0.9534  1.0942  0.2617
   57SAPC     P 4164  -0.110   5.129  10.837 -0.0470 -0.1070 -0.2145
   57SAPC   O13 4165   0.006   5.039  10.845  0.2088 -0.4250 -0.3905
   57SAPC   O14 4166  -0.215   5.125  10.947  0.1711  0.1189  0.0246
   57SAPC   O12 4167  -0.063   5.279  10.831  0.3660 -0.5106  0.2141
   57SAPC   O11 4168  -0.180   5.096  10.694 -0.1519  0.5079  0.0350
   57SAPC    C1 4169  -0.275   5.180  10.632  0.2158 -0.3044  1.2025
   57SAPC    HA 4170  -0.375   5.191  10.680 -1.3063  0.7072 -1.9186
   57SAPC    HB 4171  -0.230   5.281  10.629  0.5167 -0.4499  0.7955
   57SAPC    C2 4172  -0.304   5.127  10.482 -0.1604 -0.2299 -0.4862
   57SAPC    HS 4173  -0.362   5.039  10.515 -2.2077  2.0233  2.5793
   57SAPC   O21 4174  -0.184   5.092  10.410  0.6535  0.0702  0.4200
   57SAPC   C21 4175  -0.088   5.181  10.393 -0.3305 -0.1827  0.6368
   57SAPC   O22 4176  -0.096   5.299  10.432  0.2016 -0.9431  0.3320
   57SAPC   C22 4177   0.035   5.128  10.320 -1.1655  0.2985  0.6003
   57SAPC   H2R 4178   0.128   5.158  10.374 -1.5414  1.7968  0.4524
   57SAPC   H2S 4179   0.028   5.017  10.322 -1.4965  0.2353 -1.5252
   57SAPC    C3 4180  -0.393   5.230  10.411 -0.2031  0.1919 -0.4335
   57SAPC    HX 4181  -0.358   5.333  10.435  0.8415 -0.0809 -0.7040
   57SAPC    HY 4182  -0.488   5.221  10.466 -0.0892 -0.4434 -0.3343
   57SAPC   O31 4183  -0.397   5.214  10.270 -0.1202  0.1894 -0.4182
   57SAPC   C31 4184  -0.464   5.115  10.234  0.0910  0.7887  0.3425
   57SAPC   O32 4185  -0.526   5.033  10.301  0.0847 -0.6530 -0.0037
   57SAPC   C32 4186  -0.461   5.111  10.078  0.0205 -0.5777  0.4601
   57SAPC   H2X 4187  -0.505   5.208  10.045  1.9195  0.4802  0.8601
   57SAPC   H2Y 4188  -0.525   5.030  10.038 -1.7484  0.5850  0.8320
   57SAPC   C23 4189   0.069   5.168  10.168  0.6466 -0.2968  0.2918
   57SAPC   H3R 4190   0.110   5.271  10.165 -3.0402  1.2889 -0.7361
   57SAPC   H3S 4191  -0.024   5.193  10.113  1.5693  0.2418 -1.1071
   57SAPC   C24 4192   0.151   5.069  10.089 -0.4798 -0.3381  0.4282
   57SAPC   H4R 4193   0.123   5.105   9.987 -0.1263 -0.3910  0.3101
   57SAPC   H4S 4194   0.104   4.969  10.100 -1.1292 -0.4726 -2.5752
   57SAPC   C25 4195   0.302   5.078  10.122  0.1049  0.1225  0.1026
   57SAPC   H5R 4196   0.316   5.049  10.227 -0.1799  3.5731  1.2006
   57SAPC   C26 4197   0.405   5.114  10.039  0.5879 -0.0634  0.0260
   57SAPC   H6R 4198   0.506   5.120  10.084  0.2412 -1.3881  1.0677
   57SAPC   C27 4199   0.406   5.154   9.896 -0.4150  0.3600 -0.6938
   57SAPC   H7R 4200   0.457   5.253   9.897 -1.0462  0.6946  0.8044
   57SAPC   H7S 4201   0.302   5.182   9.872 -0.7353 -0.6829 -0.5581
   57SAPC   C28 4202   0.465   5.045   9.805 -0.2226 -0.1195 -0.3844
   57SAPC   H8R 4203   0.457   4.945   9.850  0.8193  0.6429  1.6307
   57SAPC   C29 4204   0.525   5.053   9.681  0.8895 -0.2006 -0.7726
   57SAPC   H9R 4205   0.586   4.966   9.651  1.1975  0.2390 -1.4223
   57SAPC  C210 4206   0.549   5.188   9.620  0.2903  0.3030  0.2298
   57SAPC  H10R 4207   0.619   5.240   9.690  1.4739 -1.0902  0.1158
   57SAPC  H10S 4208   0.460   5.254   9.622  0.2402  0.2910  3.0620
   57SAPC  C211 4209   0.620   5.174   9.482 -0.0236  0.2736 -0.4810
   57SAPC  H11R 4210   0.730   5.169   9.482 -0.0168  0.4388 -0.2540
   57SAPC  C212 4211   0.563   5.150   9.365 -0.2849 -0.9995 -0.5433
   57SAPC  H12R 4212   0.625   5.149   9.274  0.1290  2.8004 -0.4851
   57SAPC  C213 4213   0.409   5.140   9.343  0.8655  0.5599  0.5252
   57SAPC  H13R 4214   0.372   5.204   9.260 -0.8254 -1.0320 -0.0295
   57SAPC  H13S 4215   0.351   5.171   9.433 -0.4524  1.4702 -0.5907
   57SAPC  C214 4216   0.369   4.999   9.320  0.2383  0.2194  0.0585
   57SAPC  H14R 4217   0.385   4.933   9.407  0.6445  0.0700 -0.1238
   57SAPC  C215 4218   0.328   4.958   9.196  0.1611 -0.2601  0.1827
   57SAPC  H15R 4219   0.299   4.852   9.192  0.7781 -0.5496  2.1780
   57SAPC  C216 4220   0.312   5.034   9.061  0.7883 -1.1122 -0.0812
   57SAPC  H16R 4221   0.357   4.974   8.979 -1.9801 -2.3516 -0.8059
   57SAPC  H16S 4222   0.369   5.130   9.065 -0.3456 -0.4743  2.6899
   57SAPC  C217 4223   0.162   5.061   9.022 -0.3697  0.7454  0.1285
   57SAPC  H17R 4224   0.120   5.136   9.093  3.4218  0.2746  3.2554
   57SAPC  H17S 4225   0.106   4.967   9.040  0.2155  0.3679  0.0061
   57SAPC  C218 4226   0.142   5.123   8.884  0.2824  0.4722 -0.6891
   57SAPC  H18R 4227   0.178   5.053   8.805  2.2601  1.4545 -0.7239
   57SAPC  H18S 4228   0.211   5.209   8.871  0.0222  0.6273 -1.0745
   57SAPC  C219 4229   0.002   5.165   8.856 -0.4900 -0.2529 -0.5560
   57SAPC  H19R 4230   0.014   5.249   8.784 -1.0410 -1.5403 -2.2279
   57SAPC  H19S 4231  -0.041   5.213   8.946  0.1002 -1.2541  0.2795
   57SAPC  C220 4232  -0.086   5.063   8.783 -0.4896 -0.0552  0.3989
   57SAPC  H20R 4233  -0.038   5.032   8.688 -0.2787 -1.4380  0.9362
   57SAPC  H20S 4234  -0.190   5.096   8.764 -0.0193  1.7480  0.6988
   57SAPC  H20T 4235  -0.082   4.970   8.843  0.0274  0.5000  1.2596
   57SAPC   C33 4236  -0.321   5.094  10.015 -0.1033  0.2520 -0.4432
   57SAPC   H3X 4237  -0.277   4.995  10.039  1.8480  0.9585 -0.8646
   57SAPC   H3Y 4238  -0.249   5.172  10.049  0.8949  1.2627 -4.3535
   57SAPC   C34 4239  -0.325   5.098   9.865 -0.2179  0.0474  0.0789
   57SAPC   H4X 4240  -0.377   5.188   9.827  1.4199  1.6903  1.5336
   57SAPC   H4Y 4241  -0.376   5.005   9.834  0.5737  0.1726 -1.7406
   57SAPC   C35 4242  -0.177   5.089   9.819  0.6253 -0.6422 -0.8707
   57SAPC   H5X 4243  -0.122   5.007   9.869 -1.2294 -1.3255  0.1654
   57SAPC   H5Y 4244  -0.137   5.184   9.860 -1.8102  0.7195 -1.4142
   57SAPC   C36 4245  -0.153   5.066   9.668 -0.0672  0.0931  0.5377
   57SAPC   H6X 4246  -0.168   4.958   9.648 -1.2281  0.2173  0.6833
   57SAPC   H6Y 4247  -0.049   5.094   9.640 -1.0987  3.1609 -0.6836
   57SAPC   C37 4248  -0.240   5.150   9.574  0.2565  0.3803  0.8175
   57SAPC   H7X 4249  -0.216   5.257   9.594  1.2600  0.4460 -0.5895
   57SAPC   H7Y 4250  -0.349   5.141   9.588 -0.1737  0.6108 -1.8937
   57SAPC   C38 4251  -0.213   5.110   9.425  0.1628 -0.9593  0.4881
   57SAPC   H8X 4252  -0.198   5.001   9.414  1.4673 -0.6718 -0.8665
   57SAPC   H8Y 4253  -0.120   5.164   9.398  0.0512 -0.2510  1.4616
   57SAPC   C39 4254  -0.316   5.170   9.326 -0.6624 -0.4041 -0.8868
   57SAPC   H9X 4255  -0.317   5.280   9.342  0.8919 -0.4898  0.0092
   57SAPC   H9Y 4256  -0.412   5.124   9.357 -0.1232 -2.4294 -2.0786
   57SAPC  C310 4257  -0.288   5.136   9.182  0.0495 -0.1752  0.7907
   57SAPC  H10X 4258  -0.299   5.026   9.186 -1.5399 -0.0367  0.6273
   57SAPC  H10Y 4259  -0.186   5.169   9.152 -0.0858 -0.2193  0.2812
   57SAPC  C311 4260  -0.379   5.195   9.079 -0.0004  0.2063  0.0414
   57SAPC  H11X 4261  -0.485   5.208   9.109  0.1015 -0.4295  0.6989
   57SAPC  H11Y 4262  -0.385   5.133   8.987 -1.0845  0.2844  0.0565
   57SAPC  C312 4263  -0.338   5.340   9.040 -0.2286  0.0781 -0.0208
   57SAPC  H12X 4264  -0.232   5.336   9.006 -0.4720 -2.5609 -0.6446
   57SAPC  H12Y 4265  -0.332   5.408   9.129  1.2593  0.2939 -0.2599
   57SAPC  C313 4266  -0.427   5.379   8.933  0.4360 -0.3057  0.2509
   57SAPC  H13X 4267  -0.528   5.403   8.973  0.5828  2.8391 -0.9423
   57SAPC  H13Y 4268  -0.442   5.296   8.861  1.6795 -2.7567  2.6643
   57SAPC  C314 4269  -0.378   5.507   8.861 -0.0328  0.3763  0.1152
   57SAPC  H14X 4270  -0.341   5.576   8.939  0.7219 -0.9065  0.9274
   57SAPC  H14Y 4271  -0.467   5.548   8.808 -0.5105 -1.5539 -0.6675
   57SAPC  C315 4272  -0.260   5.485   8.761  0.2113 -0.3341  0.4212
   57SAPC  H15X 4273  -0.283   5.403   8.690 -0.5451 -0.6976  1.0675
   57SAPC  H15Y 4274  -0.166   5.449   8.807  1.1448  1.1401 -0.2565
   57SAPC  C316 4275  -0.232   5.602   8.669  0.0979 -0.7877  0.7195
   57SAPC  H16X 4276  -0.192   5.682   8.735  0.8700 -0.5746  0.0209
   57SAPC  H16Y 4277  -0.325   5.626   8.613  0.0140  0.5542  1.3873
   57SAPC  C317 4278  -0.135   5.562   8.553 -0.7479  0.2828 -0.1267
   57SAPC  H17X 4279  -0.189   5.494   8.483 -0.9116 -1.0042  1.2075
   57SAPC  H17Y 4280  -0.067   5.502   8.617 -1.7793  0.7311  1.4560
   57SAPC  C318 4281  -0.061   5.674   8.482 -0.4127  0.1281 -0.6564
   57SAPC  H18X 4282  -0.132   5.758   8.466 -1.2432 -0.4522 -0.1284
   57SAPC  H18Y 4283   0.004   5.635   8.401  0.1374  0.6646 -0.4808
   57SAPC  H18Z 4284   0.006   5.714   8.560 -0.5643 -1.8987  0.5846
   58SAPC     N 4285   3.238   2.800  11.106 -0.5407 -0.4937  0.8699
   58SAPC   C12 4286   3.342   2.760  10.999 -0.5898 -0.3721 -0.0301
   58SAPC  H12A 4287   3.440   2.779  11.042  0.3998 -0.0927 -2.2679
   58SAPC  H12B 4288   3.347   2.831  10.918  1.4531 -0.7007 -0.2656
   58SAPC   C13 4289   3.259   2.939  11.148 -0.6215 -0.0089 -0.4829
   58SAPC  H13A 4290   3.172   2.974  11.201 -0.7130 -0.9578  0.0200
   58SAPC  H13B 4291   3.348   2.952  11.207  0.2802  0.8450 -1.9611
   58SAPC  H13C 4292   3.262   2.999  11.058  0.3453  0.9251  0.1523
   58SAPC   C14 4293   3.107   2.777  11.045 -0.2540 -0.1661 -0.5289
   58SAPC  H14A 4294   3.031   2.804  11.117  0.9278  1.6541  0.1173
   58SAPC  H14B 4295   3.100   2.833  10.953 -0.6255  1.7018  0.5854
   58SAPC  H14C 4296   3.093   2.673  11.019  0.5710 -0.4606  0.1523
   58SAPC   C15 4297   3.251   2.711  11.228 -0.0480  0.1631  0.5135
   58SAPC  H15A 4298   3.225   2.607  11.220 -0.6609  0.2917  0.7977
   58SAPC  H15B 4299   3.354   2.718  11.260  0.0190 -2.9774  1.3151
   58SAPC  H15C 4300   3.192   2.753  11.308  2.3866  2.0059  1.4732
   58SAPC   C11 4301   3.352   2.618  10.943  0.8774  0.6104  0.3897
   58SAPC  H11A 4302   3.346   2.555  11.034  0.2899  1.0387  0.6566
   58SAPC  H11B 4303   3.449   2.578  10.908 -1.3196 -5.2323 -0.2830
   58SAPC     P 4304   3.237   2.679  10.714 -0.0891  0.0884 -0.0817
   58SAPC   O13 4305   3.190   2.593  10.598 -0.2107  0.0490  0.6373
   58SAPC   O14 4306   3.163   2.806  10.744 -0.7025  0.1160 -0.1741
   58SAPC   O12 4307   3.240   2.591  10.846  0.5663 -0.5560  0.2934
   58SAPC   O11 4308   3.390   2.717  10.693  0.6407 -0.2190 -0.1363
   58SAPC    C1 4309   3.474   2.636  10.613  0.1682  0.1842 -0.3445
   58SAPC    HA 4310   3.527   2.557  10.670  3.4453  2.0403 -0.5445
   58SAPC    HB 4311   3.426   2.589  10.524 -1.0645 -0.3491  0.5801
   58SAPC    C2 4312   3.585   2.726  10.548  0.2408 -0.8163 -0.1444
   58SAPC    HS 4313   3.628   2.779  10.636  0.5517 -1.4213  0.0676
   58SAPC   O21 4314   3.516   2.820  10.459  0.2560 -0.6518  0.2335
   58SAPC   C21 4315   3.576   2.935  10.432 -0.7502 -0.1792 -0.4345
   58SAPC   O22 4316   3.675   2.984  10.480 -0.8514 -0.0944  0.1489
   58SAPC   C22 4317   3.492   3.004  10.327  1.2488 -0.2258 -0.5092
   58SAPC   H2R 4318   3.389   3.017  10.367  1.9725  1.7538  0.8282
   58SAPC   H2S 4319   3.539   3.105  10.327 -2.2700  1.5919  0.9258
   58SAPC    C3 4320   3.688   2.646  10.476  0.5707 -0.3403  0.4320
   58SAPC    HX 4321   3.746   2.584  10.548  1.7143  0.7458  0.4984
   58SAPC    HY 4322   3.764   2.716  10.435  0.5083  0.0376  0.9378
   58SAPC   O31 4323   3.631   2.566  10.370 -0.0078  0.3983 -0.1262
   58SAPC   C31 4324   3.716   2.492  10.292 -0.5527  0.4073 -0.1216
   58SAPC   O32 4325   3.837   2.497  10.311 -0.3615  0.0552 -0.0425
   58SAPC   C32 4326   3.649   2.422  10.176 -0.2603  0.5637 -0.4756
   58SAPC   H2X 4327   3.539   2.433  10.191 -0.0205  2.1184  0.3283
   58SAPC   H2Y 4328   3.674   2.314  10.179 -0.1440  0.5732 -1.0188
   58SAPC   C23 4329   3.499   2.926  10.189  0.6445 -0.2048  0.0552
   58SAPC   H3R 4330   3.465   2.998  10.112  0.9998  1.0635  1.0379
   58SAPC   H3S 4331   3.423   2.846  10.196  1.8212 -1.7034 -2.9253
   58SAPC   C24 4332   3.640   2.874  10.144  0.1501  0.2047 -0.0124
   58SAPC   H4R 4333   3.618   2.844  10.040  1.8990  1.0324 -0.6515
   58SAPC   H4S 4334   3.674   2.781  10.194  1.5979 -0.0254 -1.3412
   58SAPC   C25 4335   3.755   2.977  10.149  0.0817  0.4912 -0.4483
   58SAPC   H5R 4336   3.777   3.024  10.246 -1.8403 -1.5440  1.0696
   58SAPC   C26 4337   3.817   3.027  10.038 -0.2619  0.3724 -0.0775
   58SAPC   H6R 4338   3.896   3.102  10.054 -1.2711  1.1820  1.2669
   58SAPC   C27 4339   3.792   2.991   9.893 -0.3674  1.0380  0.1804
   58SAPC   H7R 4340   3.856   3.049   9.823  0.0803 -1.4872 -1.6262
   58SAPC   H7S 4341   3.692   3.023   9.859  0.4192  1.5423 -1.7757
   58SAPC   C28 4342   3.800   2.847   9.861  0.3193  0.5665  0.3108
   58SAPC   H8R 4343   3.833   2.780   9.941 -0.8500  0.2952  0.5931
   58SAPC   C29 4344   3.769   2.785   9.741  0.4691  0.5069 -0.6256
   58SAPC   H9R 4345   3.794   2.679   9.725  1.3638  0.4402  0.9411
   58SAPC  C210 4346   3.715   2.857   9.622 -0.1769  0.0516  0.2655
   58SAPC  H10R 4347   3.751   2.962   9.621  0.4953 -0.1577 -1.4926
   58SAPC  H10S 4348   3.604   2.865   9.628 -0.0112  2.1301  1.2238
   58SAPC  C211 4349   3.749   2.783   9.493 -0.0556 -0.1318 -0.4356
   58SAPC  H11R 4350   3.703   2.684   9.481 -0.9165  0.2430 -0.3028
   58SAPC  C212 4351   3.806   2.838   9.383  0.0705 -0.4920  0.5142
   58SAPC  H12R 4352   3.808   2.773   9.295 -3.0550 -0.6190  0.4353
   58SAPC  C213 4353   3.847   2.984   9.365 -0.4535 -0.7194 -0.9840
   58SAPC  H13R 4354   3.782   3.062   9.411  0.1487  0.7255 -2.4851
   58SAPC  H13S 4355   3.832   2.995   9.256 -1.9316  1.7022 -0.6104
   58SAPC  C214 4356   3.986   3.011   9.397 -0.6679 -0.9852 -0.3567
   58SAPC  H14R 4357   4.020   2.995   9.501 -1.7841  0.7573  0.3302
   58SAPC  C215 4358   4.082   3.063   9.313 -0.3898  0.1085  0.5417
   58SAPC  H15R 4359   4.184   3.081   9.350 -0.0683 -0.1445 -0.2073
   58SAPC  C216 4360   4.068   3.092   9.167  0.7098 -0.6541 -0.3077
   58SAPC  H16R 4361   4.135   3.179   9.148 -0.5906  0.6938  0.9765
   58SAPC  H16S 4362   3.964   3.131   9.158  0.8156 -0.4073 -0.4658
   58SAPC  C217 4363   4.114   2.984   9.076 -0.3744 -0.7953  0.6048
   58SAPC  H17R 4364   4.060   2.889   9.093 -0.9302 -0.9050 -1.4983
   58SAPC  H17S 4365   4.223   2.969   9.094 -0.5614 -3.2996  0.0611
   58SAPC  C218 4366   4.095   3.018   8.923  0.7220 -0.1390  0.0149
   58SAPC  H18R 4367   4.124   2.926   8.867  0.3848 -0.9651  1.1639
   58SAPC  H18S 4368   4.167   3.098   8.896  0.2572  0.2648 -0.0305
   58SAPC  C219 4369   3.956   3.057   8.875  0.5393 -1.2914  0.0251
   58SAPC  H19R 4370   3.941   3.165   8.895  0.9908 -0.4916 -3.3657
   58SAPC  H19S 4371   3.879   3.000   8.932 -0.1952 -0.7476 -0.3941
   58SAPC  C220 4372   3.935   3.046   8.726 -0.8133 -0.0035 -0.0431
   58SAPC  H20R 4373   3.832   3.070   8.693 -1.2784 -1.8008  0.0327
   58SAPC  H20S 4374   3.966   2.948   8.685 -2.3617 -0.6216  0.2178
   58SAPC  H20T 4375   4.005   3.116   8.675  0.3450 -1.9989 -1.3258
   58SAPC   C33 4376   3.694   2.468  10.037  0.3586  0.0049  0.5640
   58SAPC   H3X 4377   3.800   2.442  10.016  0.7183  0.4398  1.7623
   58SAPC   H3Y 4378   3.672   2.576  10.025  0.7402  0.1214  0.8992
   58SAPC   C34 4379   3.611   2.382   9.932  0.1188 -0.2286  0.7065
   58SAPC   H4X 4380   3.502   2.380   9.956  0.0959  0.1291  0.6508
   58SAPC   H4Y 4381   3.642   2.276   9.940  1.0177 -0.0228  0.0068
   58SAPC   C35 4382   3.633   2.431   9.786  0.2419  0.4342 -0.2585
   58SAPC   H5X 4383   3.741   2.454   9.778  0.1982  1.2333  1.0663
   58SAPC   H5Y 4384   3.577   2.525   9.766 -0.5136 -0.5971 -3.5842
   58SAPC   C36 4385   3.589   2.344   9.663  0.3335  0.4213  0.3916
   58SAPC   H6X 4386   3.482   2.313   9.668  1.0627 -2.9670 -1.9142
   58SAPC   H6Y 4387   3.630   2.241   9.674 -1.6921 -0.6215 -1.1478
   58SAPC   C37 4388   3.648   2.399   9.539  0.1793 -0.6761 -0.4689
   58SAPC   H7X 4389   3.758   2.410   9.543  0.0770  0.3287  2.5456
   58SAPC   H7Y 4390   3.602   2.500   9.528  1.1398 -0.2298 -0.4807
   58SAPC   C38 4391   3.612   2.312   9.414 -0.0653 -0.6916 -1.1047
   58SAPC   H8X 4392   3.505   2.286   9.418 -1.0830  2.9458  2.4227
   58SAPC   H8Y 4393   3.676   2.223   9.429 -0.0647 -0.3564  1.4557
   58SAPC   C39 4394   3.653   2.389   9.291  1.3786 -0.4114  0.0756
   58SAPC   H9X 4395   3.612   2.492   9.283  2.9890  0.1548 -1.7674
   58SAPC   H9Y 4396   3.615   2.337   9.201  0.7864 -0.2468  0.2308
   58SAPC  C310 4397   3.807   2.386   9.272 -0.3519 -0.8201  0.3802
   58SAPC  H10X 4398   3.852   2.287   9.294 -1.1635 -1.5314 -1.0861
   58SAPC  H10Y 4399   3.847   2.453   9.352 -2.5601  0.5128  0.4428
   58SAPC  C311 4400   3.854   2.441   9.133 -0.2543 -0.1919 -0.1615
   58SAPC  H11X 4401   3.963   2.459   9.143 -0.7724  2.0578  2.4993
   58SAPC  H11Y 4402   3.798   2.537   9.129  0.3873  0.1870 -0.2150
   58SAPC  C312 4403   3.818   2.365   9.009  0.4964 -0.5998 -0.5965
   58SAPC  H12X 4404   3.710   2.366   8.982  0.5826  2.6724 -1.1896
   58SAPC  H12Y 4405   3.864   2.264   9.019  1.0589 -0.3439 -0.5748
   58SAPC  C313 4406   3.875   2.436   8.879 -0.2970  0.2807  0.6028
   58SAPC  H13X 4407   3.863   2.364   8.796 -0.2016 -0.2262  1.0197
   58SAPC  H13Y 4408   3.986   2.444   8.886 -0.3595  1.8193  0.1582
   58SAPC  C314 4409   3.825   2.580   8.850 -0.0113 -0.5106 -0.6869
   58SAPC  H14X 4410   3.848   2.647   8.935 -3.8303  0.5650 -0.3372
   58SAPC  H14Y 4411   3.714   2.583   8.843 -0.1439 -0.1676  1.0988
   58SAPC  C315 4412   3.879   2.644   8.721 -0.1861  0.2757 -0.7427
   58SAPC  H15X 4413   3.988   2.652   8.737 -0.3444  0.5385  0.2410
   58SAPC  H15Y 4414   3.847   2.750   8.718  1.2886  0.7457 -0.5438
   58SAPC  C316 4415   3.831   2.566   8.591 -0.2888 -0.6657 -0.1480
   58SAPC  H16X 4416   3.757   2.628   8.536  0.5515  0.1336 -0.4053
   58SAPC  H16Y 4417   3.787   2.466   8.611  2.0195 -1.2618  2.6476
   58SAPC  C317 4418   3.948   2.545   8.492  0.3120  0.6971 -0.3967
   58SAPC  H17X 4419   4.033   2.501   8.547  1.0454  0.9613 -1.2984
   58SAPC  H17Y 4420   3.981   2.642   8.450 -0.1598  0.5061 -1.2465
   58SAPC  C318 4421   3.913   2.444   8.379  0.6424  0.6796 -0.1341
   58SAPC  H18X 4422   3.814   2.459   8.330  0.3774  0.4275  0.3175
   58SAPC  H18Y 4423   3.915   2.336   8.404 -0.4994  0.9251  1.1892
   58SAPC  H18Z 4424   3.987   2.447   8.297  1.3407  0.8247  0.4958
   59SAPC     N 4425   4.903   3.731  11.342 -0.4256 -1.1310  0.6602
   59SAPC   C12 4426   4.901   3.879  11.292  0.4476  0.7233 -0.2040
   59SAPC  H12A 4427   4.796   3.897  11.276 -0.6177 -3.2875  0.9552
   59SAPC  H12B 4428   4.956   3.881  11.199  1.8180  2.0962  0.5917
   59SAPC   C13 4429   4.837   3.725  11.475  0.2605 -0.2378 -0.1438
   59SAPC  H13A 4430   4.730   3.736  11.465  0.3697  0.9089 -0.2135
   59SAPC  H13B 4431   4.831   3.626  11.517 -0.7379  0.3122  1.0719
   59SAPC  H13C 4432   4.866   3.801  11.546 -2.6560  1.1301 -0.2622
   59SAPC   C14 4433   4.837   3.641  11.248  1.0352  0.2375  0.4419
   59SAPC  H14A 4434   4.828   3.544  11.294  1.6940 -1.2829 -2.3705
   59SAPC  H14B 4435   4.738   3.675  11.223  1.8684  1.2554 -1.8262
   59SAPC  H14C 4436   4.885   3.633  11.151 -2.3424  1.1280 -1.4606
   59SAPC   C15 4437   5.051   3.700  11.351 -0.4339 -0.0491  0.1396
   59SAPC  H15A 4438   5.070   3.600  11.386 -0.1237  0.5075  1.6000
   59SAPC  H15B 4439   5.101   3.730  11.260  0.6935  1.3391  1.1686
   59SAPC  H15C 4440   5.086   3.770  11.425  1.4329 -0.6045 -0.1597
   59SAPC   C11 4441   4.960   3.989  11.377 -0.5621  0.6544 -0.4797
   59SAPC  H11A 4442   4.935   3.963  11.482  1.4480  0.3307 -0.0340
   59SAPC  H11B 4443   4.905   4.083  11.355  0.4525  0.5689 -3.7994
   59SAPC     P 4444   5.169   4.132  11.392 -0.1319  0.0166  0.2533
   59SAPC   O13 4445   5.110   4.191  11.515 -0.1203  0.0520 -0.0202
   59SAPC   O14 4446   5.314   4.108  11.392  0.6677  0.0218  0.0133
   59SAPC   O12 4447   5.103   3.992  11.368  0.3848  0.1448 -0.1972
   59SAPC   O11 4448   5.122   4.203  11.258  0.0215  0.1079 -0.5315
   59SAPC    C1 4449   5.211   4.223  11.148 -0.1036 -0.0460 -0.5549
   59SAPC    HA 4450   5.188   4.312  11.086 -1.9158 -0.0719  0.0353
   59SAPC    HB 4451   5.317   4.227  11.182 -0.7320  0.7679  1.5062
   59SAPC    C2 4452   5.184   4.115  11.039  0.2367  0.5387  0.0693
   59SAPC    HS 4453   5.210   4.014  11.077 -1.5015 -0.5782 -1.5075
   59SAPC   O21 4454   5.250   4.151  10.917 -0.1424  0.0466  0.7815
   59SAPC   C21 4455   5.285   4.056  10.831 -0.0544  0.1561  0.4799
   59SAPC   O22 4456   5.289   3.934  10.846  0.4663 -0.2345  0.4053
   59SAPC   C22 4457   5.347   4.118  10.702  0.8414 -0.9057 -0.4055
   59SAPC   H2R 4458   5.260   4.171  10.658  0.5974  0.8367  2.0029
   59SAPC   H2S 4459   5.415   4.191  10.750 -1.5151  1.0173  0.1385
   59SAPC    C3 4460   5.028   4.104  11.011 -0.0594  0.5494 -0.5036
   59SAPC    HX 4461   4.997   4.211  11.010  1.9814  1.2751  2.0602
   59SAPC    HY 4462   4.987   4.051  11.099  0.2610 -0.4988 -0.9729
   59SAPC   O31 4463   4.986   4.043  10.885  0.3290  0.0925 -0.1769
   59SAPC   C31 4464   4.934   3.920  10.889  0.0538  0.2865 -0.5672
   59SAPC   O32 4465   4.912   3.854  10.991  0.3205 -0.3474 -0.5034
   59SAPC   C32 4466   4.894   3.879  10.750  0.2945  0.1437  0.0765
   59SAPC   H2X 4467   4.906   3.958  10.673 -0.5491 -0.2480 -0.4818
   59SAPC   H2Y 4468   4.784   3.862  10.745  0.2116  0.6685 -0.0247
   59SAPC   C23 4469   5.413   4.016  10.602  0.3130 -0.1763  0.3744
   59SAPC   H3R 4470   5.335   3.946  10.568 -1.5866  1.0504  1.9881
   59SAPC   H3S 4471   5.494   3.968  10.661  0.3611 -0.9041 -0.2746
   59SAPC   C24 4472   5.486   4.090  10.481  0.5433  0.1427  0.0382
   59SAPC   H4R 4473   5.537   4.009  10.423 -2.4865 -0.4155 -2.0650
   59SAPC   H4S 4474   5.573   4.146  10.522  1.6530  0.2983 -2.3080
   59SAPC   C25 4475   5.398   4.167  10.393 -0.0463 -0.0941  0.3282
   59SAPC   H5R 4476   5.334   4.242  10.443  0.5018  0.4768  0.1870
   59SAPC   C26 4477   5.374   4.137  10.260  0.1761 -0.8561 -0.1232
   59SAPC   H6R 4478   5.306   4.204  10.205  0.3337  0.3013  1.0589
   59SAPC   C27 4479   5.436   4.036  10.173  0.5723  0.2642  0.3822
   59SAPC   H7R 4480   5.473   3.948  10.231 -1.5751  0.3653  2.0215
   59SAPC   H7S 4481   5.526   4.082  10.127  1.9331 -3.2760 -0.8778
   59SAPC   C28 4482   5.340   3.997  10.065  0.1051  0.1870  0.0204
   59SAPC   H8R 4483   5.251   3.944  10.102 -0.8935  1.5269 -0.3773
   59SAPC   C29 4484   5.364   4.005   9.934 -0.4161  0.0518 -0.3551
   59SAPC   H9R 4485   5.278   3.989   9.868 -1.7342  1.2598  1.0003
   59SAPC  C210 4486   5.477   4.062   9.865 -0.5522 -0.4450 -0.0292
   59SAPC  H10R 4487   5.550   3.984   9.832  1.2508  1.4428 -0.7165
   59SAPC  H10S 4488   5.547   4.116   9.933 -0.4939 -1.7128  0.9561
   59SAPC  C211 4489   5.415   4.149   9.759  0.5056 -1.2743  0.4918
   59SAPC  H11R 4490   5.348   4.228   9.797  0.8957 -1.4419  1.5505
   59SAPC  C212 4491   5.412   4.137   9.626  0.1359  0.1964 -0.0749
   59SAPC  H12R 4492   5.353   4.203   9.561 -1.8910 -0.2358  1.2458
   59SAPC  C213 4493   5.487   4.024   9.562  0.4507 -0.0766  0.7956
   59SAPC  H13R 4494   5.506   3.938   9.629 -0.3984 -0.2933  0.7657
   59SAPC  H13S 4495   5.592   4.059   9.559  1.0298 -1.8101 -1.3801
   59SAPC  C214 4496   5.439   3.985   9.423  0.3615 -0.5367  0.6830
   59SAPC  H14R 4497   5.330   3.987   9.407  0.1065  2.6657  1.9649
   59SAPC  C215 4498   5.519   3.947   9.324 -0.5201  0.5277 -0.0698
   59SAPC  H15R 4499   5.468   3.907   9.235 -0.2299 -2.0097  0.8270
   59SAPC  C216 4500   5.670   3.940   9.319 -0.1767  0.1193 -0.9431
   59SAPC  H16R 4501   5.690   3.839   9.360  0.5795  1.0338  1.0838
   59SAPC  H16S 4502   5.709   4.009   9.397 -1.8552  0.2607 -0.1874
   59SAPC  C217 4503   5.734   3.958   9.183 -0.7701 -0.1617 -0.0877
   59SAPC  H17R 4504   5.725   4.064   9.150 -0.0756  0.7503  2.4250
   59SAPC  H17S 4505   5.673   3.894   9.115 -0.4053 -1.0653  0.4246
   59SAPC  C218 4506   5.886   3.919   9.183  0.6175 -0.0583  0.4385
   59SAPC  H18R 4507   5.889   3.809   9.168 -0.6286 -0.0644  0.0713
   59SAPC  H18S 4508   5.933   3.949   9.279 -1.0667  2.0253  0.7006
   59SAPC  C219 4509   5.956   3.977   9.061  0.5507  0.6739  0.1737
   59SAPC  H19R 4510   5.919   3.934   8.965 -1.6179  1.6888  0.4965
   59SAPC  H19S 4511   6.060   3.939   9.071  0.4255  0.1185 -0.5244
   59SAPC  C220 4512   5.970   4.127   9.056  0.2227 -0.2993  0.0052
   59SAPC  H20R 4513   6.004   4.152   8.954 -1.6041  2.7407  0.0216
   59SAPC  H20S 4514   6.041   4.156   9.137 -0.7440  1.1273  0.3745
   59SAPC  H20T 4515   5.878   4.186   9.079 -0.4284 -1.4685  0.4800
   59SAPC   C33 4516   4.978   3.753  10.708  0.3522 -0.2661  0.3870
   59SAPC   H3X 4517   4.958   3.672  10.781 -1.4259  0.1306  0.3912
   59SAPC   H3Y 4518   5.085   3.778  10.691 -0.0793  1.6180  0.1340
   59SAPC   C34 4519   4.935   3.688  10.573 -0.3611 -0.0393  0.2894
   59SAPC   H4X 4520   4.824   3.695  10.563 -0.5255 -1.0973  1.1893
   59SAPC   H4Y 4521   4.953   3.579  10.582 -2.1685 -0.4462 -0.4817
   59SAPC   C35 4522   5.006   3.747  10.455  0.5348  0.4961 -0.0927
   59SAPC   H5X 4523   5.115   3.740  10.476  0.1002  0.2927  2.3906
   59SAPC   H5Y 4524   4.976   3.852  10.436 -0.7779 -0.0015 -0.9159
   59SAPC   C36 4525   4.969   3.663  10.326  0.4733  0.8824 -0.5199
   59SAPC   H6X 4526   4.859   3.655  10.311  0.4227 -0.8677  0.5066
   59SAPC   H6Y 4527   5.011   3.560  10.338 -1.5630  0.2712  2.4561
   59SAPC   C37 4528   5.030   3.733  10.208  0.4415  0.9068  0.6908
   59SAPC   H7X 4529   5.137   3.755  10.226  0.5311  0.9198  0.1414
   59SAPC   H7Y 4530   4.968   3.825  10.198  0.4476  0.6539 -2.4820
   59SAPC   C38 4531   5.027   3.634  10.087  0.7181 -0.1643  0.4375
   59SAPC   H8X 4532   4.936   3.577  10.062  1.9700 -1.0686 -2.5353
   59SAPC   H8Y 4533   5.108   3.561  10.109  1.4790  0.2573 -0.8479
   59SAPC   C39 4534   5.059   3.709   9.953  0.0305  0.3037  0.2099
   59SAPC   H9X 4535   5.159   3.756   9.962  0.1421 -0.1733  1.9274
   59SAPC   H9Y 4536   4.992   3.797   9.942  2.0651  1.9253  0.0983
   59SAPC  C310 4537   5.071   3.614   9.829  0.3896 -0.0294 -0.3565
   59SAPC  H10X 4538   4.979   3.554   9.813  1.5307 -2.0335  0.2897
   59SAPC  H10Y 4539   5.145   3.538   9.861 -1.2444 -1.0942  1.1243
   59SAPC  C311 4540   5.105   3.689   9.704  0.6790  0.1159  0.1751
   59SAPC  H11X 4541   5.181   3.763   9.739  1.1339 -0.2100 -0.1189
   59SAPC  H11Y 4542   5.023   3.743   9.653  0.4506 -2.2901 -2.1637
   59SAPC  C312 4543   5.183   3.604   9.604 -0.1273  0.2481 -0.3448
   59SAPC  H12X 4544   5.116   3.519   9.577 -2.0112  1.8320 -0.8705
   59SAPC  H12Y 4545   5.265   3.557   9.662 -1.0910  0.0045  0.8586
   59SAPC  C313 4546   5.230   3.680   9.484 -0.6974  0.2853 -0.9356
   59SAPC  H13X 4547   5.334   3.717   9.497  0.2054 -2.1733 -0.6525
   59SAPC  H13Y 4548   5.172   3.774   9.476 -0.6316  0.5769  1.5253
   59SAPC  C314 4549   5.218   3.600   9.355  0.3668  0.4136  0.0090
   59SAPC  H14X 4550   5.113   3.569   9.335  1.0468 -1.7061 -0.5857
   59SAPC  H14Y 4551   5.265   3.500   9.369 -1.4998 -0.2252  2.1776
   59SAPC  C315 4552   5.285   3.669   9.240 -0.8090 -0.2303  0.1344
   59SAPC  H15X 4553   5.394   3.676   9.255 -0.9518  2.1173  0.3821
   59SAPC  H15Y 4554   5.252   3.775   9.239  1.8897  0.6842 -0.2233
   59SAPC  C316 4555   5.252   3.599   9.105  0.0588 -0.3013  0.4129
   59SAPC  H16X 4556   5.156   3.626   9.055  1.8825  0.7009 -2.8597
   59SAPC  H16Y 4557   5.228   3.492   9.124 -1.0464 -0.1539 -0.0623
   59SAPC  C317 4558   5.359   3.626   9.003 -0.3441  0.5815 -0.1632
   59SAPC  H17X 4559   5.456   3.595   9.046  0.1788  0.1449 -1.5906
   59SAPC  H17Y 4560   5.368   3.736   8.993  0.2057  0.4565 -1.1199
   59SAPC  C318 4561   5.339   3.559   8.862 -0.1341 -0.5350 -0.0407
   59SAPC  H18X 4562   5.341   3.448   8.858 -0.1252 -0.5297 -0.1864
   59SAPC  H18Y 4563   5.419   3.597   8.795  0.0611 -0.0476  0.4592
   59SAPC  H18Z 4564   5.240   3.585   8.819 -0.4217  0.3713  1.1395
   60SAPC     N 4565   6.328   3.128  11.178  0.6988 -0.3653  0.3188
   60SAPC   C12 4566   6.303   3.228  11.065 -0.2091 -0.7858  0.2988
   60SAPC  H12A 4567   6.372   3.311  11.068 -1.2501  0.0642  2.1068
   60SAPC  H12B 4568   6.218   3.291  11.084  1.3615  1.2398  1.0258
   60SAPC   C13 4569   6.351   3.195  11.303  0.2529 -0.5145  0.5646
   60SAPC  H13A 4570   6.268   3.255  11.336  1.5590  2.0348 -0.4854
   60SAPC  H13B 4571   6.392   3.134  11.382  0.5185  1.2412  1.8285
   60SAPC  H13C 4572   6.436   3.261  11.291  0.2286 -0.7341 -1.0778
   60SAPC   C14 4573   6.223   3.028  11.196 -0.0162 -0.4869 -0.4884
   60SAPC  H14A 4574   6.129   3.080  11.204  0.1972 -0.2935  1.0125
   60SAPC  H14B 4575   6.216   2.949  11.122 -2.2326 -0.2838 -0.5678
   60SAPC  H14C 4576   6.233   2.973  11.289  2.1615 -3.0584 -2.0606
   60SAPC   C15 4577   6.461   3.048  11.141 -0.2022  0.1085  0.2213
   60SAPC  H15A 4578   6.467   2.965  11.210 -3.7864 -0.7290 -0.2475
   60SAPC  H15B 4579   6.441   2.999  11.047 -0.4887 -2.3016  1.4580
   60SAPC  H15C 4580   6.553   3.103  11.139 -0.6253  0.9013  1.3462
   60SAPC   C11 4581   6.307   3.170  10.920  0.2701  0.7845  0.0233
   60SAPC  H11A 4582   6.414   3.147  10.904 -0.1003 -1.1497  0.1596
   60SAPC  H11B 4583   6.281   3.243  10.840  0.7684  0.5056 -0.3981
   60SAPC     P 4584   6.245   2.923  10.840  0.2211 -0.2290 -0.0051
   60SAPC   O13 4585   6.378   2.875  10.879 -0.6201 -0.1337  0.2280
   60SAPC   O14 4586   6.136   2.832  10.867  0.1526  0.4898  0.0134
   60SAPC   O12 4587   6.216   3.059  10.916 -0.3875 -0.1653  0.2678
   60SAPC   O11 4588   6.235   2.962  10.694 -0.3803  0.3802  0.1876
   60SAPC    C1 4589   6.117   3.002  10.620  0.0048  0.3252 -0.6415
   60SAPC    HA 4590   6.026   3.001  10.684  1.0992 -0.8325  0.9844
   60SAPC    HB 4591   6.123   3.111  10.600 -1.4758  0.6963  0.7050
   60SAPC    C2 4592   6.101   2.921  10.485  0.8841  0.0336 -0.5699
   60SAPC    HS 4593   6.112   2.817  10.522 -1.6357 -0.4178 -0.9015
   60SAPC   O21 4594   6.204   2.968  10.389 -0.6265  0.1860 -0.5520
   60SAPC   C21 4595   6.256   2.878  10.311  0.0464 -0.1352  0.0263
   60SAPC   O22 4596   6.229   2.760  10.303 -0.0682 -0.4291 -0.5681
   60SAPC   C22 4597   6.353   2.944  10.213 -0.3138  0.2558  0.4866
   60SAPC   H2R 4598   6.295   3.008  10.144  1.1190 -0.4573 -1.4796
   60SAPC   H2S 4599   6.444   2.985  10.262 -0.7839  1.5980  0.2692
   60SAPC    C3 4600   5.962   2.938  10.434 -0.7292  0.3926  0.0365
   60SAPC    HX 4601   5.944   3.048  10.433  1.0542  0.7198 -0.2310
   60SAPC    HY 4602   5.889   2.890  10.502  1.2512 -1.9833  0.6400
   60SAPC   O31 4603   5.944   2.877  10.303  0.3671 -0.0044 -0.3115
   60SAPC   C31 4604   5.900   2.746  10.298 -0.2965 -0.4731  0.2513
   60SAPC   O32 4605   5.869   2.677  10.392  0.2899  0.5497 -0.6178
   60SAPC   C32 4606   5.886   2.713  10.144 -0.1783 -0.4421 -0.6168
   60SAPC   H2X 4607   5.987   2.693  10.103  0.8802 -0.6197  1.9022
   60SAPC   H2Y 4608   5.844   2.802  10.092 -1.5103 -0.9312 -0.4245
   60SAPC   C23 4609   6.432   2.836  10.119  0.6436 -0.1480  0.5943
   60SAPC   H3R 4610   6.364   2.763  10.070  0.3232  0.9635 -0.6482
   60SAPC   H3S 4611   6.491   2.774  10.191  1.5585 -0.2286 -0.1957
   60SAPC   C24 4612   6.528   2.895  10.006 -0.3465  0.8520  0.4581
   60SAPC   H4R 4613   6.579   2.978  10.060  0.7985  1.0534 -0.8633
   60SAPC   H4S 4614   6.484   2.931   9.911  0.9444 -1.0559 -0.9329
   60SAPC   C25 4615   6.626   2.789   9.977  0.0139 -0.0531 -0.0385
   60SAPC   H5R 4616   6.683   2.759  10.066  1.0031 -0.4365 -0.7815
   60SAPC   C26 4617   6.663   2.724   9.861 -0.3411 -0.2091  0.0081
   60SAPC   H6R 4618   6.730   2.637   9.864 -0.5771 -0.3706  1.5070
   60SAPC   C27 4619   6.607   2.756   9.734  0.8434 -0.3272  0.5440
   60SAPC   H7R 4620   6.501   2.781   9.755  1.0758  0.2435  1.0688
   60SAPC   H7S 4621   6.603   2.667   9.668 -0.3681  2.3464 -3.3718
   60SAPC   C28 4622   6.685   2.866   9.660 -0.6601  0.9141  0.9481
   60SAPC   H8R 4623   6.789   2.872   9.693  0.3100  0.2200 -1.7608
   60SAPC   C29 4624   6.649   2.949   9.561  0.1966  0.3212  0.5287
   60SAPC   H9R 4625   6.720   3.023   9.523 -0.0828  0.5548  0.4575
   60SAPC  C210 4626   6.512   2.931   9.490 -0.5209  0.7313 -0.6039
   60SAPC  H10R 4627   6.438   2.879   9.554  1.7545 -0.6690  1.0380
   60SAPC  H10S 4628   6.515   2.867   9.399 -0.1498  0.8439 -0.6749
   60SAPC  C211 4629   6.460   3.068   9.465  0.2174  1.2459 -0.7531
   60SAPC  H11R 4630   6.431   3.128   9.553 -0.1854  0.2820 -0.2105
   60SAPC  C212 4631   6.435   3.122   9.344  0.0870 -0.2472 -0.0080
   60SAPC  H12R 4632   6.396   3.226   9.346  0.9554  0.0745  0.8675
   60SAPC  C213 4633   6.466   3.056   9.210 -0.3039 -0.1005 -0.5388
   60SAPC  H13R 4634   6.375   3.065   9.147 -2.0614 -0.2222  1.8083
   60SAPC  H13S 4635   6.477   2.945   9.217 -0.6694 -0.0469  2.9941
   60SAPC  C214 4636   6.588   3.108   9.151  0.0880 -0.8799  0.7975
   60SAPC  H14R 4637   6.686   3.085   9.195  0.8412  1.3141  0.4067
   60SAPC  C215 4638   6.590   3.192   9.049  0.4295 -1.0854  0.5412
   60SAPC  H15R 4639   6.681   3.234   9.005  0.1112 -1.1701 -0.2119
   60SAPC  C216 4640   6.470   3.257   8.986  0.2431  0.1158  0.4085
   60SAPC  H16R 4641   6.492   3.353   8.933  2.3765  0.2599  1.4499
   60SAPC  H16S 4642   6.393   3.283   9.062  0.3870  0.1192  0.5528
   60SAPC  C217 4643   6.394   3.156   8.890 -0.6577 -0.1002 -0.1872
   60SAPC  H17R 4644   6.358   3.070   8.950 -0.1853  0.9354  1.6239
   60SAPC  H17S 4645   6.462   3.113   8.812 -1.7534  0.8438 -1.7109
   60SAPC  C218 4646   6.276   3.219   8.835 -0.8140  0.3391  0.1403
   60SAPC  H18R 4647   6.294   3.323   8.800 -1.1501  0.9756  1.7744
   60SAPC  H18S 4648   6.203   3.226   8.918  0.2033 -1.3269  1.2317
   60SAPC  C219 4649   6.220   3.127   8.722 -0.0385  0.5685  0.1120
   60SAPC  H19R 4650   6.239   3.019   8.736 -0.1433  0.8217  2.5247
   60SAPC  H19S 4651   6.287   3.145   8.635  2.4044 -4.6461  0.5486
   60SAPC  C220 4652   6.075   3.161   8.690  0.8369 -0.5685 -0.3599
   60SAPC  H20R 4653   6.081   3.258   8.635 -1.7130  1.5119  2.6350
   60SAPC  H20S 4654   6.017   3.182   8.783 -1.5722 -0.5685 -1.7969
   60SAPC  H20T 4655   6.019   3.085   8.632  0.7321 -0.9958  0.2933
   60SAPC   C33 4656   5.816   2.577  10.117  0.3416  0.2814  0.8537
   60SAPC   H3X 4657   5.713   2.610  10.091  1.5285  3.2640 -0.4613
   60SAPC   H3Y 4658   5.825   2.497  10.193 -0.4129  0.6136  1.3047
   60SAPC   C34 4659   5.876   2.514   9.991  0.2435 -0.2402 -0.9984
   60SAPC   H4X 4660   5.833   2.414   9.969  0.7576 -0.4316 -1.1509
   60SAPC   H4Y 4661   5.984   2.494  10.008  0.8574  0.4760 -3.5594
   60SAPC   C35 4662   5.864   2.593   9.861  0.4320 -0.5478 -0.0928
   60SAPC   H5X 4663   5.923   2.688   9.859 -2.1055  1.1171 -2.6571
   60SAPC   H5Y 4664   5.761   2.630   9.843  0.3058 -0.2793  1.0510
   60SAPC   C36 4665   5.904   2.508   9.746 -1.0918 -0.7949  0.5271
   60SAPC   H6X 4666   5.859   2.407   9.744  0.9196 -1.7798 -2.3315
   60SAPC   H6Y 4667   6.013   2.489   9.761 -0.7130  1.1129  0.5450
   60SAPC   C37 4668   5.900   2.579   9.611  0.2316 -0.0781  0.3940
   60SAPC   H7X 4669   5.965   2.669   9.615  1.3147 -0.8357  0.2123
   60SAPC   H7Y 4670   5.792   2.593   9.588  0.7821  0.7558 -1.9668
   60SAPC   C38 4671   5.953   2.497   9.496  0.2593  1.1082  0.1794
   60SAPC   H8X 4672   5.901   2.399   9.487  2.4951 -0.1490  0.0071
   60SAPC   H8Y 4673   6.064   2.489   9.504  0.3716  3.7181  2.7523
   60SAPC   C39 4674   5.937   2.583   9.366  0.2262  0.0412  0.3060
   60SAPC   H9X 4675   6.039   2.606   9.329  0.9520  1.1190  2.7409
   60SAPC   H9Y 4676   5.886   2.679   9.388 -1.6379 -0.7099 -0.4924
   60SAPC  C310 4677   5.862   2.510   9.258 -0.3449 -0.2775 -0.3177
   60SAPC  H10X 4678   5.842   2.581   9.175 -0.9311  0.6416  0.5778
   60SAPC  H10Y 4679   5.766   2.471   9.298  0.6513 -0.1168  2.4499
   60SAPC  C311 4680   5.924   2.378   9.208 -0.6306 -0.0666  0.2176
   60SAPC  H11X 4681   5.918   2.303   9.290  3.3057  0.1217  0.8806
   60SAPC  H11Y 4682   6.032   2.386   9.185 -0.2440 -3.0761  0.5998
   60SAPC  C312 4683   5.855   2.327   9.082 -0.0702 -0.8025 -0.1617
   60SAPC  H12X 4684   5.751   2.291   9.098 -1.1967  1.9097 -0.8065
   60SAPC  H12Y 4685   5.917   2.249   9.034 -1.4063 -0.3064 -2.8894
   60SAPC  C313 4686   5.831   2.437   8.977  0.0576 -0.4778  0.0798
   60SAPC  H13X 4687   5.910   2.513   8.961  0.7493 -1.3724 -0.9086
   60SAPC  H13Y 4688   5.737   2.494   8.993 -0.2410  0.1360 -3.1873
   60SAPC  C314 4689   5.806   2.376   8.835  0.1681  0.0694 -0.3539
   60SAPC  H14X 4690   5.767   2.465   8.780 -0.7681  0.1709  0.4326
   60SAPC  H14Y 4691   5.718   2.307   8.833 -0.0179  0.3091 -0.5477
   60SAPC  C315 4692   5.925   2.328   8.752 -0.8087 -0.5394 -0.0142
   60SAPC  H15X 4693   5.993   2.272   8.820 -1.2377  0.4401  1.2778
   60SAPC  H15Y 4694   5.979   2.419   8.717 -0.9065 -0.1577  0.8027
   60SAPC  C316 4695   5.893   2.245   8.626 -0.3732 -0.2542  0.2485
   60SAPC  H16X 4696   5.801   2.294   8.586 -1.0691 -1.5022  0.2383
   60SAPC  H16Y 4697   5.863   2.143   8.658 -1.1123 -0.4510 -1.0005
   60SAPC  C317 4698   6.005   2.222   8.525 -0.4112 -0.1233 -0.1780
   60SAPC  H17X 4699   6.045   2.322   8.498  0.1586 -1.1810 -3.7662
   60SAPC  H17Y 4700   5.968   2.164   8.437  0.0768 -0.7833  0.0450
   60SAPC  C318 4701   6.126   2.140   8.580 -0.0845 -0.2471 -0.0305
   60SAPC  H18X 4702   6.163   2.189   8.672 -0.8106  0.4386 -0.0909
   60SAPC  H18Y 4703   6.212   2.130   8.510 -0.3628 -0.9833 -0.2850
   60SAPC  H18Z 4704   6.097   2.036   8.605  2.5490 -1.3008 -1.0115
   61SAPC     N 4705   0.619   0.655  11.526  0.0748 -0.4527 -0.6450
   61SAPC   C12 4706   0.701   0.700  11.409  0.8817 -0.1869  0.0686
   61SAPC  H12A 4707   0.776   0.625  11.385  1.2452  0.8688 -2.3454
   61SAPC  H12B 4708   0.754   0.787  11.445  0.3858  0.3349 -0.4442
   61SAPC   C13 4709   0.511   0.761  11.545  0.5129 -0.2821  0.2455
   61SAPC  H13A 4710   0.464   0.766  11.642 -1.6473  0.2363 -0.7580
   61SAPC  H13B 4711   0.564   0.855  11.536 -0.5067  0.3093  0.3369
   61SAPC  H13C 4712   0.435   0.738  11.473  0.2752  0.4467  0.2498
   61SAPC   C14 4713   0.555   0.525  11.500 -0.8319  0.4924  0.0400
   61SAPC  H14A 4714   0.623   0.441  11.503 -0.7883  0.4870 -0.8350
   61SAPC  H14B 4715   0.486   0.511  11.581 -0.0680 -2.2679  0.3086
   61SAPC  H14C 4716   0.507   0.517  11.404  0.8615  0.6188 -0.8666
   61SAPC   C15 4717   0.702   0.648  11.652  0.0644  0.0436 -0.0240
   61SAPC  H15A 4718   0.639   0.610  11.731 -0.0202  1.4644  0.6172
   61SAPC  H15B 4719   0.781   0.574  11.641 -2.5428 -2.7607 -1.3714
   61SAPC  H15C 4720   0.745   0.741  11.686 -0.5680 -0.5574  2.5969
   61SAPC   C11 4721   0.626   0.746  11.284  0.0868 -0.1788  0.1952
   61SAPC  H11A 4722   0.701   0.766  11.204  1.4592  2.1669  1.9351
   61SAPC  H11B 4723   0.584   0.848  11.293  3.9739  1.8778 -2.1223
   61SAPC     P 4724   0.529   0.559  11.139 -0.0598  0.4062 -0.3703
   61SAPC   O13 4725   0.619   0.459  11.189 -0.3240  0.1052 -0.4727
   61SAPC   O14 4726   0.392   0.511  11.116  0.1191  0.9484 -0.7269
   61SAPC   O12 4727   0.519   0.663  11.250  0.2399 -0.3652 -0.0856
   61SAPC   O11 4728   0.588   0.642  11.008  0.3097 -0.1623  0.2862
   61SAPC    C1 4729   0.543   0.763  10.948  0.0977  0.4730 -0.3890
   61SAPC    HA 4730   0.434   0.779  10.959 -0.1915  0.9624 -3.2575
   61SAPC    HB 4731   0.591   0.847  11.003 -0.6983  0.3993  0.4343
   61SAPC    C2 4732   0.580   0.771  10.801 -0.0373  0.0506  0.6658
   61SAPC    HS 4733   0.563   0.876  10.770  1.0494 -0.1234 -0.6333
   61SAPC   O21 4734   0.511   0.675  10.724  0.4116  0.4729  0.7013
   61SAPC   C21 4735   0.391   0.724  10.697  0.0844  0.1614  0.5961
   61SAPC   O22 4736   0.348   0.835  10.727 -0.7719  0.5621  0.3937
   61SAPC   C22 4737   0.331   0.629  10.593  0.7392  0.2263 -0.9066
   61SAPC   H2R 4738   0.379   0.622  10.493  1.2801  0.5382 -0.6685
   61SAPC   H2S 4739   0.318   0.526  10.635 -2.0979  0.1476 -1.7110
   61SAPC    C3 4740   0.734   0.750  10.783 -0.2415 -0.3916  0.3488
   61SAPC    HX 4741   0.763   0.645  10.805 -1.0428 -0.6520  0.1804
   61SAPC    HY 4742   0.790   0.800  10.865 -1.4937 -2.7984  2.8189
   61SAPC   O31 4743   0.783   0.783  10.647 -0.1862  0.1014  0.3595
   61SAPC   C31 4744   0.826   0.912  10.632  0.7004 -0.0368 -0.4162
   61SAPC   O32 4745   0.822   0.994  10.720  0.2013 -0.0010  0.5343
   61SAPC   C32 4746   0.862   0.920  10.479  0.3343 -0.0920 -0.4991
   61SAPC   H2X 4747   0.764   0.912  10.427 -0.8449  0.5405  1.5203
   61SAPC   H2Y 4748   0.918   0.828  10.452  1.1564  0.5149 -0.9037
   61SAPC   C23 4749   0.183   0.674  10.567 -0.2374  0.4209 -0.9090
   61SAPC   H3R 4750   0.183   0.782  10.542 -0.6881  0.9872  1.2977
   61SAPC   H3S 4751   0.113   0.671  10.653 -0.9790 -0.9880 -1.5327
   61SAPC   C24 4752   0.138   0.574  10.462 -0.1243 -0.3323  0.5818
   61SAPC   H4R 4753   0.138   0.470  10.500 -1.1964 -1.0672 -1.3111
   61SAPC   H4S 4754   0.203   0.580  10.373  1.0502  0.6300  1.4620
   61SAPC   C25 4755   0.006   0.615  10.405  0.2460 -0.0834  1.1339
   61SAPC   H5R 4756  -0.087   0.582  10.453 -2.5179  2.3325 -2.0468
   61SAPC   C26 4757  -0.017   0.695  10.298  0.0905  0.1694  0.0400
   61SAPC   H6R 4758  -0.119   0.725  10.272  0.9266  2.1625 -1.2241
   61SAPC   C27 4759   0.091   0.772  10.220  0.3227 -0.4248  0.1943
   61SAPC   H7R 4760   0.169   0.815  10.287  1.2710 -2.0246  0.1762
   61SAPC   H7S 4761   0.031   0.855  10.177 -2.2929 -3.4509 -2.6410
   61SAPC   C28 4762   0.144   0.672  10.112  0.1234 -0.1240 -0.4336
   61SAPC   H8R 4763   0.193   0.585  10.158  1.4062  0.7026 -0.1908
   61SAPC   C29 4764   0.158   0.692   9.981 -0.8878  0.5752 -0.3247
   61SAPC   H9R 4765   0.182   0.615   9.905 -2.1389  0.4223 -0.5907
   61SAPC  C210 4766   0.125   0.817   9.908 -0.4367  0.0683 -0.3228
   61SAPC  H10R 4767   0.184   0.818   9.814 -0.4351 -2.9610 -0.4500
   61SAPC  H10S 4768   0.160   0.905   9.966 -0.1210  0.3388 -0.9066
   61SAPC  C211 4769  -0.019   0.836   9.870 -0.1550  0.2427 -0.0253
   61SAPC  H11R 4770  -0.087   0.800   9.949 -1.4000 -3.6352 -2.5752
   61SAPC  C212 4771  -0.074   0.880   9.758 -0.0281 -0.4836  0.2757
   61SAPC  H12R 4772  -0.183   0.875   9.742  0.1151  0.2955 -1.1235
   61SAPC  C213 4773   0.008   0.945   9.645 -0.5125  0.6758 -0.0950
   61SAPC  H13R 4774   0.113   0.968   9.670 -0.3725 -0.3223  0.2949
   61SAPC  H13S 4775  -0.021   1.051   9.631  1.5802  1.5203  1.5113
   61SAPC  C214 4776   0.008   0.863   9.518 -0.0418 -0.2757  0.0051
   61SAPC  H14R 4777   0.022   0.755   9.530  1.0326 -0.2246 -0.6642
   61SAPC  C215 4778  -0.001   0.913   9.388 -0.5647  0.5006 -0.5714
   61SAPC  H15R 4779  -0.001   0.831   9.314 -0.0683  0.8918 -1.0110
   61SAPC  C216 4780  -0.012   1.057   9.338 -0.6101  0.2029  0.2157
   61SAPC  H16R 4781   0.034   1.138   9.399 -1.2391  0.9463 -0.2727
   61SAPC  H16S 4782  -0.118   1.089   9.332  0.0468  2.4619 -0.7218
   61SAPC  C217 4783   0.059   1.070   9.199 -0.4243 -0.0113  0.2412
   61SAPC  H17R 4784   0.037   1.173   9.163  0.8422  0.1388 -0.1743
   61SAPC  H17S 4785   0.020   1.002   9.121  1.0670  1.0544 -1.5263
   61SAPC  C218 4786   0.212   1.057   9.211  0.1508  0.0590 -0.2133
   61SAPC  H18R 4787   0.244   0.959   9.252  1.8547  1.8365  3.1117
   61SAPC  H18S 4788   0.242   1.133   9.287 -0.3940  0.8315 -0.7485
   61SAPC  C219 4789   0.291   1.100   9.087  0.4239 -0.6468  0.7543
   61SAPC  H19R 4790   0.275   1.020   9.011  0.3103 -1.3348  1.4895
   61SAPC  H19S 4791   0.398   1.104   9.117  0.5460  0.5373  0.1970
   61SAPC  C220 4792   0.262   1.238   9.016  0.1019 -0.0259 -0.2653
   61SAPC  H20R 4793   0.323   1.249   8.923  0.0100  2.3014 -0.1196
   61SAPC  H20S 4794   0.289   1.318   9.088 -0.5205 -0.5506  0.5584
   61SAPC  H20T 4795   0.155   1.255   8.992  0.3042  0.1888 -1.0677
   61SAPC   C33 4796   0.942   1.038  10.438  0.1480  0.3288  0.3049
   61SAPC   H3X 4797   1.042   1.033  10.485  0.0810  0.9084  0.5121
   61SAPC   H3Y 4798   0.902   1.139  10.460 -1.4810 -0.1820 -0.1456
   61SAPC   C34 4799   0.967   1.020  10.284 -0.9163 -0.0063  0.5444
   61SAPC   H4X 4800   0.882   1.009  10.214 -0.6712  0.7183  0.1239
   61SAPC   H4Y 4801   1.043   0.941  10.273  1.2103  1.5732  2.7163
   61SAPC   C35 4802   1.045   1.142  10.229 -0.3835 -0.6373  0.2483
   61SAPC   H5X 4803   1.141   1.162  10.281  0.6529 -0.3203 -1.6760
   61SAPC   H5Y 4804   0.985   1.233  10.250 -0.2618 -0.1208 -1.5091
   61SAPC   C36 4805   1.076   1.139  10.078  0.1254  0.2289 -0.6575
   61SAPC   H6X 4806   1.141   1.225  10.052  2.7368 -1.4750 -0.1797
   61SAPC   H6Y 4807   0.972   1.144  10.040 -0.5740  1.4602  1.2923
   61SAPC   C37 4808   1.139   1.005  10.023 -0.7161 -0.1813  0.1054
   61SAPC   H7X 4809   1.093   0.919  10.077  0.4630 -0.6220  0.4378
   61SAPC   H7Y 4810   1.236   1.006  10.077 -0.8724 -2.4716  0.5305
   61SAPC   C38 4811   1.156   0.994   9.879  0.0163 -0.0917 -0.1095
   61SAPC   H8X 4812   1.198   0.893   9.859  2.4544  0.5227  1.4443
   61SAPC   H8Y 4813   1.233   1.066   9.843  0.4569  0.4832  1.8522
   61SAPC   C39 4814   1.027   1.013   9.801 -0.6457  0.5364  0.2922
   61SAPC   H9X 4815   0.997   1.119   9.788 -0.3863  0.5197 -0.4840
   61SAPC   H9Y 4816   0.952   0.950   9.853 -2.5189  1.9358 -0.6083
   61SAPC  C310 4817   1.031   0.949   9.664  0.2926  0.5590 -0.2802
   61SAPC  H10X 4818   0.931   0.958   9.616 -0.7011  1.9871  1.8700
   61SAPC  H10Y 4819   1.040   0.839   9.676  0.2128  0.6321  0.5425
   61SAPC  C311 4820   1.150   1.001   9.583  0.4416 -0.3083  0.7366
   61SAPC  H11X 4821   1.243   0.965   9.632  0.1380  1.1890  2.5244
   61SAPC  H11Y 4822   1.153   1.112   9.590 -1.5532  0.0747 -2.2440
   61SAPC  C312 4823   1.145   0.947   9.439 -0.0477 -0.3570  0.5522
   61SAPC  H12X 4824   1.046   0.982   9.401 -0.3705  0.8641  2.4235
   61SAPC  H12Y 4825   1.155   0.836   9.441 -1.2760 -0.5042 -0.3416
   61SAPC  C313 4826   1.248   1.006   9.353 -1.0077  0.3943 -0.1314
   61SAPC  H13X 4827   1.352   0.982   9.382  0.0039  2.1061 -2.0791
   61SAPC  H13Y 4828   1.251   1.114   9.376  0.2456  0.3000  0.2159
   61SAPC  C314 4829   1.220   0.992   9.208  0.2660 -0.4577 -0.4777
   61SAPC  H14X 4830   1.115   1.022   9.183  0.5294 -1.3508 -2.9345
   61SAPC  H14Y 4831   1.229   0.883   9.193  0.9805 -0.4856  0.1040
   61SAPC  C315 4832   1.323   1.066   9.117 -0.6187 -1.1783 -0.0625
   61SAPC  H15X 4833   1.428   1.038   9.139 -0.8113 -1.5501  0.4071
   61SAPC  H15Y 4834   1.325   1.176   9.129  3.0250 -0.6834 -3.2150
   61SAPC  C316 4835   1.282   1.044   8.973  0.3732 -0.3236  0.1783
   61SAPC  H16X 4836   1.171   1.041   8.972  0.2967  0.0688 -2.9161
   61SAPC  H16Y 4837   1.326   0.950   8.935  1.6715  0.4123 -0.2099
   61SAPC  C317 4838   1.333   1.160   8.883  0.1767  0.2193  0.1721
   61SAPC  H17X 4839   1.435   1.200   8.902 -0.8739  2.5926  1.2735
   61SAPC  H17Y 4840   1.274   1.248   8.916 -0.8938 -0.1315 -0.7509
   61SAPC  C318 4841   1.302   1.127   8.737 -0.2788  0.5867 -0.5054
   61SAPC  H18X 4842   1.321   1.221   8.682 -1.5363  0.2685 -1.5272
   61SAPC  H18Y 4843   1.193   1.108   8.727 -0.5157  0.8781  1.2544
   61SAPC  H18Z 4844   1.366   1.047   8.694  0.5978  0.9953 -0.0078
   62SAPC     N 4845   5.431   6.676  10.882  0.0929  0.2921  0.1071
   62SAPC   C12 4846   5.454   6.609  10.742 -0.0665  0.1008 -0.6594
   62SAPC  H12A 4847   5.365   6.637  10.687  0.5011 -1.1170 -2.2683
   62SAPC  H12B 4848   5.441   6.502  10.744  2.5387 -0.2946 -1.2033
   62SAPC   C13 4849   5.313   6.603  10.950 -0.1129  0.5529 -0.1012
   62SAPC  H13A 4850   5.330   6.497  10.946 -0.2839  0.4669  1.1479
   62SAPC  H13B 4851   5.312   6.626  11.056  2.3812 -1.7807  0.5492
   62SAPC  H13C 4852   5.222   6.633  10.901 -0.3196  0.1823  0.0569
   62SAPC   C14 4853   5.551   6.666  10.958  0.1016 -0.4984 -0.7371
   62SAPC  H14A 4854   5.568   6.740  11.035  0.5832 -2.1282  0.7846
   62SAPC  H14B 4855   5.563   6.567  11.000  0.4360  0.0286  0.4475
   62SAPC  H14C 4856   5.637   6.668  10.893  1.9589 -2.5541  1.4555
   62SAPC   C15 4857   5.396   6.825  10.872 -0.6532  0.1209  0.3587
   62SAPC  H15A 4858   5.473   6.875  10.815  0.0740 -1.8557 -0.4808
   62SAPC  H15B 4859   5.302   6.844  10.823 -1.9261 -0.4599  2.4274
   62SAPC  H15C 4860   5.391   6.871  10.969 -0.1336  1.0147 -0.0269
   62SAPC   C11 4861   5.567   6.649  10.649  0.2631 -0.6061  0.2096
   62SAPC  H11A 4862   5.567   6.758  10.626  1.9707 -0.6961 -0.3078
   62SAPC  H11B 4863   5.553   6.609  10.547 -0.3788 -1.6556  0.6852
   62SAPC     P 4864   5.751   6.476  10.666 -0.4227 -0.1715 -0.5895
   62SAPC   O13 4865   5.742   6.390  10.786 -0.2513  0.3844 -0.1337
   62SAPC   O14 4866   5.679   6.427  10.544 -0.6858 -0.1300  0.1224
   62SAPC   O12 4867   5.696   6.620  10.707  0.2551  0.6948  0.6799
   62SAPC   O11 4868   5.900   6.505  10.626 -0.4104  0.0757  0.1786
   62SAPC    C1 4869   5.954   6.636  10.591  0.9645 -0.1233 -0.2437
   62SAPC    HA 4870   5.958   6.709  10.675  1.4168 -1.0836  0.5927
   62SAPC    HB 4871   6.062   6.623  10.569  0.8909 -0.2744 -0.5124
   62SAPC    C2 4872   5.887   6.696  10.462  0.4695 -0.5364  0.2756
   62SAPC    HS 4873   5.779   6.718  10.476  0.3905  0.3545 -1.4185
   62SAPC   O21 4874   5.887   6.602  10.351 -0.0695 -0.3146 -0.6043
   62SAPC   C21 4875   5.998   6.547  10.321 -0.9664 -0.1523  0.1520
   62SAPC   O22 4876   6.110   6.564  10.369 -0.2895 -0.1512  0.7299
   62SAPC   C22 4877   5.965   6.440  10.206 -0.1042 -0.7248 -0.1765
   62SAPC   H2R 4878   6.011   6.349  10.251  0.0591 -1.2876 -1.4590
   62SAPC   H2S 4879   5.854   6.431  10.203 -0.3011  1.0386  0.5608
   62SAPC    C3 4880   5.955   6.837  10.429  0.1890  0.4575 -0.3726
   62SAPC    HX 4881   6.064   6.822  10.419  0.4947  2.4470 -0.5078
   62SAPC    HY 4882   5.942   6.902  10.518 -1.3805  2.1499 -1.7501
   62SAPC   O31 4883   5.917   6.902  10.306 -0.3056  0.3466 -0.5743
   62SAPC   C31 4884   5.808   6.970  10.310 -0.6662  0.9911 -0.3593
   62SAPC   O32 4885   5.733   6.974  10.406 -0.1927 -0.1982 -0.1362
   62SAPC   C32 4886   5.776   7.045  10.184  0.9138  0.2890  0.3518
   62SAPC   H2X 4887   5.847   7.128  10.165 -1.0570  1.9234 -0.1695
   62SAPC   H2Y 4888   5.676   7.087  10.205 -0.0475  0.0955 -3.1745
   62SAPC   C23 4889   6.021   6.471  10.071  0.4642 -0.2600 -0.1255
   62SAPC   H3R 4890   6.099   6.398  10.038  0.3664  0.8888 -3.3182
   62SAPC   H3S 4891   6.088   6.559  10.076 -0.4499  0.4299  0.3181
   62SAPC   C24 4892   5.917   6.503   9.955  0.2498  0.1136 -0.2664
   62SAPC   H4R 4893   5.843   6.581   9.986 -0.5140 -1.0144  0.8813
   62SAPC   H4S 4894   5.852   6.415   9.935 -0.5939  0.3303  1.3385
   62SAPC   C25 4895   6.000   6.537   9.832  0.5685 -0.1214 -0.0899
   62SAPC   H5R 4896   6.023   6.644   9.831 -0.8336  0.2048  0.2285
   62SAPC   C26 4897   6.037   6.456   9.727 -0.0665 -0.1196 -0.5325
   62SAPC   H6R 4898   6.101   6.497   9.648  0.1896  1.9838  0.7052
   62SAPC   C27 4899   6.015   6.310   9.714  0.9219  0.9972  0.7240
   62SAPC   H7R 4900   5.998   6.264   9.813  0.9193  0.1442  0.3362
   62SAPC   H7S 4901   6.114   6.273   9.681  0.6548 -0.3247  1.3514
   62SAPC   C28 4902   5.910   6.264   9.617 -0.0065  0.0549 -0.1240
   62SAPC   H8R 4903   5.811   6.295   9.651  1.2957  0.7485  3.4829
   62SAPC   C29 4904   5.925   6.186   9.504 -0.3756 -0.1082 -0.0200
   62SAPC   H9R 4905   5.843   6.174   9.433 -1.0618 -1.0862  0.9128
   62SAPC  C210 4906   6.057   6.125   9.460 -0.9845  0.1662  0.4468
   62SAPC  H10R 4907   6.095   6.063   9.544  0.8702  2.8718  1.7381
   62SAPC  H10S 4908   6.143   6.194   9.452  0.3796 -1.5425 -0.3614
   62SAPC  C211 4909   6.034   6.030   9.342 -0.3164  0.6104  0.1660
   62SAPC  H11R 4910   6.007   5.925   9.357 -3.2524  1.3011  0.3673
   62SAPC  C212 4911   6.039   6.054   9.211 -0.7628 -0.6269 -0.1456
   62SAPC  H12R 4912   6.017   5.972   9.141  0.0537  0.4711 -1.7554
   62SAPC  C213 4913   6.052   6.187   9.152  0.1513  0.4308  0.2212
   62SAPC  H13R 4914   5.991   6.256   9.214 -1.0694 -1.0062  0.6959
   62SAPC  H13S 4915   5.991   6.197   9.060  1.0613  0.3626 -0.4004
   62SAPC  C214 4916   6.185   6.252   9.147 -0.1787 -0.0944 -0.4906
   62SAPC  H14R 4917   6.217   6.311   9.235 -0.1735 -1.5390  0.5088
   62SAPC  C215 4918   6.271   6.240   9.046 -0.1970  0.1385  0.5450
   62SAPC  H15R 4919   6.365   6.298   9.042 -0.5834  0.7503 -0.0431
   62SAPC  C216 4920   6.261   6.160   8.917  0.3916 -0.2112  0.5708
   62SAPC  H16R 4921   6.239   6.222   8.827  0.6071  0.1229  0.7456
   62SAPC  H16S 4922   6.172   6.094   8.918 -0.3202  0.7152  0.3721
   62SAPC  C217 4923   6.396   6.090   8.884 -0.5523 -0.6146 -0.6300
   62SAPC  H17R 4924   6.367   6.040   8.789 -2.9728 -1.6695  0.5599
   62SAPC  H17S 4925   6.421   6.008   8.955  0.7685 -0.3893 -0.8191
   62SAPC  C218 4926   6.521   6.176   8.870  0.0222  0.4842 -0.1751
   62SAPC  H18R 4927   6.548   6.213   8.972 -0.5907 -0.1985  0.2422
   62SAPC  H18S 4928   6.485   6.263   8.812 -0.4648  0.8132  0.5940
   62SAPC  C219 4929   6.651   6.122   8.798  0.3994  0.6002  0.7443
   62SAPC  H19R 4930   6.695   6.058   8.878 -1.9103 -1.1892  0.6787
   62SAPC  H19S 4931   6.717   6.210   8.785 -0.1053  0.7609 -0.9504
   62SAPC  C220 4932   6.627   6.026   8.684 -0.0150 -0.0963 -0.3422
   62SAPC  H20R 4933   6.572   6.075   8.600  0.4036  1.2240  0.1314
   62SAPC  H20S 4934   6.559   5.944   8.711  1.8944 -1.1089  1.6982
   62SAPC  H20T 4935   6.727   5.980   8.668 -0.2076 -0.9539  0.8291
   62SAPC   C33 4936   5.783   6.956  10.056  0.1268  0.5852  0.3633
   62SAPC   H3X 4937   5.691   6.895  10.052  0.8721 -0.5304 -0.1927
   62SAPC   H3Y 4938   5.878   6.898  10.058  0.9978  1.9538  0.6719
   62SAPC   C34 4939   5.794   7.038   9.930 -0.1091  0.3467  0.4238
   62SAPC   H4X 4940   5.903   7.058   9.926 -0.4653  2.5837  0.5200
   62SAPC   H4Y 4941   5.746   7.138   9.930 -0.8728  0.0089  2.1748
   62SAPC   C35 4942   5.741   6.959   9.813 -0.0204 -0.3149 -0.3097
   62SAPC   H5X 4943   5.630   6.950   9.820 -0.0228 -0.9391 -0.9854
   62SAPC   H5Y 4944   5.787   6.858   9.803  0.8983  0.1501 -0.9534
   62SAPC   C36 4945   5.763   7.042   9.684  0.3239  0.2880  0.5197
   62SAPC   H6X 4946   5.871   7.067   9.669  0.8472 -1.0221  1.7901
   62SAPC   H6Y 4947   5.698   7.131   9.695 -2.6550 -1.6635 -0.1637
   62SAPC   C37 4948   5.722   6.968   9.552  0.1594 -0.1708 -0.6291
   62SAPC   H7X 4949   5.620   6.923   9.559  1.0773 -2.0864  2.0792
   62SAPC   H7Y 4950   5.806   6.897   9.537  0.8670  0.3532  0.7113
   62SAPC   C38 4951   5.720   7.056   9.425 -0.3834 -0.0773  0.1925
   62SAPC   H8X 4952   5.809   7.118   9.446 -0.4274 -0.3222  1.1437
   62SAPC   H8Y 4953   5.632   7.124   9.423 -1.6225 -1.4843  2.6577
   62SAPC   C39 4954   5.734   6.977   9.295 -0.4847 -0.0654  0.2064
   62SAPC   H9X 4955   5.654   6.904   9.272  0.6114 -1.2087 -0.1108
   62SAPC   H9Y 4956   5.807   6.894   9.305 -0.0032  0.3361  0.1024
   62SAPC  C310 4957   5.759   7.070   9.171 -0.3253 -0.3333  0.8281
   62SAPC  H10X 4958   5.853   7.129   9.176 -1.2734  1.8035 -2.6658
   62SAPC  H10Y 4959   5.677   7.145   9.176  1.8787  2.1721  1.8237
   62SAPC  C311 4960   5.782   6.989   9.035  0.4134  0.0430  0.0105
   62SAPC  H11X 4961   5.692   6.925   9.041 -1.2800  2.3446  0.3912
   62SAPC  H11Y 4962   5.870   6.922   9.050  0.1591 -0.0975  0.9490
   62SAPC  C312 4963   5.784   7.069   8.905 -0.0728  0.6498  0.3359
   62SAPC  H12X 4964   5.687   7.123   8.907  0.1249  0.9947  0.8706
   62SAPC  H12Y 4965   5.781   6.996   8.822 -0.7549  0.1098  0.8286
   62SAPC  C313 4966   5.905   7.173   8.906 -0.5030 -0.4324  0.6490
   62SAPC  H13X 4967   5.999   7.124   8.940  0.4720 -0.4892 -1.8326
   62SAPC  H13Y 4968   5.879   7.256   8.974 -1.9683 -0.7294  0.4883
   62SAPC  C314 4969   5.919   7.249   8.772 -0.4021  0.1044  0.0037
   62SAPC  H14X 4970   5.821   7.295   8.751  0.2524  0.4239 -2.7087
   62SAPC  H14Y 4971   5.958   7.181   8.692 -2.0454 -1.8421  0.7667
   62SAPC  C315 4972   6.013   7.368   8.792  0.2650 -0.0240  0.3670
   62SAPC  H15X 4973   6.113   7.329   8.822  0.8005  0.6294 -0.4871
   62SAPC  H15Y 4974   5.978   7.431   8.876  0.1072 -0.1459  0.3918
   62SAPC  C316 4975   6.019   7.453   8.658  0.0117  0.8407 -0.6941
   62SAPC  H16X 4976   5.925   7.504   8.626 -1.8259 -1.1540  1.1710
   62SAPC  H16Y 4977   6.050   7.392   8.571  0.0117 -0.2740  0.0561
   62SAPC  C317 4978   6.113   7.573   8.683  0.0709 -0.2707 -0.0504
   62SAPC  H17X 4979   6.195   7.533   8.747 -0.4677 -2.9123 -0.8924
   62SAPC  H17Y 4980   6.052   7.640   8.747 -2.5899 -1.5260 -1.1304
   62SAPC  C318 4981   6.161   7.634   8.554 -0.4798 -0.2089 -0.0880
   62SAPC  H18X 4982   6.088   7.702   8.504  0.6685  1.9086  0.9770
   62SAPC  H18Y 4983   6.186   7.564   8.471  2.6134  0.5809  0.0522
   62SAPC  H18Z 4984   6.256   7.686   8.574 -1.1336  1.1907 -0.5072
   63SAPC     N 4985   2.557   5.734   6.243 -0.0957 -0.8933  0.5832
   63SAPC   C12 4986   2.601   5.728   6.385 -0.0501 -0.8510 -0.1360
   63SAPC  H12A 4987   2.634   5.827   6.413 -0.7540 -0.2889 -1.2110
   63SAPC  H12B 4988   2.689   5.671   6.408  0.9108 -0.5152 -2.6702
   63SAPC   C13 4989   2.427   5.803   6.219  0.4070 -0.1856  0.1387
   63SAPC  H13A 4990   2.409   5.806   6.112  1.5349 -2.5370 -0.1832
   63SAPC  H13B 4991   2.351   5.750   6.274  0.3417  0.0487  0.2746
   63SAPC  H13C 4992   2.424   5.902   6.262 -0.1178 -0.1879  0.1181
   63SAPC   C14 4993   2.661   5.806   6.160  0.6463 -0.0892  0.1869
   63SAPC  H14A 4994   2.763   5.776   6.179  0.7367 -0.0950 -0.2781
   63SAPC  H14B 4995   2.624   5.811   6.058 -1.6155  3.0629  1.0127
   63SAPC  H14C 4996   2.663   5.910   6.189 -0.8768 -0.1058  0.4617
   63SAPC   C15 4997   2.546   5.599   6.195 -0.4123  0.1317  0.7153
   63SAPC  H15A 4998   2.639   5.543   6.197  0.6140  1.5624 -1.8639
   63SAPC  H15B 4999   2.485   5.545   6.265  0.7987 -0.7883  1.0983
   63SAPC  H15C 5000   2.505   5.601   6.095  1.0876  1.4325  0.0576
   63SAPC   C11 5001   2.491   5.679   6.485  0.3927 -0.5057  0.5832
   63SAPC  H11A 5002   2.411   5.755   6.472  2.3949  1.5917 -0.1549
   63SAPC  H11B 5003   2.521   5.698   6.591 -0.1181 -1.4423  0.9075
   63SAPC     P 5004   2.515   5.417   6.513 -0.0115  0.1090 -0.1330
   63SAPC   O13 5005   2.520   5.331   6.393 -0.3399  0.2788  0.5167
   63SAPC   O14 5006   2.640   5.445   6.578 -0.2684  0.1265 -0.7819
   63SAPC   O12 5007   2.442   5.551   6.460 -0.1191 -0.3806  0.6829
   63SAPC   O11 5008   2.419   5.363   6.620  0.6552  0.1203  0.2634
   63SAPC    C1 5009   2.338   5.449   6.696  0.1771  0.3667  0.7487
   63SAPC    HA 5010   2.293   5.527   6.632 -1.0729 -1.1837 -0.3629
   63SAPC    HB 5011   2.267   5.381   6.749  2.6859 -1.8317  1.5130
   63SAPC    C2 5012   2.410   5.505   6.819 -0.4923 -0.3314 -0.1393
   63SAPC    HS 5013   2.496   5.568   6.784 -0.3770 -1.0474 -1.1951
   63SAPC   O21 5014   2.468   5.408   6.907  0.2265  0.0826  0.1181
   63SAPC   C21 5015   2.591   5.427   6.956 -0.4279 -0.7069  0.5271
   63SAPC   O22 5016   2.668   5.516   6.931  0.2859 -0.3924  0.0649
   63SAPC   C22 5017   2.624   5.313   7.045  0.4220  0.3059 -0.6051
   63SAPC   H2R 5018   2.561   5.226   7.018  1.5246 -1.0276  0.8576
   63SAPC   H2S 5019   2.728   5.290   7.015  0.2174 -1.7410  0.0987
   63SAPC    C3 5020   2.324   5.603   6.900 -0.2309 -0.0859  0.3722
   63SAPC    HX 5021   2.250   5.546   6.960 -1.4646  1.3001  0.2225
   63SAPC    HY 5022   2.262   5.675   6.842  0.0148  1.2378  1.6965
   63SAPC   O31 5023   2.407   5.673   6.994  0.1779 -0.6089 -0.1563
   63SAPC   C31 5024   2.472   5.777   6.938 -0.2171 -0.1741  0.1030
   63SAPC   O32 5025   2.472   5.813   6.820  0.5663  0.4315  0.6545
   63SAPC   C32 5026   2.545   5.851   7.053 -0.7850 -0.0223  0.0530
   63SAPC   H2X 5027   2.463   5.879   7.123 -2.1708 -1.0776 -1.1103
   63SAPC   H2Y 5028   2.584   5.947   7.012 -1.5567 -0.2199 -1.1930
   63SAPC   C23 5029   2.609   5.358   7.198 -1.0465  0.1075 -0.6327
   63SAPC   H3R 5030   2.674   5.447   7.214  1.4303 -1.9806  2.0838
   63SAPC   H3S 5031   2.666   5.284   7.259 -0.9583  0.8261  0.1703
   63SAPC   C24 5032   2.479   5.401   7.251  0.4143 -0.7894 -0.1983
   63SAPC   H4R 5033   2.423   5.462   7.177  0.0991 -1.7456 -0.7600
   63SAPC   H4S 5034   2.495   5.475   7.332 -0.4079 -0.6427 -0.1629
   63SAPC   C25 5035   2.391   5.283   7.288  0.2616 -0.2832  0.0292
   63SAPC   H5R 5036   2.351   5.222   7.205  1.1233 -0.2635 -0.4152
   63SAPC   C26 5037   2.350   5.252   7.410  0.1470  0.0771 -0.7538
   63SAPC   H6R 5038   2.287   5.164   7.430  1.5569 -0.5059  1.4186
   63SAPC   C27 5039   2.386   5.326   7.542  0.6571 -0.0504  0.7910
   63SAPC   H7R 5040   2.328   5.268   7.617  1.3589 -1.4902  0.2684
   63SAPC   H7S 5041   2.348   5.430   7.538 -2.6041 -1.1493  0.6602
   63SAPC   C28 5042   2.531   5.322   7.587 -0.4941 -0.1848 -0.7773
   63SAPC   H8R 5043   2.604   5.269   7.524 -0.3613  1.2129 -1.8411
   63SAPC   C29 5044   2.571   5.374   7.707 -0.0042 -0.4924  0.4167
   63SAPC   H9R 5045   2.679   5.367   7.722  0.3121  0.4141 -1.2061
   63SAPC  C210 5046   2.484   5.440   7.813 -0.1346  0.1047 -0.3432
   63SAPC  H10R 5047   2.442   5.370   7.889 -1.5727  0.0368 -1.1705
   63SAPC  H10S 5048   2.398   5.471   7.750  0.9339  0.6682 -1.5655
   63SAPC  C211 5049   2.538   5.564   7.883  0.0706 -1.3996 -0.0733
   63SAPC  H11R 5050   2.634   5.599   7.844 -1.4867  1.4525 -1.7525
   63SAPC  C212 5051   2.493   5.627   7.990  0.1746 -0.4286 -0.4998
   63SAPC  H12R 5052   2.550   5.713   8.029  0.9183 -0.2559 -1.8989
   63SAPC  C213 5053   2.366   5.596   8.065  0.0611 -0.2045  0.0355
   63SAPC  H13R 5054   2.298   5.533   8.005 -1.9472  2.6095 -0.8500
   63SAPC  H13S 5055   2.301   5.686   8.075 -0.6826 -0.3710 -2.6019
   63SAPC  C214 5056   2.405   5.531   8.191 -0.1766 -1.3219  1.0859
   63SAPC  H14R 5057   2.429   5.424   8.183 -1.6194 -1.7617  2.2627
   63SAPC  C215 5058   2.424   5.595   8.310 -0.3593 -0.2527  0.2960
   63SAPC  H15R 5059   2.435   5.538   8.404 -2.0628  1.3533  1.5614
   63SAPC  C216 5060   2.393   5.744   8.334  0.0634 -0.2941  0.1497
   63SAPC  H16R 5061   2.394   5.810   8.244  1.4413 -1.6649 -0.8866
   63SAPC  H16S 5062   2.474   5.798   8.387  0.0651 -2.3308  2.4087
   63SAPC  C217 5063   2.258   5.772   8.401 -0.2915 -0.1578  0.6314
   63SAPC  H17R 5064   2.183   5.724   8.335  1.1257  0.3300 -1.4230
   63SAPC  H17S 5065   2.223   5.878   8.402 -2.8419 -0.9243  0.2688
   63SAPC  C218 5066   2.244   5.714   8.539  0.2113 -0.4327  0.2191
   63SAPC  H18R 5067   2.258   5.604   8.545 -0.8253 -0.5944 -0.1168
   63SAPC  H18S 5068   2.140   5.733   8.573  0.3669  2.2880 -0.5879
   63SAPC  C219 5069   2.348   5.787   8.636 -0.1712  0.0714  0.5194
   63SAPC  H19R 5070   2.338   5.896   8.619 -1.3096 -0.4142 -2.3312
   63SAPC  H19S 5071   2.448   5.751   8.603 -0.3004 -0.3212  0.5475
   63SAPC  C220 5072   2.322   5.740   8.777 -0.2852 -0.1254 -0.1736
   63SAPC  H20R 5073   2.213   5.749   8.797 -0.4172  0.5924 -1.1558
   63SAPC  H20S 5074   2.372   5.803   8.854 -2.2676 -1.2001  2.1394
   63SAPC  H20T 5075   2.369   5.640   8.790  1.2556  0.2785 -2.2001
   63SAPC   C33 5076   2.648   5.768   7.129 -0.2175  0.2407  0.0651
   63SAPC   H3X 5077   2.740   5.748   7.070  0.2183  0.6567  0.5923
   63SAPC   H3Y 5078   2.600   5.673   7.163  0.1004  0.1999  0.4125
   63SAPC   C34 5079   2.703   5.840   7.255  0.1430 -0.2189  0.5755
   63SAPC   H4X 5080   2.621   5.873   7.322 -0.9209  0.0901 -0.8327
   63SAPC   H4Y 5081   2.757   5.929   7.215 -0.5618 -0.0247  0.0373
   63SAPC   C35 5082   2.793   5.755   7.345 -0.0383  0.5411 -0.2390
   63SAPC   H5X 5083   2.886   5.718   7.298 -0.2583 -0.0717 -0.1939
   63SAPC   H5Y 5084   2.738   5.665   7.378  2.2140 -0.3088  1.5176
   63SAPC   C36 5085   2.832   5.837   7.466  0.4644 -0.0286  0.6258
   63SAPC   H6X 5086   2.737   5.886   7.497  0.4436  0.4939 -0.2121
   63SAPC   H6Y 5087   2.895   5.924   7.434  0.4383 -0.4572 -0.6518
   63SAPC   C37 5088   2.893   5.764   7.585 -0.2917  0.1645 -0.5503
   63SAPC   H7X 5089   2.998   5.746   7.554 -0.1564  1.2627 -0.7485
   63SAPC   H7Y 5090   2.839   5.669   7.605  1.5107 -0.8088 -0.1071
   63SAPC   C38 5091   2.884   5.845   7.723  0.4805 -0.7374 -0.8259
   63SAPC   H8X 5092   2.779   5.857   7.755  0.5255 -2.9243  0.3797
   63SAPC   H8Y 5093   2.921   5.946   7.697 -0.8262 -0.3398 -1.1937
   63SAPC   C39 5094   2.955   5.782   7.828 -0.0225  0.6738 -0.7814
   63SAPC   H9X 5095   3.059   5.764   7.794 -0.6090 -0.5576 -1.9809
   63SAPC   H9Y 5096   2.933   5.678   7.860  0.8032  0.4894 -0.7999
   63SAPC  C310 5097   2.950   5.870   7.956  1.1431  0.0550 -0.3053
   63SAPC  H10X 5098   2.845   5.903   7.966  0.4247 -2.3717  0.8604
   63SAPC  H10Y 5099   3.020   5.953   7.930 -0.5602  1.1886 -1.5175
   63SAPC  C311 5100   2.977   5.803   8.084 -0.0439 -0.7704 -0.2017
   63SAPC  H11X 5101   2.987   5.882   8.161 -1.9029  0.9425 -1.6387
   63SAPC  H11Y 5102   3.079   5.758   8.086 -0.6628 -2.2348  1.3739
   63SAPC  C312 5103   2.871   5.713   8.147 -0.3791 -0.3870  0.2659
   63SAPC  H12X 5104   2.871   5.610   8.105 -0.3958 -0.5157  0.5784
   63SAPC  H12Y 5105   2.778   5.765   8.117 -0.0348 -0.2439 -0.5859
   63SAPC  C313 5106   2.879   5.709   8.303  0.5948 -1.3244  0.3613
   63SAPC  H13X 5107   2.772   5.727   8.329  1.2095  1.8600  1.0943
   63SAPC  H13Y 5108   2.941   5.796   8.332  0.3305 -0.6383 -1.0345
   63SAPC  C314 5109   2.929   5.582   8.362  0.2617  0.2167 -1.2453
   63SAPC  H14X 5110   3.034   5.600   8.393 -0.2713 -0.3180  1.0724
   63SAPC  H14Y 5111   2.921   5.503   8.284  1.8213 -1.1125 -0.1183
   63SAPC  C315 5112   2.851   5.539   8.490 -0.0139 -0.0308  0.5791
   63SAPC  H15X 5113   2.762   5.485   8.454  0.0906  0.4015 -0.3546
   63SAPC  H15Y 5114   2.807   5.626   8.544 -0.0310 -0.2206  0.8690
   63SAPC  C316 5115   2.940   5.458   8.585 -0.4192 -0.6818  0.0559
   63SAPC  H16X 5116   3.031   5.516   8.612 -1.2918  0.6345  0.2732
   63SAPC  H16Y 5117   2.961   5.362   8.533 -1.9175 -0.3635 -1.2435
   63SAPC  C317 5118   2.866   5.394   8.708  0.4996  0.3073 -0.1850
   63SAPC  H17X 5119   2.776   5.340   8.672  0.5577  0.0602  0.0385
   63SAPC  H17Y 5120   2.842   5.486   8.766 -1.7017  0.4223 -1.1723
   63SAPC  C318 5121   2.952   5.304   8.794 -0.6080  0.0876 -0.3665
   63SAPC  H18X 5122   2.882   5.259   8.867  0.3549  0.6688  0.9591
   63SAPC  H18Y 5123   3.026   5.366   8.849 -1.5712 -1.4193  2.8450
   63SAPC  H18Z 5124   3.004   5.227   8.733  0.6582 -0.3316  1.1497
   64SAPC     N 5125   5.283   6.560   6.117 -0.2535  0.6471  0.0409
   64SAPC   C12 5126   5.287   6.611   6.261 -0.1348  0.1803 -0.8224
   64SAPC  H12A 5127   5.319   6.537   6.333  0.7285  0.4834 -0.8781
   64SAPC  H12B 5128   5.191   6.645   6.297  0.2127  0.8714 -0.5375
   64SAPC   C13 5129   5.257   6.666   6.019 -0.5611 -0.7026  0.6050
   64SAPC  H13A 5130   5.158   6.708   6.027 -1.3029 -1.9877 -1.2359
   64SAPC  H13B 5131   5.332   6.743   6.034 -1.3586  0.2795 -0.2858
   64SAPC  H13C 5132   5.273   6.636   5.917 -3.0529  0.0899 -0.0990
   64SAPC   C14 5133   5.412   6.495   6.087  0.1605  0.1942  0.2630
   64SAPC  H14A 5134   5.415   6.459   5.985 -0.9245  0.1960  0.2215
   64SAPC  H14B 5135   5.490   6.568   6.101  0.0260  0.9485 -2.3412
   64SAPC  H14C 5136   5.428   6.412   6.154 -2.0536 -1.0153 -0.5770
   64SAPC   C15 5137   5.172   6.453   6.109 -0.1480 -0.1071  0.3157
   64SAPC  H15A 5138   5.075   6.494   6.133  1.8037  3.9505  2.4120
   64SAPC  H15B 5139   5.161   6.407   6.012 -1.6020  1.6259 -0.4096
   64SAPC  H15C 5140   5.193   6.382   6.188 -1.3961  0.4295  1.1628
   64SAPC   C11 5141   5.375   6.742   6.296  0.1581  0.8129 -0.3576
   64SAPC  H11A 5142   5.480   6.723   6.265  1.2107  0.2970  3.1394
   64SAPC  H11B 5143   5.378   6.758   6.406  1.8069  1.3136 -0.4549
   64SAPC     P 5144   5.176   6.918   6.275  0.5251 -0.1013 -0.1635
   64SAPC   O13 5145   5.146   7.023   6.179 -0.1421 -0.6501  0.0658
   64SAPC   O14 5146   5.073   6.814   6.300  0.6086 -0.5776  0.1537
   64SAPC   O12 5147   5.314   6.848   6.222  0.0558 -0.1376  0.3563
   64SAPC   O11 5148   5.215   6.984   6.414 -0.1390 -0.4129 -0.1994
   64SAPC    C1 5149   5.337   7.054   6.435 -0.6461  0.3249 -0.2083
   64SAPC    HA 5150   5.424   6.999   6.392 -0.3238  0.0083  0.8328
   64SAPC    HB 5151   5.346   7.157   6.394  1.4263  0.6699  0.9944
   64SAPC    C2 5152   5.368   7.056   6.589 -0.4140 -0.2578  0.0367
   64SAPC    HS 5153   5.456   7.124   6.598 -0.4282 -0.2935  0.4529
   64SAPC   O21 5154   5.410   6.922   6.628  0.2595 -0.7152  0.2812
   64SAPC   C21 5155   5.498   6.919   6.731  0.0491 -0.4394  1.0508
   64SAPC   O22 5156   5.565   7.014   6.768  0.2597  0.1755 -0.7109
   64SAPC   C22 5157   5.517   6.780   6.782 -0.3676  0.2732  0.3591
   64SAPC   H2R 5158   5.604   6.795   6.848 -0.4855  2.1722  0.1518
   64SAPC   H2S 5159   5.417   6.753   6.823 -1.4264  0.4990 -1.9086
   64SAPC    C3 5160   5.263   7.117   6.688 -0.4247 -0.2961 -0.1982
   64SAPC    HX 5161   5.170   7.059   6.670 -1.6928  1.5924 -0.0124
   64SAPC    HY 5162   5.230   7.217   6.653  1.4212  1.2265  2.1642
   64SAPC   O31 5163   5.302   7.105   6.831  0.0087  0.7245 -0.0353
   64SAPC   C31 5164   5.360   7.213   6.877  0.2634  0.3467  0.2552
   64SAPC   O32 5165   5.377   7.316   6.808 -0.5948  0.2788  0.1865
   64SAPC   C32 5166   5.414   7.192   7.024  0.1193 -0.4677  1.1344
   64SAPC   H2X 5167   5.524   7.204   7.015 -0.2939  2.3801 -2.0275
   64SAPC   H2Y 5168   5.379   7.088   7.047  2.3975 -1.6949 -0.5314
   64SAPC   C23 5169   5.558   6.675   6.667  0.3746 -0.7252 -0.0825
   64SAPC   H3R 5170   5.626   6.717   6.589  0.4546  2.0106  1.3441
   64SAPC   H3S 5171   5.465   6.654   6.611 -0.3358  0.0649  0.7821
   64SAPC   C24 5172   5.619   6.557   6.732  0.1617  0.2033 -0.2813
   64SAPC   H4R 5173   5.580   6.467   6.680 -0.2806 -0.2451  0.8017
   64SAPC   H4S 5174   5.565   6.533   6.826 -1.3685 -1.4541 -1.5011
   64SAPC   C25 5175   5.770   6.556   6.735 -0.0872 -0.1027 -0.0539
   64SAPC   H5R 5176   5.825   6.575   6.642 -0.3445  2.2970  0.2104
   64SAPC   C26 5177   5.850   6.546   6.843 -0.2407  0.0158 -0.0163
   64SAPC   H6R 5178   5.957   6.537   6.821 -0.0995  0.2383  0.5676
   64SAPC   C27 5179   5.816   6.526   6.986 -0.4866 -0.4079  0.5968
   64SAPC   H7R 5180   5.798   6.419   7.011 -3.5833 -0.2992 -0.6798
   64SAPC   H7S 5181   5.719   6.578   7.000 -0.8515 -0.7825 -0.4574
   64SAPC   C28 5182   5.917   6.583   7.089  1.0765 -0.0320 -0.4089
   64SAPC   H8R 5183   6.002   6.640   7.048  1.9626 -2.6453 -2.4614
   64SAPC   C29 5184   5.900   6.560   7.220 -0.2431 -0.2255  0.2992
   64SAPC   H9R 5185   5.983   6.601   7.280  1.7740  1.4784 -3.3013
   64SAPC  C210 5186   5.788   6.489   7.293  0.2401 -0.2788 -1.3597
   64SAPC  H10R 5187   5.811   6.393   7.343 -3.9441 -0.9210 -0.3186
   64SAPC  H10S 5188   5.704   6.470   7.223  0.4837  0.7513 -1.9570
   64SAPC  C211 5189   5.745   6.586   7.405  0.0609  0.1761 -0.3086
   64SAPC  H11R 5190   5.695   6.675   7.363  0.3339 -0.7172 -2.6684
   64SAPC  C212 5191   5.782   6.595   7.531 -0.2270 -0.2532 -0.1585
   64SAPC  H12R 5192   5.730   6.667   7.597 -1.3989 -1.5363  0.3700
   64SAPC  C213 5193   5.885   6.507   7.597 -0.3143  0.3945 -0.1443
   64SAPC  H13R 5194   5.960   6.470   7.523 -0.0205  0.6070  0.0447
   64SAPC  H13S 5195   5.826   6.424   7.639 -3.5355  0.6448 -3.6689
   64SAPC  C214 5196   5.974   6.584   7.694  0.4216 -0.6676 -0.2467
   64SAPC  H14R 5197   6.005   6.686   7.665 -2.5535  0.1635 -0.8751
   64SAPC  C215 5198   6.009   6.550   7.818  0.4151 -0.4716  0.7138
   64SAPC  H15R 5199   6.079   6.609   7.879  1.8839 -1.8503  0.4263
   64SAPC  C216 5200   5.975   6.421   7.888 -0.2708  0.5130  0.0652
   64SAPC  H16R 5201   6.066   6.368   7.921 -1.0572 -1.1941 -0.3792
   64SAPC  H16S 5202   5.911   6.356   7.824  1.0035  1.0258 -1.7922
   64SAPC  C217 5203   5.897   6.456   8.013  0.5624  0.4544 -1.1862
   64SAPC  H17R 5204   5.806   6.516   7.991  0.6377  1.3515  0.7704
   64SAPC  H17S 5205   5.962   6.525   8.071  1.3867  1.8691 -3.6474
   64SAPC  C218 5206   5.854   6.338   8.112 -0.0338  0.6705 -0.2020
   64SAPC  H18R 5207   5.941   6.298   8.169 -0.6418 -0.1762  0.1598
   64SAPC  H18S 5208   5.822   6.250   8.053 -2.2100  0.6434  0.9004
   64SAPC  C219 5209   5.735   6.382   8.196 -0.3085  0.2249  0.3221
   64SAPC  H19R 5210   5.699   6.302   8.264  3.3015 -0.6074  1.4655
   64SAPC  H19S 5211   5.653   6.397   8.123  0.5199  1.6861 -0.3500
   64SAPC  C220 5212   5.768   6.509   8.283  0.1127  0.0224  0.2356
   64SAPC  H20R 5213   5.856   6.494   8.349  2.5538 -0.2508 -2.8658
   64SAPC  H20S 5214   5.675   6.554   8.325 -1.3094 -1.2663 -1.3947
   64SAPC  H20T 5215   5.810   6.586   8.216  1.0263 -2.8328 -2.7271
   64SAPC   C33 5216   5.362   7.300   7.122 -0.4224 -1.0691  0.1651
   64SAPC   H3X 5217   5.253   7.312   7.108 -0.5088 -0.0805  1.5020
   64SAPC   H3Y 5218   5.400   7.400   7.092 -0.9836 -0.8797  0.0679
   64SAPC   C34 5219   5.391   7.260   7.268  0.0009  0.1784  0.0254
   64SAPC   H4X 5220   5.496   7.268   7.303 -0.7469  0.7868  2.2950
   64SAPC   H4Y 5221   5.368   7.152   7.278  1.1505 -0.2094 -1.1857
   64SAPC   C35 5222   5.306   7.327   7.374 -0.4589 -0.4534 -0.4360
   64SAPC   H5X 5223   5.200   7.296   7.365 -0.2124 -0.9932 -1.5158
   64SAPC   H5Y 5224   5.309   7.435   7.347  0.3141 -0.4015 -0.1763
   64SAPC   C36 5225   5.359   7.295   7.518 -0.0247  0.4257  0.0511
   64SAPC   H6X 5226   5.299   7.347   7.596 -0.1626  0.3154  0.0163
   64SAPC   H6Y 5227   5.470   7.306   7.524 -0.0086  0.9537 -1.0138
   64SAPC   C37 5228   5.344   7.145   7.543  0.7835 -0.3604  1.0017
   64SAPC   H7X 5229   5.422   7.096   7.482  0.9007  0.7193  0.2646
   64SAPC   H7Y 5230   5.243   7.118   7.505  2.0753 -0.5039 -2.7294
   64SAPC   C38 5231   5.367   7.119   7.694 -0.1278  0.7294  0.5725
   64SAPC   H8X 5232   5.459   7.170   7.731 -0.0976 -0.4415  2.2026
   64SAPC   H8Y 5233   5.383   7.009   7.689 -0.6983  0.6753 -3.0878
   64SAPC   C39 5234   5.244   7.149   7.776 -0.3856 -0.1909  0.3844
   64SAPC   H9X 5235   5.170   7.077   7.737  2.2714 -2.6430 -0.4673
   64SAPC   H9Y 5236   5.208   7.253   7.760  0.7333 -0.1913 -3.3201
   64SAPC  C310 5237   5.275   7.131   7.926 -0.2469  0.1352  0.3767
   64SAPC  H10X 5238   5.385   7.143   7.935 -0.3278  2.0414 -0.7232
   64SAPC  H10Y 5239   5.248   7.030   7.962  2.9911 -0.9059  0.2218
   64SAPC  C311 5240   5.207   7.236   8.018 -0.4184 -0.4555 -0.0315
   64SAPC  H11X 5241   5.104   7.200   8.038 -0.2794 -0.5895  0.4510
   64SAPC  H11Y 5242   5.207   7.333   7.962 -0.7869 -0.7666 -0.5798
   64SAPC  C312 5243   5.273   7.252   8.151  0.1899 -0.2473  0.5784
   64SAPC  H12X 5244   5.378   7.216   8.152 -0.1697 -1.3241  0.6097
   64SAPC  H12Y 5245   5.215   7.199   8.228 -0.7612  0.5794  0.4553
   64SAPC  C313 5246   5.279   7.402   8.191 -0.0493  0.4771  0.0957
   64SAPC  H13X 5247   5.322   7.457   8.105  0.7154  1.3290  0.9906
   64SAPC  H13Y 5248   5.351   7.418   8.274 -1.0248 -0.4918  1.1591
   64SAPC  C314 5249   5.141   7.470   8.217  0.8912  0.3612 -0.2406
   64SAPC  H14X 5250   5.075   7.449   8.131 -0.8605  1.2101  0.8427
   64SAPC  H14Y 5251   5.153   7.580   8.210 -0.5364  0.5854  0.3856
   64SAPC  C315 5252   5.061   7.432   8.344 -0.5470  0.1408  0.9115
   64SAPC  H15X 5253   5.029   7.328   8.321 -0.6335 -0.0240  1.7241
   64SAPC  H15Y 5254   4.973   7.495   8.371 -0.1137  0.4907  1.5393
   64SAPC  C316 5255   5.154   7.423   8.464  0.7760  0.1146  0.6216
   64SAPC  H16X 5256   5.187   7.528   8.484  1.8704 -0.2101  0.5991
   64SAPC  H16Y 5257   5.236   7.348   8.457  1.6129  0.8546  1.9334
   64SAPC  C317 5258   5.082   7.379   8.594  0.3416  0.5289  0.4483
   64SAPC  H17X 5259   5.149   7.353   8.679 -1.6533  0.6744  2.1556
   64SAPC  H17Y 5260   5.019   7.289   8.579 -0.2520  1.2244 -1.6636
   64SAPC  C318 5261   4.988   7.481   8.654  0.7674 -0.1280  0.0919
   64SAPC  H18X 5262   5.043   7.575   8.676  1.4698 -0.0147 -1.9295
   64SAPC  H18Y 5263   4.947   7.446   8.752 -0.2378 -0.5235 -0.4533
   64SAPC  H18Z 5264   4.906   7.523   8.593 -0.6037  3.8889  4.1681
   65SAPC     N 5265   4.882   1.721   6.009  0.5687  0.5031 -0.6645
   65SAPC   C12 5266   4.972   1.728   6.128 -0.6632 -0.4646  0.1014
   65SAPC  H12A 5267   5.077   1.708   6.114 -0.6961 -1.2210  0.8343
   65SAPC  H12B 5268   4.947   1.644   6.191 -1.1611 -1.0321 -0.8222
   65SAPC   C13 5269   4.907   1.836   5.921  0.1642  0.0933  0.5313
   65SAPC  H13A 5270   4.852   1.917   5.967 -1.6133 -0.0274 -1.2210
   65SAPC  H13B 5271   5.013   1.855   5.920 -0.1465  2.0876  0.9160
   65SAPC  H13C 5272   4.875   1.814   5.820  0.7312  0.3276  0.2993
   65SAPC   C14 5273   4.902   1.599   5.928 -0.0937 -0.2194  0.7139
   65SAPC  H14A 5274   4.821   1.576   5.860  0.3990 -0.8535  0.3299
   65SAPC  H14B 5275   4.987   1.605   5.861 -2.5274  1.3649 -2.4770
   65SAPC  H14C 5276   4.914   1.513   5.993 -0.8873  1.5314  3.3311
   65SAPC   C15 5277   4.732   1.720   6.048 -0.4216 -0.6429  0.3747
   65SAPC  H15A 5278   4.708   1.650   6.126  0.8283 -0.9620  0.5045
   65SAPC  H15B 5279   4.706   1.821   6.073 -1.0608 -0.5162 -0.7220
   65SAPC  H15C 5280   4.684   1.692   5.955 -1.9513  1.2474  0.5456
   65SAPC   C11 5281   4.952   1.855   6.219 -0.1917 -0.2265  0.3857
   65SAPC  H11A 5282   5.000   1.847   6.319 -0.1911 -1.0574  0.3187
   65SAPC  H11B 5283   4.843   1.865   6.233 -0.0803  1.5599  0.3003
   65SAPC     P 5284   4.976   2.116   6.195 -0.0441  0.1660 -0.1447
   65SAPC   O13 5285   5.057   2.201   6.112 -1.3197 -0.0022  0.3428
   65SAPC   O14 5286   4.832   2.151   6.185  0.1829 -0.4235 -1.1984
   65SAPC   O12 5287   4.999   1.968   6.148 -0.6934  0.6962  0.1354
   65SAPC   O11 5288   5.027   2.131   6.338  0.5037 -0.1697 -0.4226
   65SAPC    C1 5289   5.164   2.124   6.367 -0.0438 -0.0974  0.3927
   65SAPC    HA 5290   5.231   2.087   6.286  0.0154  0.9616 -0.0505
   65SAPC    HB 5291   5.192   2.231   6.374  0.3356 -0.2448  1.4173
   65SAPC    C2 5292   5.191   2.043   6.488  0.5370 -0.4674  0.6569
   65SAPC    HS 5293   5.179   1.935   6.467  0.8361 -0.3130 -0.3324
   65SAPC   O21 5294   5.095   2.077   6.585  0.1437 -0.5441 -0.1028
   65SAPC   C21 5295   4.975   2.014   6.597 -0.6487 -0.4337 -0.4753
   65SAPC   O22 5296   4.936   1.912   6.554  0.2097 -0.1824  0.3444
   65SAPC   C22 5297   4.912   2.099   6.714  0.4935  0.4405 -0.8659
   65SAPC   H2R 5298   4.949   2.084   6.817 -0.6896  2.1748 -0.1512
   65SAPC   H2S 5299   4.934   2.207   6.702 -2.8554  1.7017  2.4657
   65SAPC    C3 5300   5.331   2.088   6.537  0.5748 -0.5864  0.7412
   65SAPC    HX 5301   5.326   2.197   6.557  1.3128 -0.5555  0.8071
   65SAPC    HY 5302   5.407   2.063   6.460 -0.6965  1.2315 -1.2372
   65SAPC   O31 5303   5.361   2.004   6.655  0.0072 -0.1719  0.3801
   65SAPC   C31 5304   5.447   2.062   6.731 -0.1111 -0.5728  0.9097
   65SAPC   O32 5305   5.520   2.152   6.694 -0.0424 -0.3408 -0.3482
   65SAPC   C32 5306   5.464   1.991   6.856 -0.5619  0.8573 -0.2349
   65SAPC   H2X 5307   5.571   1.961   6.860 -0.8637 -0.1028  2.0904
   65SAPC   H2Y 5308   5.402   1.899   6.862 -0.8641  1.1141  0.8341
   65SAPC   C23 5309   4.761   2.076   6.714 -0.2760 -0.5132 -0.3539
   65SAPC   H3R 5310   4.750   1.967   6.729  0.6796 -0.5999 -0.2334
   65SAPC   H3S 5311   4.719   2.104   6.615 -0.8913  2.1018  0.5573
   65SAPC   C24 5312   4.690   2.151   6.830 -0.5458  0.5132 -0.3131
   65SAPC   H4R 5313   4.726   2.105   6.925  0.9920 -1.4347 -1.7553
   65SAPC   H4S 5314   4.582   2.127   6.843 -0.4955  1.6532  3.7098
   65SAPC   C25 5315   4.713   2.296   6.824 -0.1527 -0.0841  0.5720
   65SAPC   H5R 5316   4.754   2.329   6.727  0.1723 -0.3178  0.6298
   65SAPC   C26 5317   4.702   2.387   6.921  0.0466  0.1910  0.3271
   65SAPC   H6R 5318   4.726   2.491   6.896  2.4014 -0.7370 -1.6041
   65SAPC   C27 5319   4.653   2.361   7.057  0.1382 -0.4231  0.0288
   65SAPC   H7R 5320   4.694   2.262   7.085 -0.2268 -0.5686  0.0534
   65SAPC   H7S 5321   4.542   2.354   7.058  0.1867 -2.9296 -2.2078
   65SAPC   C28 5322   4.690   2.470   7.153 -0.1594  0.1242 -0.2017
   65SAPC   H8R 5323   4.763   2.546   7.122 -1.0962  1.6896  1.2213
   65SAPC   C29 5324   4.627   2.496   7.269 -0.1599  0.0079  0.1085
   65SAPC   H9R 5325   4.666   2.576   7.334 -1.3989  0.3546  0.4491
   65SAPC  C210 5326   4.506   2.415   7.336 -0.4737 -0.0165 -0.2539
   65SAPC  H10R 5327   4.556   2.326   7.379  0.6823  2.1581  3.3219
   65SAPC  H10S 5328   4.437   2.375   7.259  0.7420 -0.6811 -1.0286
   65SAPC  C211 5329   4.438   2.495   7.443 -0.1877  0.8175  0.5109
   65SAPC  H11R 5330   4.404   2.591   7.402  0.4230 -0.1473 -2.5012
   65SAPC  C212 5331   4.413   2.464   7.572  0.4526  0.1738 -0.7174
   65SAPC  H12R 5332   4.347   2.529   7.632 -0.9001 -2.8544  1.2884
   65SAPC  C213 5333   4.453   2.331   7.629 -0.1247  0.3868  0.6054
   65SAPC  H13R 5334   4.562   2.311   7.639  0.0354  0.7417 -0.3272
   65SAPC  H13S 5335   4.416   2.249   7.563  0.0773  0.1246  0.8120
   65SAPC  C214 5336   4.381   2.308   7.755 -0.0066  0.7075  0.2766
   65SAPC  H14R 5337   4.275   2.280   7.751  0.0026  0.8468 -1.7622
   65SAPC  C215 5338   4.438   2.338   7.874 -0.1145 -0.0741 -0.3467
   65SAPC  H15R 5339   4.375   2.342   7.963 -0.1134  1.2776 -0.3724
   65SAPC  C216 5340   4.574   2.409   7.889  0.3858  0.0570  0.3550
   65SAPC  H16R 5341   4.560   2.513   7.854  1.0305  0.1439  0.3453
   65SAPC  H16S 5342   4.651   2.352   7.831  1.8695  0.9235  1.4045
   65SAPC  C217 5343   4.619   2.410   8.037 -0.3051  0.4254 -0.4207
   65SAPC  H17R 5344   4.723   2.449   8.037 -0.0927 -0.1382 -0.6986
   65SAPC  H17S 5345   4.624   2.304   8.069 -2.6162  0.5525  0.6133
   65SAPC  C218 5346   4.538   2.494   8.142 -0.0525 -0.5121 -0.0068
   65SAPC  H18R 5347   4.433   2.459   8.128  0.0132 -0.4643 -0.6634
   65SAPC  H18S 5348   4.555   2.596   8.102 -1.3251 -0.3630 -0.2293
   65SAPC  C219 5349   4.596   2.483   8.283  0.7351 -0.4818  0.0316
   65SAPC  H19R 5350   4.585   2.384   8.332  2.8757  0.5267  2.7938
   65SAPC  H19S 5351   4.539   2.549   8.352 -0.8010  1.0359 -2.5326
   65SAPC  C220 5352   4.741   2.534   8.295  0.3184  0.1646 -0.2837
   65SAPC  H20R 5353   4.822   2.484   8.237  1.4225 -0.4955  1.7110
   65SAPC  H20S 5354   4.776   2.529   8.400 -1.4843  0.1924  0.3418
   65SAPC  H20T 5355   4.746   2.639   8.259  0.2510  0.8489  1.5985
   65SAPC   C33 5356   5.437   2.077   6.987 -0.0560  0.1259  0.1984
   65SAPC   H3X 5357   5.328   2.089   7.002 -0.0789  0.2314 -0.0542
   65SAPC   H3Y 5358   5.485   2.177   6.976  0.2022 -0.1363 -1.2452
   65SAPC   C34 5359   5.499   2.005   7.115 -0.4170  0.4989  0.2596
   65SAPC   H4X 5360   5.482   1.895   7.117 -0.9470  0.5052 -1.7607
   65SAPC   H4Y 5361   5.444   2.026   7.210  1.0831  1.1740  1.0171
   65SAPC   C35 5362   5.645   2.038   7.141 -0.1230 -0.3948  0.6381
   65SAPC   H5X 5363   5.669   2.145   7.125  0.0344 -0.5046  0.0811
   65SAPC   H5Y 5364   5.701   1.983   7.062  0.8110 -0.7776  1.5428
   65SAPC   C36 5365   5.699   1.999   7.282  0.4978 -0.1887  0.3258
   65SAPC   H6X 5366   5.809   2.014   7.283  0.5496 -0.5911  1.4833
   65SAPC   H6Y 5367   5.677   1.890   7.294 -1.3100 -0.3431 -2.9958
   65SAPC   C37 5368   5.640   2.084   7.404 -0.3227  0.7903  0.7250
   65SAPC   H7X 5369   5.529   2.089   7.401 -0.2606  1.8172 -0.5216
   65SAPC   H7Y 5370   5.689   2.184   7.399  0.1137  0.5421 -3.2662
   65SAPC   C38 5371   5.667   2.013   7.533  0.0755 -0.0221 -0.0968
   65SAPC   H8X 5372   5.776   2.015   7.554 -0.0969  2.0050  0.8230
   65SAPC   H8Y 5373   5.611   1.918   7.549 -0.4800  0.4458  0.8244
   65SAPC   C39 5374   5.628   2.096   7.657  0.8223 -0.2251 -0.6987
   65SAPC   H9X 5375   5.519   2.114   7.644  0.5793 -2.2282 -1.7128
   65SAPC   H9Y 5376   5.681   2.194   7.649 -0.1431  0.2991 -0.9100
   65SAPC  C310 5377   5.667   2.034   7.802  0.2471  0.8388  0.5515
   65SAPC  H10X 5378   5.638   1.927   7.793  0.4788  0.6974  1.3976
   65SAPC  H10Y 5379   5.606   2.088   7.877 -0.0050  0.2052  0.8112
   65SAPC  C311 5380   5.819   2.050   7.831  0.1424 -0.2361  0.0920
   65SAPC  H11X 5381   5.850   2.154   7.807  1.0768 -0.4041  0.4946
   65SAPC  H11Y 5382   5.877   1.987   7.761  0.8041 -1.0296  1.3028
   65SAPC  C312 5383   5.858   2.022   7.979  0.4941 -0.2691 -0.5268
   65SAPC  H12X 5384   5.837   1.914   7.997  2.8411 -0.6793  0.1182
   65SAPC  H12Y 5385   5.784   2.081   8.037  0.2290 -0.6063 -0.5151
   65SAPC  C313 5386   6.004   2.048   8.010 -0.3694 -0.4972  0.5848
   65SAPC  H13X 5387   6.062   2.020   7.919 -2.1727 -1.8468 -0.1992
   65SAPC  H13Y 5388   6.019   1.994   8.106 -2.5320 -0.2325  1.1143
   65SAPC  C314 5389   6.022   2.194   8.052  0.2509 -0.1384  0.2025
   65SAPC  H14X 5390   5.944   2.220   8.127 -0.8729 -2.7981  0.0527
   65SAPC  H14Y 5391   6.016   2.258   7.961  1.8361 -0.2023  0.0162
   65SAPC  C315 5392   6.164   2.228   8.115  0.1872  0.4430  0.0015
   65SAPC  H15X 5393   6.244   2.181   8.055  0.7036  0.9843  0.2565
   65SAPC  H15Y 5394   6.180   2.197   8.220 -1.4135  2.2412  0.8446
   65SAPC  C316 5395   6.183   2.380   8.123  0.2630  0.8442  0.1700
   65SAPC  H16X 5396   6.126   2.416   8.212 -1.4008 -1.1105 -0.0352
   65SAPC  H16Y 5397   6.158   2.418   8.021  3.7797 -0.2848 -1.2489
   65SAPC  C317 5398   6.328   2.397   8.166 -0.0557  0.1195 -0.2255
   65SAPC  H17X 5399   6.349   2.506   8.160  1.4464 -0.1716 -0.7041
   65SAPC  H17Y 5400   6.400   2.348   8.097  0.0510 -1.4006  0.9164
   65SAPC  C318 5401   6.361   2.352   8.316 -0.3459  0.3563 -0.6509
   65SAPC  H18X 5402   6.291   2.395   8.391 -0.7522  0.2337 -0.9526
   65SAPC  H18Y 5403   6.466   2.377   8.342 -0.3771  0.2039 -0.3784
   65SAPC  H18Z 5404   6.363   2.242   8.326  1.1933  0.3084 -1.1760
   66SAPC     N 5405   3.317   0.526   5.786 -0.4883 -0.3849 -0.3408
   66SAPC   C12 5406   3.272   0.599   5.913 -0.3407 -0.4611 -0.5758
   66SAPC  H12A 5407   3.165   0.610   5.908 -0.4087 -0.2718  0.8902
   66SAPC  H12B 5408   3.314   0.699   5.913 -0.3072 -0.4758 -0.9612
   66SAPC   C13 5409   3.226   0.410   5.763 -0.7139  0.0867  0.1310
   66SAPC  H13A 5410   3.232   0.334   5.841  1.8756 -1.7309 -1.6515
   66SAPC  H13B 5411   3.122   0.438   5.749 -0.2808  0.6812 -2.2481
   66SAPC  H13C 5412   3.261   0.366   5.671  0.3857 -1.1041  1.0835
   66SAPC   C14 5413   3.322   0.631   5.676 -0.1459 -0.4676  0.1468
   66SAPC  H14A 5414   3.383   0.588   5.598  0.5241 -2.1152  1.5244
   66SAPC  H14B 5415   3.227   0.665   5.637  1.0399  1.1743 -1.5027
   66SAPC  H14C 5416   3.375   0.719   5.709  0.6146 -0.6479 -0.5635
   66SAPC   C15 5417   3.456   0.469   5.813 -0.1021 -0.4396  0.1307
   66SAPC  H15A 5418   3.507   0.412   5.737 -2.4307 -0.8352 -1.2319
   66SAPC  H15B 5419   3.516   0.553   5.844  1.4122 -1.8408  1.1937
   66SAPC  H15C 5420   3.450   0.409   5.903  3.2583  0.2022  0.9069
   66SAPC   C11 5421   3.313   0.540   6.050 -0.0133 -0.4186  0.1577
   66SAPC  H11A 5422   3.248   0.587   6.127 -1.1140  1.0452 -1.6025
   66SAPC  H11B 5423   3.410   0.580   6.086 -1.1507  1.3424  1.4508
   66SAPC     P 5424   3.179   0.311   6.081 -0.6499 -0.1379  0.5291
   66SAPC   O13 5425   3.067   0.403   6.107  0.7427  0.4201 -0.5629
   66SAPC   O14 5426   3.178   0.212   5.972  0.0601 -0.0018  0.2442
   66SAPC   O12 5427   3.310   0.396   6.053 -0.7031 -0.3949  0.3498
   66SAPC   O11 5428   3.199   0.241   6.218  0.1931  0.0640 -0.2377
   66SAPC    C1 5429   3.184   0.299   6.347 -0.1331  0.3669  0.4392
   66SAPC    HA 5430   3.088   0.354   6.357 -0.3906 -0.3377  2.0780
   66SAPC    HB 5431   3.184   0.214   6.418 -0.1877 -0.2944 -0.3356
   66SAPC    C2 5432   3.302   0.385   6.397 -1.1759  0.0649  0.6551
   66SAPC    HS 5433   3.317   0.460   6.316  1.6731  0.2791  1.2406
   66SAPC   O21 5434   3.424   0.301   6.407  0.0586 -0.5175 -0.4787
   66SAPC   C21 5435   3.542   0.367   6.414 -0.0107  0.1023  0.1000
   66SAPC   O22 5436   3.550   0.486   6.405 -0.2257 -0.1533  0.7336
   66SAPC   C22 5437   3.657   0.267   6.417  0.0819  0.1899 -0.3934
   66SAPC   H2R 5438   3.636   0.190   6.494  1.8491  0.9510  0.9439
   66SAPC   H2S 5439   3.661   0.227   6.314 -1.7151 -1.1499  0.0144
   66SAPC    C3 5440   3.276   0.461   6.528  0.3941  0.2114  0.1246
   66SAPC    HX 5441   3.216   0.548   6.493  1.5918 -0.3247 -3.7614
   66SAPC    HY 5442   3.372   0.496   6.572 -0.8893  1.4384  2.1194
   66SAPC   O31 5443   3.217   0.365   6.622 -0.1021 -0.0640  0.6583
   66SAPC   C31 5444   3.184   0.407   6.734  0.1151 -0.6054  0.4252
   66SAPC   O32 5445   3.195   0.519   6.778 -0.7071 -0.1484  0.1169
   66SAPC   C32 5446   3.119   0.293   6.815  0.3614  0.4025 -0.4704
   66SAPC   H2X 5447   3.132   0.198   6.759 -1.9223  0.1056 -0.5966
   66SAPC   H2Y 5448   3.010   0.306   6.801 -0.3256 -1.7293  2.0598
   66SAPC   C23 5449   3.794   0.331   6.455  0.3384 -0.5260  0.1318
   66SAPC   H3R 5450   3.808   0.381   6.554  0.8436 -0.6569  0.1301
   66SAPC   H3S 5451   3.817   0.408   6.378 -0.6261 -0.7181 -0.3584
   66SAPC   C24 5452   3.890   0.214   6.459 -0.7341 -0.0155 -0.0050
   66SAPC   H4R 5453   3.847   0.127   6.513  0.0447  0.6945  1.8681
   66SAPC   H4S 5454   3.976   0.241   6.525 -2.2488 -1.7163  2.8548
   66SAPC   C25 5455   3.956   0.183   6.317 -0.3641 -0.0217 -0.3504
   66SAPC   H5R 5456   3.884   0.129   6.254  0.3849 -3.1471  1.2712
   66SAPC   C26 5457   4.083   0.210   6.280 -0.3742  0.6101  0.3458
   66SAPC   H6R 5458   4.109   0.167   6.182  1.4549  0.2846  0.9372
   66SAPC   C27 5459   4.202   0.279   6.356  0.4926  0.3140 -1.0082
   66SAPC   H7R 5460   4.159   0.366   6.410  1.0728  1.6388 -2.5759
   66SAPC   H7S 5461   4.265   0.327   6.278  1.5258  1.2658  0.3664
   66SAPC   C28 5462   4.287   0.186   6.438  0.0182  0.0226  0.2815
   66SAPC   H8R 5463   4.290   0.082   6.403 -1.1997  0.1898 -0.3490
   66SAPC   C29 5464   4.360   0.224   6.543 -0.3311 -0.0050  0.1185
   66SAPC   H9R 5465   4.403   0.136   6.594 -0.2569  0.6508  1.2118
   66SAPC  C210 5466   4.372   0.364   6.589  1.1388 -0.4288  0.4314
   66SAPC  H10R 5467   4.372   0.434   6.503  2.6274  3.0306  3.0035
   66SAPC  H10S 5468   4.478   0.378   6.618  1.9993 -0.8262 -2.2140
   66SAPC  C211 5469   4.266   0.404   6.692  0.2127 -0.1306  0.5911
   66SAPC  H11R 5470   4.165   0.365   6.673 -0.1194  0.6941  0.6097
   66SAPC  C212 5471   4.287   0.479   6.799 -0.7466 -0.2240  0.2747
   66SAPC  H12R 5472   4.209   0.503   6.873 -0.5466  1.2072  0.0569
   66SAPC  C213 5473   4.424   0.538   6.841  0.1740 -0.3838 -0.3395
   66SAPC  H13R 5474   4.481   0.586   6.759  2.2384  0.4524  1.5108
   66SAPC  H13S 5475   4.488   0.451   6.866  0.5688  0.1667  0.6051
   66SAPC  C214 5476   4.425   0.630   6.960 -0.3122 -0.4324  0.1050
   66SAPC  H14R 5477   4.363   0.722   6.959  0.7816  0.3646  1.5672
   66SAPC  C215 5478   4.500   0.628   7.075  0.5944  0.2107 -0.2035
   66SAPC  H15R 5479   4.473   0.705   7.149 -0.9450  0.1665 -0.6820
   66SAPC  C216 5480   4.601   0.522   7.099 -0.3958  0.1607 -0.3857
   66SAPC  H16R 5481   4.642   0.467   7.012  0.9944 -0.6515  0.7314
   66SAPC  H16S 5482   4.552   0.446   7.164 -1.3502  0.6736 -0.4911
   66SAPC  C217 5483   4.723   0.569   7.172 -0.3213  0.5781  0.1268
   66SAPC  H17R 5484   4.682   0.625   7.259  0.1034  3.0672 -1.1928
   66SAPC  H17S 5485   4.785   0.640   7.114  0.4791 -0.6705 -0.6018
   66SAPC  C218 5486   4.804   0.453   7.228  0.4732 -0.5416  0.3780
   66SAPC  H18R 5487   4.735   0.391   7.290 -1.8713  2.8386  1.4279
   66SAPC  H18S 5488   4.878   0.497   7.298 -0.9663  0.9234  1.0761
   66SAPC  C219 5489   4.871   0.364   7.118 -0.0683 -0.6564 -0.1040
   66SAPC  H19R 5490   4.799   0.345   7.034  0.6291 -0.4510 -0.7588
   66SAPC  H19S 5491   4.901   0.263   7.152  0.3715 -0.5350 -0.1302
   66SAPC  C220 5492   5.005   0.419   7.062  0.1508  0.0068  0.6080
   66SAPC  H20R 5493   5.080   0.433   7.143 -0.1921 -2.1018  1.3599
   66SAPC  H20S 5494   4.983   0.510   7.002 -0.2427  2.8310  4.6533
   66SAPC  H20T 5495   5.028   0.337   6.991 -1.9593  0.2444 -0.4216
   66SAPC   C33 5496   3.182   0.283   6.955 -0.1656 -0.1439 -0.7296
   66SAPC   H3X 5497   3.102   0.247   7.023  0.4013 -0.1800 -0.0727
   66SAPC   H3Y 5498   3.215   0.383   6.990 -0.9900  0.1838 -0.8690
   66SAPC   C34 5499   3.304   0.182   6.949  0.3932  0.1834  0.8516
   66SAPC   H4X 5500   3.361   0.199   6.855 -1.5317 -0.2160 -0.4711
   66SAPC   H4Y 5501   3.266   0.079   6.929 -2.1078  1.2488 -0.3974
   66SAPC   C35 5502   3.396   0.203   7.071 -0.1260 -0.1058  0.4897
   66SAPC   H5X 5503   3.420   0.312   7.067 -2.0965  0.3508 -0.4336
   66SAPC   H5Y 5504   3.491   0.149   7.053  0.8027  0.8800  2.1943
   66SAPC   C36 5505   3.336   0.160   7.204 -0.1218 -0.4306 -0.0820
   66SAPC   H6X 5506   3.351   0.051   7.224  0.6817  0.0491  2.2730
   66SAPC   H6Y 5507   3.225   0.166   7.207 -0.1215  0.2715  3.9532
   66SAPC   C37 5508   3.384   0.238   7.322 -0.1799 -0.4483  0.1438
   66SAPC   H7X 5509   3.328   0.211   7.414 -0.6061  0.9041  0.3008
   66SAPC   H7Y 5510   3.365   0.346   7.305 -2.5035 -0.6379  1.2098
   66SAPC   C38 5511   3.529   0.208   7.349 -0.0427  0.5332  0.2403
   66SAPC   H8X 5512   3.587   0.246   7.263 -0.8008  0.2686 -0.4013
   66SAPC   H8Y 5513   3.524   0.097   7.355 -1.8334  0.4658 -1.3473
   66SAPC   C39 5514   3.593   0.268   7.476  0.5390 -0.0873  0.5255
   66SAPC   H9X 5515   3.523   0.262   7.562  1.8020 -3.1323  1.4729
   66SAPC   H9Y 5516   3.613   0.376   7.461 -2.4518  0.6568  1.2822
   66SAPC  C310 5517   3.716   0.194   7.519 -0.2384 -0.3375 -0.3817
   66SAPC  H10X 5518   3.804   0.238   7.468 -1.8341  1.6252 -1.5629
   66SAPC  H10Y 5519   3.698   0.086   7.497 -2.2064 -0.3558  1.0363
   66SAPC  C311 5520   3.734   0.189   7.677 -0.3004 -0.6192 -0.2438
   66SAPC  H11X 5521   3.824   0.126   7.691  1.9961  2.8673  2.2172
   66SAPC  H11Y 5522   3.655   0.129   7.726 -2.0504  1.2979 -0.5629
   66SAPC  C312 5523   3.768   0.326   7.744  0.0776 -0.2620  0.3297
   66SAPC  H12X 5524   3.691   0.398   7.708 -0.1040 -1.0260 -0.8907
   66SAPC  H12Y 5525   3.863   0.370   7.705 -1.8870  2.4795 -1.7723
   66SAPC  C313 5526   3.780   0.311   7.899 -0.1346 -0.1201  0.1905
   66SAPC  H13X 5527   3.860   0.236   7.918  2.4028  2.4041  0.0357
   66SAPC  H13Y 5528   3.686   0.265   7.936  0.4121 -1.2622  0.1961
   66SAPC  C314 5529   3.812   0.447   7.969  0.4877  0.3353  0.9933
   66SAPC  H14X 5530   3.801   0.437   8.079  0.5276  0.3560  0.9987
   66SAPC  H14Y 5531   3.738   0.524   7.940 -1.5240 -1.7758  0.1707
   66SAPC  C315 5532   3.950   0.487   7.926 -0.7949 -0.2361 -0.3593
   66SAPC  H15X 5533   3.943   0.543   7.830 -0.7639  0.1831 -0.1195
   66SAPC  H15Y 5534   4.008   0.393   7.914 -1.0818 -0.3230 -1.0911
   66SAPC  C316 5535   4.036   0.565   8.028 -0.2960  0.8477 -0.1110
   66SAPC  H16X 5536   4.008   0.526   8.128 -1.3926  0.3583 -0.5950
   66SAPC  H16Y 5537   4.001   0.671   8.022  0.9370  1.1899 -2.7017
   66SAPC  C317 5538   4.186   0.554   7.999  0.3046 -0.1439  0.7437
   66SAPC  H17X 5539   4.196   0.619   7.909 -1.4936  0.0125  0.6219
   66SAPC  H17Y 5540   4.233   0.456   7.977  3.2701  1.5948 -1.4993
   66SAPC  C318 5541   4.267   0.625   8.114 -0.6190  0.3611 -0.0704
   66SAPC  H18X 5542   4.230   0.729   8.127  0.8136  1.1931 -2.0330
   66SAPC  H18Y 5543   4.372   0.637   8.079  0.5061  0.9750  3.2044
   66SAPC  H18Z 5544   4.270   0.559   8.203  0.0677 -1.0132 -1.0734
   67SAPC     N 5545   5.448   3.042   6.282  0.4901 -0.0117  0.4345
   67SAPC   C12 5546   5.520   2.945   6.190 -0.1475  0.2281 -0.2862
   67SAPC  H12A 5547   5.625   2.957   6.210  0.8515 -2.7712 -2.9545
   67SAPC  H12B 5548   5.522   2.977   6.086  0.6607 -2.1456 -1.0550
   67SAPC   C13 5549   5.519   3.172   6.264  0.2537 -0.4503  0.1458
   67SAPC  H13A 5550   5.507   3.217   6.167  0.9578 -0.5822 -0.0081
   67SAPC  H13B 5551   5.487   3.234   6.346 -0.5324  1.2377 -1.3721
   67SAPC  H13C 5552   5.623   3.153   6.288  0.4524  0.1464 -0.2182
   67SAPC   C14 5553   5.302   3.052   6.262 -0.0178  0.2473 -0.0534
   67SAPC  H14A 5554   5.251   3.108   6.339 -3.2060 -2.3430 -0.1017
   67SAPC  H14B 5555   5.267   3.096   6.170 -1.5633 -1.4704 -0.3320
   67SAPC  H14C 5556   5.261   2.953   6.266 -1.1018  0.7218  1.2105
   67SAPC   C15 5557   5.464   3.012   6.422 -0.6631 -0.0703 -0.1747
   67SAPC  H15A 5558   5.398   3.065   6.488  1.4871 -1.1543  3.0984
   67SAPC  H15B 5559   5.450   2.907   6.443  0.6670 -0.0490  0.9460
   67SAPC  H15C 5560   5.561   3.036   6.464  0.4044 -2.5086 -1.0477
   67SAPC   C11 5561   5.480   2.789   6.186  0.4955  0.2594 -0.0867
   67SAPC  H11A 5562   5.533   2.750   6.276  2.2981 -0.4505 -1.4005
   67SAPC  H11B 5563   5.529   2.743   6.098  1.1578 -0.7340  0.7706
   67SAPC     P 5564   5.254   2.690   6.270 -0.2933 -0.6033 -0.2651
   67SAPC   O13 5565   5.115   2.724   6.237  0.0509 -0.2179 -0.1711
   67SAPC   O14 5566   5.292   2.545   6.274  0.0954 -0.2460  0.0686
   67SAPC   O12 5567   5.341   2.766   6.163  0.8985  0.0858 -0.0732
   67SAPC   O11 5568   5.285   2.765   6.410 -0.0787  0.2805 -0.3579
   67SAPC    C1 5569   5.348   2.698   6.516 -0.4407 -0.0569 -0.6732
   67SAPC    HA 5570   5.427   2.631   6.478 -2.2649 -1.2742 -2.5232
   67SAPC    HB 5571   5.393   2.772   6.586  0.3234 -0.7706 -0.3984
   67SAPC    C2 5572   5.244   2.623   6.599  0.2278  0.2656 -0.7408
   67SAPC    HS 5573   5.176   2.576   6.525  2.0664 -0.8541 -1.8103
   67SAPC   O21 5574   5.174   2.714   6.688 -0.9724 -0.2142 -0.0323
   67SAPC   C21 5575   5.052   2.681   6.721  0.1084 -0.2002 -0.0271
   67SAPC   O22 5576   4.983   2.592   6.677  0.5955 -0.0469  0.3798
   67SAPC   C22 5577   5.003   2.778   6.825 -0.0943  0.1187  0.5358
   67SAPC   H2R 5578   4.998   2.880   6.781 -0.5298 -1.1723 -2.6182
   67SAPC   H2S 5579   4.908   2.742   6.871  0.1391 -1.6339 -0.3080
   67SAPC    C3 5580   5.316   2.508   6.678  0.1280  0.3853  0.7057
   67SAPC    HX 5581   5.403   2.556   6.728  2.3755 -1.4035 -1.2370
   67SAPC    HY 5582   5.366   2.443   6.602 -1.3676  0.3049 -0.2562
   67SAPC   O31 5583   5.225   2.423   6.751  0.4534  0.3466 -0.6460
   67SAPC   C31 5584   5.223   2.444   6.887 -0.1307  0.4562 -0.7020
   67SAPC   O32 5585   5.288   2.527   6.951 -0.3973  0.1510 -0.4417
   67SAPC   C32 5586   5.116   2.349   6.942  0.1548  0.2418  0.7402
   67SAPC   H2X 5587   5.145   2.247   6.907  1.8810  1.1514 -0.6243
   67SAPC   H2Y 5588   5.014   2.374   6.906  0.6101  0.3694 -0.5107
   67SAPC   C23 5589   5.101   2.780   6.944 -0.3662  0.4483  0.2013
   67SAPC   H3R 5590   5.201   2.811   6.906 -1.0772  0.2247 -1.9806
   67SAPC   H3S 5591   5.090   2.679   6.989  0.3761 -0.4796 -1.5587
   67SAPC   C24 5592   5.072   2.884   7.051 -0.3511 -0.1993  0.6987
   67SAPC   H4R 5593   5.077   2.983   7.002 -0.5642  0.0232  1.1177
   67SAPC   H4S 5594   5.148   2.890   7.132  0.1593  0.7560  0.1589
   67SAPC   C25 5595   4.938   2.867   7.115  0.7120  0.3075 -0.1931
   67SAPC   H5R 5596   4.860   2.926   7.065  1.1421  1.7304  0.7528
   67SAPC   C26 5597   4.904   2.807   7.230  0.1800  0.2027 -0.3813
   67SAPC   H6R 5598   4.799   2.787   7.255  0.4691 -2.0132 -0.7032
   67SAPC   C27 5599   5.006   2.736   7.319  0.3903  0.0493 -0.1668
   67SAPC   H7R 5600   5.093   2.803   7.333 -0.5821  1.3954 -0.3250
   67SAPC   H7S 5601   5.056   2.648   7.273  2.2202  0.6138  0.6473
   67SAPC   C28 5602   4.956   2.698   7.453  0.1524  0.3994  0.0243
   67SAPC   H8R 5603   4.954   2.590   7.476  0.4304 -0.2937 -2.7405
   67SAPC   C29 5604   4.906   2.780   7.548 -0.0225 -0.4215  0.0009
   67SAPC   H9R 5605   4.872   2.728   7.638  1.9931 -3.2584 -0.7367
   67SAPC  C210 5606   4.903   2.935   7.536 -0.4817 -0.0136 -0.3590
   67SAPC  H10R 5607   4.831   2.984   7.604  1.1745 -0.6384  1.9719
   67SAPC  H10S 5608   4.862   2.952   7.434 -0.8490  2.5039  0.1349
   67SAPC  C211 5609   5.041   2.999   7.547  0.3617  0.2060 -0.1378
   67SAPC  H11R 5610   5.084   3.022   7.448  1.3539 -1.6377 -0.1698
   67SAPC  C212 5611   5.106   3.035   7.658 -0.0501 -0.0203  0.2634
   67SAPC  H12R 5612   5.206   3.077   7.641  0.8316 -1.4158  1.8020
   67SAPC  C213 5613   5.052   3.026   7.799 -0.2564  0.1874  0.4266
   67SAPC  H13R 5614   4.974   3.102   7.820  0.1507  0.1550  2.1761
   67SAPC  H13S 5615   5.130   3.045   7.875  0.6267  0.7277 -0.5958
   67SAPC  C214 5616   5.006   2.883   7.829 -0.3612  0.1514  0.0550
   67SAPC  H14R 5617   5.072   2.804   7.791  0.9336  1.5658 -0.7522
   67SAPC  C215 5618   4.898   2.854   7.900 -0.2393  0.1591  0.7952
   67SAPC  H15R 5619   4.877   2.746   7.901 -3.1113  0.4656 -2.6215
   67SAPC  C216 5620   4.799   2.949   7.961  0.8231  0.4912 -0.5635
   67SAPC  H16R 5621   4.698   2.923   7.920  0.8850 -2.1314  0.7355
   67SAPC  H16S 5622   4.806   3.058   7.942 -1.3089  0.6447 -0.7812
   67SAPC  C217 5623   4.808   2.937   8.112 -0.6619  0.4764 -0.0520
   67SAPC  H17R 5624   4.895   2.994   8.151 -0.4844 -0.0682  0.3602
   67SAPC  H17S 5625   4.831   2.833   8.146  0.5334  1.0873  1.1005
   67SAPC  C218 5626   4.693   2.991   8.194 -0.2345 -0.0702  0.9769
   67SAPC  H18R 5627   4.601   2.930   8.179  0.9864 -1.7071 -0.0480
   67SAPC  H18S 5628   4.668   3.088   8.145  0.2936 -0.1945  0.4462
   67SAPC  C219 5629   4.714   3.003   8.341  0.1486  0.7055 -0.1707
   67SAPC  H19R 5630   4.808   3.062   8.353 -0.5304  2.1471 -1.5241
   67SAPC  H19S 5631   4.723   2.900   8.380 -0.0891  1.6475  2.5900
   67SAPC  C220 5632   4.583   3.077   8.393 -0.4145  0.3262 -1.0839
   67SAPC  H20R 5633   4.607   3.110   8.496  3.2417 -2.7082 -0.7328
   67SAPC  H20S 5634   4.500   3.003   8.400  1.6442 -1.9916  1.2337
   67SAPC  H20T 5635   4.564   3.170   8.335  2.9452  1.2832 -0.8870
   67SAPC   C33 5636   5.118   2.337   7.101  0.4577 -0.3574  0.2820
   67SAPC   H3X 5637   5.083   2.428   7.154  1.7674  0.4074 -0.1169
   67SAPC   H3Y 5638   5.222   2.333   7.141 -0.9274 -1.1578  4.2684
   67SAPC   C34 5639   5.046   2.213   7.154  0.7176  0.5730 -0.4494
   67SAPC   H4X 5640   5.107   2.125   7.125  0.4303  0.4725 -0.7607
   67SAPC   H4Y 5641   4.948   2.211   7.101  0.6162 -0.0174 -0.2490
   67SAPC   C35 5642   5.019   2.210   7.304 -0.0053  0.0442 -0.6074
   67SAPC   H5X 5643   5.119   2.228   7.347 -1.1236  5.0767  0.4519
   67SAPC   H5Y 5644   4.981   2.110   7.336 -1.3272  0.8059  0.2980
   67SAPC   C36 5645   4.926   2.317   7.356 -0.2879 -0.8626 -0.4669
   67SAPC   H6X 5646   4.849   2.322   7.275 -0.2422 -1.0308 -0.5214
   67SAPC   H6Y 5647   4.976   2.414   7.340  0.2062 -1.0792 -0.2486
   67SAPC   C37 5648   4.866   2.297   7.499  0.3175 -0.0463  0.0986
   67SAPC   H7X 5649   4.817   2.199   7.518  1.6947 -0.4459  1.8783
   67SAPC   H7Y 5650   4.783   2.370   7.512  1.4990  1.6461 -1.3187
   67SAPC   C38 5651   4.968   2.314   7.611 -0.3713 -0.3902 -1.0539
   67SAPC   H8X 5652   5.038   2.397   7.584 -0.4273 -0.5315 -1.6368
   67SAPC   H8Y 5653   5.029   2.222   7.623  0.8012  0.3032 -1.4378
   67SAPC   C39 5654   4.915   2.345   7.757 -0.5825  0.8290 -0.3008
   67SAPC   H9X 5655   4.864   2.253   7.791  0.8991 -0.3030 -0.9996
   67SAPC   H9Y 5656   4.845   2.429   7.735 -0.5319  0.6652 -1.1309
   67SAPC  C310 5657   5.029   2.390   7.846 -0.2481  0.3054 -0.6931
   67SAPC  H10X 5658   5.064   2.483   7.795 -1.0949  0.2196 -1.4590
   67SAPC  H10Y 5659   5.109   2.314   7.856 -0.7859  0.0064  2.1419
   67SAPC  C311 5660   4.994   2.421   7.993  0.4620 -0.7169 -0.1723
   67SAPC  H11X 5661   4.951   2.336   8.051  0.3383 -0.4680  0.1030
   67SAPC  H11Y 5662   4.924   2.507   7.987  1.8257  0.4624  0.3110
   67SAPC  C312 5663   5.119   2.469   8.070 -0.1364  0.0102 -0.1171
   67SAPC  H12X 5664   5.184   2.521   7.996 -2.4767  2.6621 -0.4896
   67SAPC  H12Y 5665   5.170   2.386   8.123 -2.2578 -0.5127  1.2089
   67SAPC  C313 5666   5.085   2.563   8.179  0.1547  0.4347 -0.3840
   67SAPC  H13X 5667   5.053   2.504   8.268 -0.9481  3.2836  1.2500
   67SAPC  H13Y 5668   4.995   2.625   8.160  0.9765  1.1998 -1.9963
   67SAPC  C314 5669   5.199   2.638   8.234 -0.1762 -0.4379  0.2758
   67SAPC  H14X 5670   5.230   2.722   8.168 -1.0580 -0.3003  0.0318
   67SAPC  H14Y 5671   5.276   2.561   8.259  0.6968  0.8183  1.6045
   67SAPC  C315 5672   5.175   2.712   8.371 -0.3055  0.1777 -0.1082
   67SAPC  H15X 5673   5.276   2.749   8.400  0.6905 -1.1411 -1.7026
   67SAPC  H15Y 5674   5.150   2.630   8.442  0.0319  0.4841  0.3719
   67SAPC  C316 5675   5.076   2.830   8.371  0.3980  0.2750  0.3133
   67SAPC  H16X 5676   4.969   2.798   8.368  0.5846 -0.3310  0.1057
   67SAPC  H16Y 5677   5.095   2.886   8.278 -1.5131  0.0537 -0.2556
   67SAPC  C317 5678   5.109   2.923   8.491 -1.0887  0.1061 -0.0301
   67SAPC  H17X 5679   5.064   3.024   8.480 -0.3980  0.4098 -0.1385
   67SAPC  H17Y 5680   5.219   2.939   8.486 -1.0368 -0.3250 -0.2726
   67SAPC  C318 5681   5.058   2.873   8.626  0.4918 -0.6108 -0.1706
   67SAPC  H18X 5682   5.094   2.945   8.703 -2.0745 -2.5241  3.1537
   67SAPC  H18Y 5683   5.098   2.771   8.640  1.0550 -0.2258  1.2783
   67SAPC  H18Z 5684   4.947   2.878   8.621  0.3866  1.0355  1.9210
   68SAPC     N 5685   3.395   1.380   5.840 -0.6389  0.3350  0.4913
   68SAPC   C12 5686   3.526   1.313   5.886  0.2140  0.0896 -1.2898
   68SAPC  H12A 5687   3.610   1.381   5.881 -2.4797  3.6827 -1.7263
   68SAPC  H12B 5688   3.549   1.239   5.811  3.8420  0.1930 -0.4597
   68SAPC   C13 5689   3.271   1.293   5.842 -0.0770  0.1934  0.7377
   68SAPC  H13A 5690   3.188   1.352   5.806 -0.0858  0.9828  1.9768
   68SAPC  H13B 5691   3.290   1.205   5.783  0.2690  1.0742 -0.4945
   68SAPC  H13C 5692   3.250   1.249   5.939  0.5183 -1.8531 -0.0224
   68SAPC   C14 5693   3.375   1.505   5.916  0.1562 -0.0234  0.0127
   68SAPC  H14A 5694   3.463   1.567   5.925  1.0702 -1.3691  0.6377
   68SAPC  H14B 5695   3.307   1.565   5.857  0.1678  0.4965  0.5298
   68SAPC  H14C 5696   3.343   1.488   6.018 -0.7303  0.6974 -0.1312
   68SAPC   C15 5697   3.427   1.431   5.698 -0.0188  0.7613 -0.2200
   68SAPC  H15A 5698   3.512   1.498   5.705 -0.5217  1.2255  2.0711
   68SAPC  H15B 5699   3.436   1.349   5.629 -2.1787  0.9610 -0.8108
   68SAPC  H15C 5700   3.347   1.497   5.668 -0.9433 -0.2551 -0.0448
   68SAPC   C11 5701   3.528   1.254   6.028  0.0556 -0.4594  0.2356
   68SAPC  H11A 5702   3.624   1.199   6.036  0.1622 -0.4057 -0.5816
   68SAPC  H11B 5703   3.440   1.191   6.053 -1.9272  2.5318  1.4228
   68SAPC     P 5704   3.662   1.430   6.165  0.0988  0.0422 -0.3672
   68SAPC   O13 5705   3.755   1.409   6.058 -0.2453 -0.0255 -0.1497
   68SAPC   O14 5706   3.634   1.567   6.214 -0.0404  0.5427 -0.0763
   68SAPC   O12 5707   3.523   1.363   6.119 -0.1365  0.6789  0.1177
   68SAPC   O11 5708   3.710   1.339   6.286  0.4460  0.2099 -0.0939
   68SAPC    C1 5709   3.628   1.330   6.407  0.3539 -0.8615 -0.4953
   68SAPC    HA 5710   3.525   1.298   6.380  0.6852 -1.6805 -0.8172
   68SAPC    HB 5711   3.674   1.252   6.472 -1.0460  0.4560  2.2472
   68SAPC    C2 5712   3.636   1.455   6.497  0.1634  0.0416  0.3507
   68SAPC    HS 5713   3.618   1.538   6.426 -0.5989 -0.2089  0.2443
   68SAPC   O21 5714   3.769   1.458   6.562  0.1495 -0.2870  0.3329
   68SAPC   C21 5715   3.806   1.578   6.598  0.0505 -0.6185  0.1367
   68SAPC   O22 5716   3.744   1.683   6.572 -0.3313  0.2312 -0.1161
   68SAPC   C22 5717   3.945   1.567   6.665 -0.2902  1.3998 -0.0505
   68SAPC   H2R 5718   3.937   1.519   6.766 -1.4596  0.7960 -0.4113
   68SAPC   H2S 5719   3.997   1.498   6.596 -1.1273  0.1951  0.4770
   68SAPC    C3 5720   3.518   1.473   6.598  0.2351 -0.1298  0.6858
   68SAPC    HX 5721   3.421   1.440   6.553  0.0610  0.8902  0.3027
   68SAPC    HY 5722   3.503   1.582   6.614 -1.1790 -0.1768 -0.1254
   68SAPC   O31 5723   3.535   1.405   6.727  0.8096 -0.5601  0.4213
   68SAPC   C31 5724   3.485   1.284   6.732  0.3356  0.0270 -0.0223
   68SAPC   O32 5725   3.448   1.215   6.641  0.3143  0.2732 -0.0119
   68SAPC   C32 5726   3.493   1.232   6.873  0.1622 -0.3954 -0.6899
   68SAPC   H2X 5727   3.593   1.261   6.912  0.2552 -4.0943  2.3922
   68SAPC   H2Y 5728   3.490   1.121   6.866 -0.8293 -0.6301  2.2726
   68SAPC   C23 5729   4.004   1.706   6.674 -0.5714  0.7379  0.1920
   68SAPC   H3R 5730   3.997   1.763   6.579  0.7314 -0.4106 -0.6290
   68SAPC   H3S 5731   4.114   1.699   6.693 -0.7380 -0.5787  0.7624
   68SAPC   C24 5732   3.956   1.779   6.799 -0.7939  0.0275  0.0110
   68SAPC   H4R 5733   3.846   1.794   6.809 -0.5411  0.4936  2.8894
   68SAPC   H4S 5734   3.993   1.883   6.805 -0.6528 -0.1086  3.9644
   68SAPC   C25 5735   4.008   1.709   6.928  0.7594 -0.0630  0.2239
   68SAPC   H5R 5736   4.118   1.709   6.926  0.7832 -1.4755 -1.8899
   68SAPC   C26 5737   3.937   1.656   7.023  0.9405 -0.0017  0.1452
   68SAPC   H6R 5738   3.996   1.625   7.110  1.6319  0.6780 -0.0749
   68SAPC   C27 5739   3.783   1.656   7.045  0.6747  0.4680  0.2070
   68SAPC   H7R 5740   3.736   1.660   6.945  0.1498  1.7894  0.4865
   68SAPC   H7S 5741   3.758   1.754   7.092  3.2479  0.9303  0.7786
   68SAPC   C28 5742   3.727   1.540   7.120 -0.1136 -0.2808 -0.0247
   68SAPC   H8R 5743   3.725   1.450   7.056  1.0371  0.2459 -0.8307
   68SAPC   C29 5744   3.674   1.526   7.239 -0.3704  0.1053 -0.6378
   68SAPC   H9R 5745   3.662   1.425   7.279  2.3710  0.5458  1.5990
   68SAPC  C210 5746   3.655   1.639   7.340  0.6540  0.0612 -0.5112
   68SAPC  H10R 5747   3.574   1.609   7.411  0.3163 -2.6762 -1.9208
   68SAPC  H10S 5748   3.607   1.724   7.286 -0.8689 -1.2038 -1.2476
   68SAPC  C211 5749   3.778   1.679   7.417 -0.4166  0.4339 -0.2046
   68SAPC  H11R 5750   3.871   1.652   7.365 -0.9478  0.3970 -1.1600
   68SAPC  C212 5751   3.784   1.746   7.534 -0.2222  0.0433  0.5683
   68SAPC  H12R 5752   3.880   1.737   7.587 -0.3625  2.7576  1.4486
   68SAPC  C213 5753   3.669   1.810   7.604  0.1764 -0.1548  0.5983
   68SAPC  H13R 5754   3.604   1.866   7.533  1.2307 -0.6998 -0.8541
   68SAPC  H13S 5755   3.719   1.889   7.664 -0.7582 -0.2604  1.5522
   68SAPC  C214 5756   3.575   1.734   7.694  0.9681  0.4636 -0.6145
   68SAPC  H14R 5757   3.516   1.651   7.651 -0.0680  0.5109  0.6508
   68SAPC  C215 5758   3.575   1.754   7.829 -0.0871  0.6962 -0.1720
   68SAPC  H15R 5759   3.492   1.716   7.890  1.6346 -2.0450  0.6433
   68SAPC  C216 5760   3.660   1.855   7.898 -0.0376  0.0425  0.0671
   68SAPC  H16R 5761   3.641   1.958   7.860  0.4891  0.3628  0.6432
   68SAPC  H16S 5762   3.767   1.831   7.881  0.4684  1.9475  0.2676
   68SAPC  C217 5763   3.647   1.856   8.056  0.3884 -0.4720 -0.0125
   68SAPC  H17R 5764   3.723   1.918   8.109  1.3412 -1.1889 -0.5182
   68SAPC  H17S 5765   3.658   1.757   8.105 -1.6798 -0.0243  1.4817
   68SAPC  C218 5766   3.509   1.914   8.092  0.0595  0.6592 -0.1580
   68SAPC  H18R 5767   3.437   1.855   8.032 -0.3738  1.7872 -0.7701
   68SAPC  H18S 5768   3.505   2.024   8.076  0.7840  0.7629  0.3096
   68SAPC  C219 5769   3.466   1.905   8.237 -0.2665 -0.3294 -0.1013
   68SAPC  H19R 5770   3.390   1.984   8.256  0.5304  1.5642 -3.6740
   68SAPC  H19S 5771   3.561   1.928   8.290 -1.3609  1.6115  1.1252
   68SAPC  C220 5772   3.411   1.774   8.284  0.2739  0.0578  0.1192
   68SAPC  H20R 5773   3.309   1.763   8.239 -0.8099 -0.8364  2.6427
   68SAPC  H20S 5774   3.407   1.767   8.394 -2.9951 -0.9826  0.0484
   68SAPC  H20T 5775   3.462   1.691   8.231 -1.9119 -0.6616 -1.0128
   68SAPC   C33 5776   3.363   1.283   6.941 -0.2808  0.4982 -0.6877
   68SAPC   H3X 5777   3.278   1.266   6.871 -2.5153  2.5517  1.3704
   68SAPC   H3Y 5778   3.365   1.393   6.955  2.7618  0.3342  1.0434
   68SAPC   C34 5779   3.330   1.213   7.077  0.5972 -0.2340  0.4024
   68SAPC   H4X 5780   3.338   1.102   7.070  2.1260 -0.2299  1.5467
   68SAPC   H4Y 5781   3.227   1.239   7.109  0.4849  1.2341 -1.0370
   68SAPC   C35 5782   3.409   1.282   7.190  0.1100  0.3086  0.0063
   68SAPC   H5X 5783   3.389   1.390   7.179 -1.9524  0.1764  1.8585
   68SAPC   H5Y 5784   3.519   1.267   7.182  0.7724  3.5832  1.3841
   68SAPC   C36 5785   3.375   1.253   7.336 -0.5445 -0.1082  0.1667
   68SAPC   H6X 5786   3.406   1.149   7.358  0.8028 -0.3821 -2.6166
   68SAPC   H6Y 5787   3.265   1.262   7.346 -0.3004  1.4723  2.0473
   68SAPC   C37 5788   3.445   1.339   7.449 -0.5562  0.2134 -0.0911
   68SAPC   H7X 5789   3.415   1.446   7.438  1.8649  0.8945 -0.6924
   68SAPC   H7Y 5790   3.556   1.332   7.447 -0.6510 -1.9048 -0.4362
   68SAPC   C38 5791   3.399   1.279   7.580  0.3191 -0.3104 -0.3214
   68SAPC   H8X 5792   3.423   1.170   7.581 -0.3252 -0.4561  0.1498
   68SAPC   H8Y 5793   3.292   1.309   7.590  0.7599  1.5933 -0.9242
   68SAPC   C39 5794   3.479   1.328   7.711  0.0070  0.0015  0.0359
   68SAPC   H9X 5795   3.468   1.437   7.726 -1.0701  0.2714 -2.3083
   68SAPC   H9Y 5796   3.584   1.293   7.697 -0.5207 -1.4087 -0.5737
   68SAPC  C310 5797   3.456   1.245   7.840 -0.1488 -0.6446 -0.2441
   68SAPC  H10X 5798   3.454   1.136   7.819 -0.9275 -0.2108 -2.6728
   68SAPC  H10Y 5799   3.356   1.272   7.879  0.9043  1.4090  1.2338
   68SAPC  C311 5800   3.554   1.262   7.955  0.1991 -0.3399 -0.0216
   68SAPC  H11X 5801   3.662   1.242   7.941 -0.0330 -0.5600 -1.6897
   68SAPC  H11Y 5802   3.525   1.188   8.032  2.5812  0.2727  1.6032
   68SAPC  C312 5803   3.548   1.406   8.022  0.0663 -0.2233  0.0703
   68SAPC  H12X 5804   3.446   1.420   8.063  0.7532 -1.1189  2.2373
   68SAPC  H12Y 5805   3.565   1.483   7.943 -1.0447 -2.3837 -2.4283
   68SAPC  C313 5806   3.651   1.421   8.135 -0.4619  0.5499  0.1974
   68SAPC  H13X 5807   3.630   1.517   8.187  1.9577  1.0174  0.4148
   68SAPC  H13Y 5808   3.750   1.438   8.090 -0.2746  1.5419  0.9458
   68SAPC  C314 5809   3.656   1.317   8.239 -0.1151  0.1835  0.2242
   68SAPC  H14X 5810   3.668   1.212   8.203 -0.8107  0.3371 -0.4899
   68SAPC  H14Y 5811   3.558   1.319   8.291 -0.0061  0.4343  0.4178
   68SAPC  C315 5812   3.779   1.343   8.330 -0.1789  0.2554  0.4279
   68SAPC  H15X 5813   3.868   1.353   8.265  2.1217 -0.1709  3.3476
   68SAPC  H15Y 5814   3.800   1.258   8.398 -1.6369 -1.0295 -0.6435
   68SAPC  C316 5815   3.757   1.468   8.416 -0.4630 -0.3350 -0.5812
   68SAPC  H16X 5816   3.690   1.429   8.495 -0.1497  0.2175 -0.0359
   68SAPC  H16Y 5817   3.692   1.547   8.371 -0.3611  0.3106  0.3781
   68SAPC  C317 5818   3.902   1.513   8.471  0.3130  0.4175 -0.5693
   68SAPC  H17X 5819   3.976   1.514   8.388 -0.6856  0.2238 -1.4758
   68SAPC  H17Y 5820   3.924   1.435   8.548  1.2418  0.6808 -0.5483
   68SAPC  C318 5821   3.911   1.639   8.559  0.1593 -0.6918 -0.1835
   68SAPC  H18X 5822   3.834   1.638   8.640  0.0505 -1.6916 -0.2848
   68SAPC  H18Y 5823   3.898   1.726   8.491 -0.2978 -1.4469 -1.0894
   68SAPC  H18Z 5824   4.013   1.659   8.597 -0.8851 -0.1409  2.5918
   69SLPC     N 5825   1.110   6.666  10.771 -0.4768 -0.5021  0.5639
   69SLPC   C13 5826   1.230   6.597  10.814 -0.9966 -0.0843  0.0926
   69SLPC  H13A 5827   1.310   6.593  10.741 -1.6904  1.6187 -0.8097
   69SLPC  H13B 5828   1.266   6.653  10.899 -0.7706 -0.5163  0.2847
   69SLPC  H13C 5829   1.212   6.498  10.852  0.8334 -0.4776  0.0456
   69SLPC   C14 5830   0.990   6.624  10.840  0.5469 -0.0859 -0.2591
   69SLPC  H14A 5831   0.897   6.667  10.805  0.5205  0.3068  0.2924
   69SLPC  H14B 5832   0.971   6.519  10.825  2.8549 -0.5301 -0.3940
   69SLPC  H14C 5833   1.004   6.632  10.947 -1.7602  0.5526  0.0498
   69SLPC   C15 5834   1.097   6.660  10.614  0.2592  0.0741  0.9530
   69SLPC  H15A 5835   1.018   6.726  10.584  1.5582  0.5935 -1.5642
   69SLPC  H15B 5836   1.187   6.681  10.558 -1.6954  0.2607 -2.3572
   69SLPC  H15C 5837   1.059   6.563  10.585  3.7275 -0.6886 -1.7229
   69SLPC   C12 5838   1.121   6.814  10.789  0.7172 -0.4338 -0.6840
   69SLPC  H12A 5839   1.035   6.863  10.745  0.1268 -1.2790 -0.5060
   69SLPC  H12B 5840   1.206   6.854  10.736 -0.4132  0.2070 -2.1105
   69SLPC   C11 5841   1.128   6.868  10.931  0.1763  0.3532  0.3449
   69SLPC  H11A 5842   1.038   6.830  10.985 -0.2324 -1.4981 -1.4993
   69SLPC  H11B 5843   1.120   6.978  10.920  2.9527  0.5280 -0.5343
   69SLPC     P 5844   1.370   6.906  11.023  0.0296  0.1040 -0.1077
   69SLPC   O13 5845   1.340   7.045  11.070  0.2968 -0.4087  0.0531
   69SLPC   O14 5846   1.470   6.826  11.091 -0.1067  0.7285 -0.2356
   69SLPC   O12 5847   1.234   6.825  11.009  0.3785 -0.7442 -0.3566
   69SLPC   O11 5848   1.408   6.919  10.870 -0.0730  0.3991  0.1827
   69SLPC    C1 5849   1.545   6.902  10.820  0.3649 -0.6828 -0.0439
   69SLPC    HA 5850   1.605   6.836  10.885  1.3947  0.2641 -0.0051
   69SLPC    HB 5851   1.542   6.849  10.722 -0.7284 -1.4045  0.3697
   69SLPC    C2 5852   1.609   7.041  10.821 -0.1201  0.2491 -0.1256
   69SLPC    HS 5853   1.618   7.088  10.921 -0.9805  1.7556 -0.7233
   69SLPC   O21 5854   1.527   7.119  10.733  0.0550  0.2547  0.0050
   69SLPC   C21 5855   1.540   7.248  10.729 -0.0791  0.2403 -0.2728
   69SLPC   O22 5856   1.607   7.315  10.804  0.4912 -0.2219 -0.2079
   69SLPC   C22 5857   1.473   7.299  10.610  0.1122  0.7781 -0.1306
   69SLPC   H2R 5858   1.366   7.278  10.626 -0.1515  1.6397 -0.6765
   69SLPC   H2S 5859   1.473   7.410  10.606  1.6624  0.8031 -0.3823
   69SLPC    C3 5860   1.752   7.037  10.771 -0.0578 -0.8987  0.5832
   69SLPC    HX 5861   1.813   6.967  10.832  2.0257  0.5552  0.3055
   69SLPC    HY 5862   1.804   7.131  10.801 -0.6377 -0.6279  0.7422
   69SLPC   O31 5863   1.767   7.017  10.632  0.5018  0.1276  0.4698
   69SLPC   C31 5864   1.881   7.058  10.576  1.1282 -0.2480 -0.1440
   69SLPC   O32 5865   1.974   7.113  10.632 -0.1400 -0.3522  0.7308
   69SLPC   C32 5866   1.870   7.044  10.421 -0.0194  0.4377 -0.3928
   69SLPC   H2X 5867   1.772   7.085  10.389  0.7525  0.4316 -3.0350
   69SLPC   H2Y 5868   1.882   6.935  10.399 -1.5741 -0.1873  1.5297
   69SLPC   C23 5869   1.537   7.251  10.471  0.5038  0.4583 -0.9822
   69SLPC   H3R 5870   1.539   7.141  10.456  2.8318  0.3762 -0.4582
   69SLPC   H3S 5871   1.642   7.285  10.460  0.9529 -0.7963 -0.7527
   69SLPC   C24 5872   1.449   7.299  10.355  0.1016  0.5283 -0.0171
   69SLPC   H4R 5873   1.435   7.409  10.356 -1.2362  0.3704  0.1202
   69SLPC   H4S 5874   1.354   7.242  10.367  0.6032 -0.3694 -0.1873
   69SLPC   C25 5875   1.506   7.251  10.216  0.6486 -0.4391  0.0549
   69SLPC   H5R 5876   1.509   7.140  10.209 -1.5678 -0.5591  0.1229
   69SLPC   H5S 5877   1.606   7.297  10.200  0.6827 -0.5480 -0.0464
   69SLPC   C26 5878   1.405   7.282  10.111  0.2324 -0.4008 -0.3917
   69SLPC   H6R 5879   1.377   7.390  10.107  2.6269  0.2667 -0.2901
   69SLPC   H6S 5880   1.308   7.228  10.124 -1.3261  1.6264 -2.7450
   69SLPC   C27 5881   1.457   7.254   9.973 -0.0009 -0.4558 -0.0029
   69SLPC   H7R 5882   1.468   7.144   9.969 -1.9095 -0.6568 -1.1290
   69SLPC   H7S 5883   1.561   7.293   9.975  0.0391 -0.5851  0.5901
   69SLPC   C28 5884   1.369   7.307   9.861  0.0050  0.0143  0.4197
   69SLPC   H8R 5885   1.262   7.283   9.877 -0.1182 -1.0531 -1.6759
   69SLPC   H8S 5886   1.408   7.256   9.770 -1.1253  0.3581 -0.2753
   69SLPC   C29 5887   1.384   7.458   9.838 -0.1832 -0.1753 -0.3406
   69SLPC   H9R 5888   1.340   7.519   9.918  4.1757  1.4240  1.1266
   69SLPC  C210 5889   1.437   7.515   9.725  0.2602  0.7592 -0.3689
   69SLPC  H10R 5890   1.450   7.624   9.723 -0.4096  0.8953  1.2325
   69SLPC  C211 5891   1.497   7.430   9.614  0.6571  0.0958  0.6369
   69SLPC  H11R 5892   1.426   7.348   9.587 -0.8602  0.9406  1.8825
   69SLPC  H11S 5893   1.591   7.386   9.652 -0.1634 -1.8890  0.5143
   69SLPC  C212 5894   1.520   7.516   9.491  0.1899 -0.1794 -0.4896
   69SLPC  H12R 5895   1.541   7.622   9.511  1.2573 -0.3954 -0.4195
   69SLPC  C213 5896   1.522   7.472   9.361  0.3218 -0.1071  0.0897
   69SLPC  H13R 5897   1.535   7.550   9.285 -1.8969  1.5473  1.2866
   69SLPC  C214 5898   1.494   7.333   9.322  0.0551  0.1713 -0.6651
   69SLPC  H14R 5899   1.512   7.258   9.402  1.0246 -0.5881 -1.5876
   69SLPC  H14S 5900   1.563   7.308   9.239  0.1163 -1.4371 -0.1627
   69SLPC  C215 5901   1.350   7.309   9.285  0.1935 -0.3205 -0.2006
   69SLPC  H15R 5902   1.302   7.380   9.215 -1.3182  0.0007  1.1221
   69SLPC  H15S 5903   1.299   7.320   9.383 -0.7398  2.5764 -0.9149
   69SLPC  C216 5904   1.331   7.178   9.218 -0.4468  0.0869  0.1548
   69SLPC  H16R 5905   1.382   7.100   9.278 -0.6447  1.3949  2.1106
   69SLPC  H16S 5906   1.382   7.185   9.119 -1.4734  0.0824 -0.3945
   69SLPC  C217 5907   1.183   7.129   9.195  0.5563  0.2548  0.1828
   69SLPC  H17R 5908   1.134   7.214   9.144 -0.1288 -0.1992  0.0658
   69SLPC  H17S 5909   1.121   7.103   9.284 -0.3006  0.4115 -0.3636
   69SLPC  C218 5910   1.170   7.007   9.094  0.5788 -0.1621  0.1682
   69SLPC  H18R 5911   1.240   6.932   9.135 -0.0573 -0.1016  1.4258
   69SLPC  H18S 5912   1.199   7.040   8.992 -1.1279 -3.6909 -1.6237
   69SLPC  H18T 5913   1.065   6.973   9.085  0.4005  0.5350 -0.5367
   69SLPC   C33 5914   1.990   7.119  10.342  0.4502 -0.2069  0.0690
   69SLPC   H3X 5915   2.080   7.085  10.397 -0.7624  0.2267  2.4449
   69SLPC   H3Y 5916   1.969   7.228  10.346  2.6346  0.2374  0.5033
   69SLPC   C34 5917   2.003   7.094  10.192  0.7172 -0.1404  0.2736
   69SLPC   H4X 5918   2.025   6.987  10.168  1.2443  0.5559 -2.7949
   69SLPC   H4Y 5919   2.096   7.150  10.167  1.1271  0.2872  2.5520
   69SLPC   C35 5920   1.894   7.160  10.104 -0.3424  0.2690 -0.4913
   69SLPC   H5X 5921   1.897   7.268  10.131  2.6538  0.7998 -2.4856
   69SLPC   H5Y 5922   1.797   7.117  10.136 -0.0863  1.1879  1.7153
   69SLPC   C36 5923   1.924   7.167   9.954  0.4645  0.0358  0.0304
   69SLPC   H6X 5924   1.965   7.068   9.923 -1.4085 -0.6064 -0.5650
   69SLPC   H6Y 5925   1.999   7.244   9.928 -0.8486  1.4653  0.3413
   69SLPC   C37 5926   1.795   7.201   9.879  0.4482 -0.1692  0.1541
   69SLPC   H7X 5927   1.764   7.304   9.909  1.6271  0.0863  0.5432
   69SLPC   H7Y 5928   1.713   7.136   9.915 -1.6255  2.1797 -0.0123
   69SLPC   C38 5929   1.795   7.188   9.726 -0.6696 -0.2443 -0.6085
   69SLPC   H8X 5930   1.690   7.193   9.689 -1.0359  1.6934  0.5216
   69SLPC   H8Y 5931   1.849   7.102   9.680  0.2947  0.8861 -1.6873
   69SLPC   C39 5932   1.866   7.309   9.660 -0.2772  0.6664  0.8202
   69SLPC   H9X 5933   1.973   7.284   9.676 -0.7483 -0.5498  2.3040
   69SLPC   H9Y 5934   1.836   7.410   9.696 -1.1532  0.5304  0.4827
   69SLPC  C310 5935   1.840   7.311   9.512 -0.1963 -0.3292  0.2014
   69SLPC  H10X 5936   1.733   7.327   9.485 -0.3846 -1.6523  0.0874
   69SLPC  H10Y 5937   1.873   7.217   9.462 -2.0347 -0.4941 -0.8104
   69SLPC  C311 5938   1.904   7.430   9.436 -0.0222 -0.3954 -0.3651
   69SLPC  H11X 5939   2.008   7.453   9.468 -0.4817  2.2562 -0.5111
   69SLPC  H11Y 5940   1.845   7.523   9.451 -1.0063 -0.9681 -0.6405
   69SLPC  C312 5941   1.881   7.408   9.285  0.3682 -0.9601 -0.3017
   69SLPC  H12X 5942   1.771   7.398   9.271  0.0428  0.3990  1.0269
   69SLPC  H12Y 5943   1.936   7.323   9.239 -0.2696 -0.6232 -1.7521
   69SLPC  C313 5944   1.928   7.533   9.204  0.7090  0.1730  0.1650
   69SLPC  H13X 5945   1.908   7.630   9.253 -1.6918 -1.2311  2.2183
   69SLPC  H13Y 5946   1.869   7.534   9.110  1.1991  0.5288 -0.1448
   69SLPC  C314 5947   2.081   7.533   9.169 -0.0360  0.2323 -0.6481
   69SLPC  H14X 5948   2.117   7.431   9.142 -2.7570 -0.6606 -1.2000
   69SLPC  H14Y 5949   2.145   7.551   9.258 -1.1708  1.0780  0.0198
   69SLPC  C315 5950   2.119   7.630   9.063 -0.2556 -0.6016  0.3284
   69SLPC  H15X 5951   2.229   7.624   9.049 -0.0341  0.1592  1.6501
   69SLPC  H15Y 5952   2.082   7.733   9.082  0.1772 -0.4025  0.1076
   69SLPC  C316 5953   2.067   7.587   8.924 -0.5923  0.5489 -0.7055
   69SLPC  H16X 5954   1.956   7.589   8.914 -0.9590  2.7568  2.3825
   69SLPC  H16Y 5955   2.099   7.482   8.910  0.2585  0.2243  2.8365
   69SLPC  C317 5956   2.127   7.668   8.803 -0.3776  0.0371  0.5853
   69SLPC  H17X 5957   2.235   7.684   8.825 -0.2535 -2.1149  1.8253
   69SLPC  H17Y 5958   2.098   7.775   8.802 -0.5358  0.0684  2.8226
   69SLPC  C318 5959   2.105   7.611   8.667 -0.3743  0.7049  0.1117
   69SLPC  H18X 5960   2.176   7.527   8.653 -1.2615 -0.0881  0.2443
   69SLPC  H18Y 5961   2.119   7.698   8.599 -0.5905  0.8967  0.3135
   69SLPC  H18Z 5962   1.999   7.577   8.667 -0.4428  0.9163  0.5283
   70SLPC     N 5963   2.433   3.530  11.238  0.1088  0.0482 -0.1758
   70SLPC   C13 5964   2.402   3.387  11.206 -0.4643  0.0486  0.7568
   70SLPC  H13A 5965   2.492   3.335  11.176  0.3462  0.8465  1.7120
   70SLPC  H13B 5966   2.357   3.330  11.286 -0.5357  0.8722  1.3186
   70SLPC  H13C 5967   2.334   3.393  11.122 -0.6758  1.2381  0.9910
   70SLPC   C14 5968   2.529   3.528  11.351  0.5717  0.1742  0.2845
   70SLPC  H14A 5969   2.621   3.480  11.322  0.1829 -1.3305  1.3709
   70SLPC  H14B 5970   2.554   3.630  11.376 -0.4430  0.7338 -0.8847
   70SLPC  H14C 5971   2.494   3.476  11.440  0.3549  0.1831  0.2053
   70SLPC   C15 5972   2.298   3.583  11.282  0.2318 -0.1735 -0.3074
   70SLPC  H15A 5973   2.306   3.672  11.342 -2.2181  2.1616 -3.0940
   70SLPC  H15B 5974   2.243   3.615  11.194  0.3866  1.0448  0.0223
   70SLPC  H15C 5975   2.235   3.508  11.328  0.3746 -0.4286 -0.5190
   70SLPC   C12 5976   2.493   3.608  11.133  0.2417 -0.4895  0.0825
   70SLPC  H12A 5977   2.601   3.598  11.133  0.2709 -0.4179 -1.6080
   70SLPC  H12B 5978   2.476   3.709  11.170  0.0206  0.3871 -2.2494
   70SLPC   C11 5979   2.440   3.595  10.990 -0.8515 -0.6170  0.0755
   70SLPC  H11A 5980   2.473   3.495  10.956 -0.8697 -0.8875  0.8537
   70SLPC  H11B 5981   2.500   3.668  10.932  0.3077 -1.0315  0.7168
   70SLPC     P 5982   2.233   3.727  10.926 -0.1046 -0.2031  0.2611
   70SLPC   O13 5983   2.084   3.721  10.925 -0.0760 -0.3317 -0.1946
   70SLPC   O14 5984   2.298   3.839  10.999  0.0166  0.2413  0.2670
   70SLPC   O12 5985   2.296   3.594  10.981  0.1113 -0.4145 -0.2983
   70SLPC   O11 5986   2.292   3.726  10.783  0.9061 -0.0979 -0.0558
   70SLPC    C1 5987   2.229   3.798  10.680 -0.3808  0.0550  0.0344
   70SLPC    HA 5988   2.172   3.885  10.719  1.1330  1.0520  0.1131
   70SLPC    HB 5989   2.314   3.836  10.619  0.6170  1.1738  2.0160
   70SLPC    C2 5990   2.141   3.712  10.581 -0.2625 -0.3534  0.3326
   70SLPC    HS 5991   2.053   3.675  10.638  0.1593  0.3084  1.4593
   70SLPC   O21 5992   2.215   3.604  10.532  0.0266 -0.2173 -0.4039
   70SLPC   C21 5993   2.161   3.488  10.499  0.0716 -1.1264 -0.5811
   70SLPC   O22 5994   2.041   3.467  10.500 -0.7139 -0.3762  0.5221
   70SLPC   C22 5995   2.267   3.396  10.444 -0.0292 -0.2253  0.2219
   70SLPC   H2R 5996   2.327   3.459  10.375 -0.0966  0.9885  1.2418
   70SLPC   H2S 5997   2.329   3.341  10.518  3.2375  0.9276 -1.4869
   70SLPC    C3 5998   2.104   3.805  10.458  0.0461  0.8756 -0.8212
   70SLPC    HX 5999   2.197   3.855  10.424 -0.7438  1.1341 -2.7155
   70SLPC    HY 6000   2.048   3.888  10.508 -1.0912 -0.6101  0.4778
   70SLPC   O31 6001   2.044   3.729  10.349  0.0705  0.4292 -0.3659
   70SLPC   C31 6002   1.918   3.709  10.351  0.4270 -0.2256 -0.0226
   70SLPC   O32 6003   1.834   3.732  10.444 -0.1285 -0.3214 -0.4202
   70SLPC   C32 6004   1.886   3.636  10.218 -0.1581  0.4272  0.3833
   70SLPC   H2X 6005   1.885   3.526  10.233  2.6337  0.1884 -0.5499
   70SLPC   H2Y 6006   1.968   3.654  10.145 -0.2957 -2.1835 -0.4976
   70SLPC   C23 6007   2.208   3.292  10.347 -1.4789  0.2194 -0.1008
   70SLPC   H3R 6008   2.141   3.224  10.403  2.6244 -2.8760  1.5995
   70SLPC   H3S 6009   2.301   3.233  10.330 -1.9579 -0.8702  0.8925
   70SLPC   C24 6010   2.137   3.349  10.226 -0.7825  0.3241 -0.2751
   70SLPC   H4R 6011   2.096   3.446  10.260  0.6921  1.0646 -0.5458
   70SLPC   H4S 6012   2.060   3.272  10.205  0.3564 -1.1804  0.8334
   70SLPC   C25 6013   2.228   3.378  10.103 -0.4916  0.9684 -0.4568
   70SLPC   H5R 6014   2.280   3.282  10.085 -0.0883  0.9572  0.7140
   70SLPC   H5S 6015   2.304   3.453  10.132  2.2977 -1.4864 -0.9918
   70SLPC   C26 6016   2.152   3.409   9.983 -0.1867 -0.2251 -0.4783
   70SLPC   H6R 6017   2.098   3.505   9.994  3.3192  1.7129  1.7073
   70SLPC   H6S 6018   2.074   3.332   9.965 -1.1921  0.5070  0.6626
   70SLPC   C27 6019   2.251   3.407   9.865  0.2641 -0.1178  0.3149
   70SLPC   H7R 6020   2.297   3.307   9.853  0.4867 -0.1679  1.4849
   70SLPC   H7S 6021   2.336   3.476   9.885 -1.4216  2.3144 -0.4009
   70SLPC   C28 6022   2.180   3.460   9.733  0.3046  0.0813  0.9056
   70SLPC   H8R 6023   2.114   3.542   9.769 -0.7283 -0.0066 -0.6487
   70SLPC   H8S 6024   2.115   3.375   9.701  0.5482  0.3624 -0.4040
   70SLPC   C29 6025   2.275   3.520   9.624 -0.0227  0.4641  0.3289
   70SLPC   H9R 6026   2.362   3.577   9.660  0.2322 -0.3092  0.9679
   70SLPC  C210 6027   2.264   3.505   9.490  0.3572  0.8125  0.3110
   70SLPC  H10R 6028   2.342   3.552   9.428 -0.6812 -1.0605 -2.6128
   70SLPC  C211 6029   2.154   3.429   9.420  0.4594 -0.2115 -0.1374
   70SLPC  H11R 6030   2.067   3.497   9.406 -0.1732 -1.1278 -0.7561
   70SLPC  H11S 6031   2.120   3.347   9.487  4.2175 -1.4417  0.4938
   70SLPC  C212 6032   2.206   3.367   9.292  0.2058 -0.3876  0.1140
   70SLPC  H12R 6033   2.292   3.301   9.308  2.8535  2.6074 -0.7214
   70SLPC  C213 6034   2.173   3.415   9.171  0.0975  0.1642 -0.6720
   70SLPC  H13R 6035   2.229   3.362   9.092 -1.7715 -0.1688 -1.8260
   70SLPC  C214 6036   2.084   3.526   9.125 -0.6465  0.2149  1.0033
   70SLPC  H14R 6037   2.149   3.608   9.087  0.2044 -0.4639  0.9730
   70SLPC  H14S 6038   2.012   3.560   9.202  0.0631  0.3940  1.5870
   70SLPC  C215 6039   2.003   3.495   8.992  0.2157 -0.0031  0.0660
   70SLPC  H15R 6040   1.910   3.441   9.020  0.1799 -0.4157 -0.8051
   70SLPC  H15S 6041   2.064   3.435   8.921  2.2367  2.0514 -0.0472
   70SLPC  C216 6042   1.972   3.621   8.919  0.8031 -0.0824  0.1878
   70SLPC  H16R 6043   1.954   3.703   8.992 -1.2831 -1.0558  0.8426
   70SLPC  H16S 6044   1.875   3.606   8.867  0.8309 -0.7503  0.3192
   70SLPC  C217 6045   2.076   3.678   8.821 -1.2767  0.4063  0.4370
   70SLPC  H17R 6046   2.173   3.694   8.873 -1.5053  0.2941  0.9069
   70SLPC  H17S 6047   2.053   3.775   8.774  1.6891 -0.2295 -2.7502
   70SLPC  C218 6048   2.108   3.575   8.711  0.6167 -0.2414  0.8773
   70SLPC  H18R 6049   2.176   3.617   8.634 -1.1641  0.7113 -0.2611
   70SLPC  H18S 6050   2.003   3.557   8.681  0.3568 -0.4705  1.8845
   70SLPC  H18T 6051   2.162   3.496   8.768  1.6501  1.1999  1.9875
   70SLPC   C33 6052   1.750   3.675  10.163 -0.2744 -0.4429 -0.0855
   70SLPC   H3X 6053   1.726   3.784  10.162  0.2824 -0.3226 -0.7973
   70SLPC   H3Y 6054   1.676   3.637  10.237 -0.9711 -2.8915 -1.9164
   70SLPC   C34 6055   1.713   3.613  10.036 -0.1163 -0.2354  0.0635
   70SLPC   H4X 6056   1.604   3.626  10.016 -0.2216  1.9008  1.6397
   70SLPC   H4Y 6057   1.728   3.503  10.035  2.1016  0.0240 -0.4345
   70SLPC   C35 6058   1.778   3.681   9.915  0.0975 -0.6887  0.0525
   70SLPC   H5X 6059   1.888   3.693   9.925 -0.2189  1.0681  2.2176
   70SLPC   H5Y 6060   1.731   3.781   9.900  2.7540  0.6993  0.1917
   70SLPC   C36 6061   1.757   3.601   9.783 -0.0375  0.0568  0.5845
   70SLPC   H6X 6062   1.680   3.521   9.790  1.7079 -1.8028 -0.5382
   70SLPC   H6Y 6063   1.848   3.540   9.764  0.9766  1.6850  0.0414
   70SLPC   C37 6064   1.732   3.681   9.658  0.3644 -1.1126  0.2852
   70SLPC   H7X 6065   1.819   3.743   9.628 -0.3402 -0.4186 -0.3825
   70SLPC   H7Y 6066   1.640   3.743   9.663  0.7388 -0.6256  1.5524
   70SLPC   C38 6067   1.709   3.592   9.527 -1.0405 -0.3767  0.0292
   70SLPC   H8X 6068   1.637   3.509   9.547 -2.3806  1.2750  2.6365
   70SLPC   H8Y 6069   1.807   3.550   9.498 -1.0124  0.6560 -1.5138
   70SLPC   C39 6070   1.666   3.662   9.399 -0.3584 -0.0794  0.0543
   70SLPC   H9X 6071   1.742   3.738   9.369 -1.2099  0.0907 -1.7806
   70SLPC   H9Y 6072   1.569   3.713   9.417 -0.8903 -0.4658 -1.5271
   70SLPC  C310 6073   1.670   3.573   9.274 -0.0777  0.5326  0.5591
   70SLPC  H10X 6074   1.625   3.478   9.311 -2.3553  0.8610 -1.1522
   70SLPC  H10Y 6075   1.776   3.552   9.252 -0.5329 -1.7872  0.3121
   70SLPC  C311 6076   1.595   3.643   9.158  0.0596 -0.0227 -0.0910
   70SLPC  H11X 6077   1.665   3.725   9.132 -1.6967  1.8312  0.7486
   70SLPC  H11Y 6078   1.506   3.699   9.192 -0.5825 -0.1792 -1.4690
   70SLPC  C312 6079   1.570   3.554   9.040 -0.0325  0.0320  0.1048
   70SLPC  H12X 6080   1.473   3.501   9.046  0.0452 -0.1687 -0.3558
   70SLPC  H12Y 6081   1.649   3.476   9.034 -0.5702 -0.7402  2.2390
   70SLPC  C313 6082   1.577   3.631   8.911 -0.0324 -0.3563  1.1962
   70SLPC  H13X 6083   1.679   3.672   8.892 -1.4795  3.9857  1.6847
   70SLPC  H13Y 6084   1.506   3.716   8.921 -1.2938 -1.3850  1.2913
   70SLPC  C314 6085   1.538   3.549   8.783 -0.9058 -1.1431 -0.7596
   70SLPC  H14X 6086   1.609   3.466   8.761 -1.5828 -1.6700 -1.0043
   70SLPC  H14Y 6087   1.555   3.615   8.696 -2.1456  2.3720  1.4497
   70SLPC  C315 6088   1.402   3.490   8.793 -0.1355 -0.4078 -0.2129
   70SLPC  H15X 6089   1.334   3.577   8.808 -0.3114 -0.6886  0.6595
   70SLPC  H15Y 6090   1.398   3.418   8.878 -1.1914  0.4145  0.4720
   70SLPC  C316 6091   1.351   3.418   8.672 -0.5972  0.6763  0.0111
   70SLPC  H16X 6092   1.249   3.375   8.682 -0.4732  0.6706  1.5243
   70SLPC  H16Y 6093   1.411   3.325   8.663 -1.1519  0.3472 -0.3332
   70SLPC  C317 6094   1.380   3.476   8.533 -0.0002 -0.0544 -0.4602
   70SLPC  H17X 6095   1.357   3.393   8.462  1.1494 -1.7548  1.0451
   70SLPC  H17Y 6096   1.490   3.491   8.539 -0.4074  3.2241  0.7856
   70SLPC  C318 6097   1.309   3.613   8.501 -0.3924  0.1643 -0.0861
   70SLPC  H18X 6098   1.202   3.588   8.517  0.1387 -1.7178  0.8204
   70SLPC  H18Y 6099   1.324   3.641   8.394  0.6026 -0.3075 -0.0798
   70SLPC  H18Z 6100   1.343   3.697   8.565  0.2427  0.0077 -0.2093
   71SLPC     N 6101   1.348   3.044  11.051 -0.0201  0.1504  0.2125
   71SLPC   C13 6102   1.462   3.117  11.114 -0.3758 -0.2529 -0.1074
   71SLPC  H13A 6103   1.561   3.088  11.081 -0.2939  1.1203 -1.1573
   71SLPC  H13B 6104   1.453   3.221  11.088  2.1110  0.6445  2.2085
   71SLPC  H13C 6105   1.458   3.102  11.221  1.5441 -0.6262 -0.0565
   71SLPC   C14 6106   1.222   3.094  11.109 -0.1558 -0.3639  0.1319
   71SLPC  H14A 6107   1.220   3.077  11.215  0.3111 -1.6256 -0.0496
   71SLPC  H14B 6108   1.208   3.201  11.097  0.3033 -0.4500 -1.4071
   71SLPC  H14C 6109   1.130   3.054  11.069 -0.9429  0.7256  0.8032
   71SLPC   C15 6110   1.356   2.891  11.073 -0.0241  0.0721 -0.1889
   71SLPC  H15A 6111   1.449   2.842  11.046 -1.4151 -2.3222 -0.8710
   71SLPC  H15B 6112   1.354   2.882  11.180  2.7717 -2.7160 -0.2499
   71SLPC  H15C 6113   1.275   2.835  11.030  0.3897 -1.1224  0.5338
   71SLPC   C12 6114   1.350   3.059  10.900 -0.2487 -0.4561  0.2097
   71SLPC  H12A 6115   1.441   3.011  10.869 -0.3707 -1.4496  1.3168
   71SLPC  H12B 6116   1.369   3.165  10.889 -0.0226 -0.5195 -0.0057
   71SLPC   C11 6117   1.235   3.007  10.817  0.2239  0.4255 -0.1002
   71SLPC  H11A 6118   1.243   3.043  10.712  2.7805 -0.4995 -0.2872
   71SLPC  H11B 6119   1.147   3.067  10.850  1.2089  1.9715 -0.1739
   71SLPC     P 6120   1.316   2.788  10.732 -0.3142 -0.0934  0.1637
   71SLPC   O13 6121   1.448   2.799  10.792 -0.4844  0.0760  0.0660
   71SLPC   O14 6122   1.260   2.651  10.733  0.1865  0.0368  0.1018
   71SLPC   O12 6123   1.219   2.869  10.821  0.8919 -0.4330  0.1721
   71SLPC   O11 6124   1.299   2.852  10.585  0.5509  0.0093  0.0161
   71SLPC    C1 6125   1.408   2.888  10.504  0.4081 -0.5559  0.1547
   71SLPC    HA 6126   1.375   2.950  10.419 -0.5699 -3.2040 -1.5124
   71SLPC    HB 6127   1.486   2.947  10.558  1.3000 -2.3166  0.8864
   71SLPC    C2 6128   1.461   2.765  10.434  0.0454  1.2918  0.0782
   71SLPC    HS 6129   1.507   2.699  10.511  0.3327 -0.0261 -1.1637
   71SLPC   O21 6130   1.567   2.803  10.341  0.6301  0.1996 -0.3499
   71SLPC   C21 6131   1.641   2.700  10.295 -0.1849  0.4544 -0.3952
   71SLPC   O22 6132   1.631   2.585  10.340  0.0643 -0.3539 -0.4176
   71SLPC   C22 6133   1.739   2.736  10.191  0.0789  0.4613  0.5314
   71SLPC   H2R 6134   1.746   2.847  10.192 -0.1458  0.4750  0.5517
   71SLPC   H2S 6135   1.839   2.688  10.202  0.9171  0.2668 -4.9972
   71SLPC    C3 6136   1.356   2.678  10.365 -0.4863 -0.1831 -0.3458
   71SLPC    HX 6137   1.279   2.658  10.442  1.4616 -1.8280  1.2939
   71SLPC    HY 6138   1.400   2.583  10.330 -1.6614 -1.1809  0.8097
   71SLPC   O31 6139   1.294   2.748  10.252 -0.3056 -0.0331  0.1719
   71SLPC   C31 6140   1.193   2.679  10.209 -0.1908  0.1084 -0.0602
   71SLPC   O32 6141   1.171   2.560  10.246 -0.5496  0.7993 -0.0509
   71SLPC   C32 6142   1.122   2.766  10.105  0.3326 -0.6395  0.7962
   71SLPC   H2X 6143   1.199   2.838  10.070 -1.2983  0.7109 -0.1767
   71SLPC   H2Y 6144   1.038   2.819  10.154 -0.8298 -1.0818 -0.6272
   71SLPC   C23 6145   1.684   2.697  10.045  0.1085  0.2864 -0.0552
   71SLPC   H3R 6146   1.666   2.587  10.043  1.8950 -0.0885  1.4984
   71SLPC   H3S 6147   1.770   2.721   9.979 -0.5754 -1.6232 -1.7292
   71SLPC   C24 6148   1.559   2.781  10.004 -0.1161 -0.3667  0.7951
   71SLPC   H4R 6149   1.589   2.887   9.990 -2.8634  0.3900 -0.1528
   71SLPC   H4S 6150   1.481   2.780  10.083 -1.5670 -4.2683 -0.4695
   71SLPC   C25 6151   1.506   2.730   9.874 -0.0978  0.7658  0.7034
   71SLPC   H5R 6152   1.409   2.783   9.862  0.4434  1.6406  0.0419
   71SLPC   H5S 6153   1.484   2.622   9.881 -0.8177  0.9982  2.7517
   71SLPC   C26 6154   1.605   2.759   9.757  0.0219 -0.1977 -0.2422
   71SLPC   H6R 6155   1.676   2.674   9.753 -1.0314 -1.1215  0.0350
   71SLPC   H6S 6156   1.667   2.847   9.782  1.2069 -1.2609  0.6672
   71SLPC   C27 6157   1.544   2.778   9.619  0.1684  0.1052 -0.6416
   71SLPC   H7R 6158   1.504   2.882   9.614  3.0479  1.2908 -1.6300
   71SLPC   H7S 6159   1.469   2.698   9.602  2.3597 -2.3691  0.6871
   71SLPC   C28 6160   1.649   2.766   9.501  0.1925 -0.1755  0.3546
   71SLPC   H8R 6161   1.697   2.668   9.486 -0.5796 -0.2622 -1.8206
   71SLPC   H8S 6162   1.736   2.830   9.527 -0.7283  0.5648  1.7675
   71SLPC   C29 6163   1.593   2.803   9.362 -0.2158 -0.6730  0.1379
   71SLPC   H9R 6164   1.577   2.912   9.351  2.7702 -0.2067 -0.5534
   71SLPC  C210 6165   1.565   2.725   9.253  0.3844 -0.6718 -0.7265
   71SLPC  H10R 6166   1.527   2.771   9.160 -1.9199  0.8269  0.8710
   71SLPC  C211 6167   1.589   2.581   9.228  0.1935  0.0716  0.4845
   71SLPC  H11R 6168   1.499   2.534   9.183  0.9161  0.3122 -1.3153
   71SLPC  H11S 6169   1.608   2.529   9.324  0.4581 -0.7510 -0.0086
   71SLPC  C212 6170   1.706   2.552   9.135  0.7932  0.8178 -0.2578
   71SLPC  H12R 6171   1.769   2.638   9.107 -0.2255  1.5990 -0.2256
   71SLPC  C213 6172   1.737   2.424   9.105 -0.0859  0.5340  0.3656
   71SLPC  H13R 6173   1.821   2.408   9.037  0.1329  0.1840  0.7098
   71SLPC  C214 6174   1.657   2.305   9.151 -0.3126  0.0677 -0.3202
   71SLPC  H14R 6175   1.553   2.318   9.186 -0.3067 -2.1572  0.7260
   71SLPC  H14S 6176   1.705   2.258   9.240  0.2283 -2.1523 -1.6967
   71SLPC  C215 6177   1.649   2.190   9.048 -0.3093  0.0863 -0.4949
   71SLPC  H15R 6178   1.591   2.106   9.091 -0.6530  0.7408  0.3423
   71SLPC  H15S 6179   1.752   2.152   9.032 -0.5708 -0.4366 -0.9739
   71SLPC  C216 6180   1.576   2.235   8.924  0.2885 -0.6320  0.5008
   71SLPC  H16R 6181   1.594   2.342   8.901 -0.3992 -0.3469  1.2499
   71SLPC  H16S 6182   1.473   2.252   8.960 -0.2312  0.5393 -1.4106
   71SLPC  C217 6183   1.574   2.145   8.800  0.5030  0.1341  0.0701
   71SLPC  H17R 6184   1.489   2.163   8.730  0.1606  1.0711  0.6976
   71SLPC  H17S 6185   1.569   2.041   8.838  1.3826 -0.8631 -2.3643
   71SLPC  C218 6186   1.694   2.175   8.706  0.6303 -0.0800 -0.1469
   71SLPC  H18R 6187   1.687   2.108   8.618  0.5667  0.6382 -0.6881
   71SLPC  H18S 6188   1.788   2.152   8.761  0.3909  0.4448  0.4995
   71SLPC  H18T 6189   1.693   2.281   8.673 -1.6629  0.0320  0.1184
   71SLPC   C33 6190   1.067   2.691   9.983  0.5070  0.2061 -0.5599
   71SLPC   H3X 6191   0.970   2.643  10.006  0.6095  0.0838 -0.3757
   71SLPC   H3Y 6192   1.143   2.617   9.951 -0.0019 -0.3676 -0.4556
   71SLPC   C34 6193   1.044   2.773   9.855 -0.2311 -0.3133  0.5856
   71SLPC   H4X 6194   1.141   2.791   9.805 -1.6614  1.8074 -1.6668
   71SLPC   H4Y 6195   1.012   2.878   9.873  2.4331  0.7602 -0.3570
   71SLPC   C35 6196   0.950   2.699   9.752 -0.4518 -0.0139  0.2943
   71SLPC   H5X 6197   0.845   2.706   9.789 -0.2485  0.1632  0.8560
   71SLPC   H5Y 6198   0.981   2.593   9.744  0.1301  0.2576 -1.4408
   71SLPC   C36 6199   0.954   2.766   9.607  0.4026 -0.0828 -0.0891
   71SLPC   H6X 6200   1.053   2.755   9.557  1.1148  0.7688  1.0916
   71SLPC   H6Y 6201   0.935   2.874   9.621 -3.6114 -0.4242 -1.4802
   71SLPC   C37 6202   0.849   2.708   9.506  0.4980 -0.3990 -0.9534
   71SLPC   H7X 6203   0.751   2.752   9.533  0.7155 -0.6643  0.3638
   71SLPC   H7Y 6204   0.836   2.598   9.514  1.1840 -0.3871  0.8035
   71SLPC   C38 6205   0.888   2.752   9.363  0.4930  0.0788  0.4364
   71SLPC   H8X 6206   0.977   2.694   9.330 -1.0535 -0.8386 -2.4120
   71SLPC   H8Y 6207   0.923   2.857   9.372  0.5640  0.1275 -0.3252
   71SLPC   C39 6208   0.786   2.760   9.255 -0.2189 -0.4839 -0.4525
   71SLPC   H9X 6209   0.724   2.846   9.286  0.8771  0.2752 -0.3028
   71SLPC   H9Y 6210   0.726   2.667   9.249  0.2121 -0.7008 -1.8706
   71SLPC  C310 6211   0.832   2.796   9.112  0.7595  0.6754 -0.0569
   71SLPC  H10X 6212   0.862   2.700   9.063  1.7307  1.3282 -0.7862
   71SLPC  H10Y 6213   0.917   2.867   9.121  0.3231  1.3702 -1.2034
   71SLPC  C311 6214   0.712   2.851   9.032  0.0061  0.1107  0.0756
   71SLPC  H11X 6215   0.664   2.936   9.085 -1.3485 -1.4884  1.5096
   71SLPC  H11Y 6216   0.636   2.770   9.031 -0.0887  0.1794  1.1911
   71SLPC  C312 6217   0.752   2.896   8.890  0.1018 -0.0253 -0.2095
   71SLPC  H12X 6218   0.796   2.803   8.847  1.1709  0.5925 -0.4604
   71SLPC  H12Y 6219   0.828   2.977   8.892  0.5503 -0.3853 -1.3592
   71SLPC  C313 6220   0.631   2.944   8.820  0.4405  0.7789  1.3016
   71SLPC  H13X 6221   0.586   3.033   8.869 -0.1925 -0.5451  3.2032
   71SLPC  H13Y 6222   0.556   2.864   8.804  2.3749 -0.8269 -0.4769
   71SLPC  C314 6223   0.675   2.989   8.668  0.3151  0.1728  0.2805
   71SLPC  H14X 6224   0.736   2.908   8.623  1.3966  0.5145  1.0928
   71SLPC  H14Y 6225   0.740   3.078   8.681  1.5377 -0.7512  0.6155
   71SLPC  C315 6226   0.546   3.018   8.579  0.2285 -0.1648  0.5401
   71SLPC  H15X 6227   0.452   2.980   8.623  0.5540 -0.5618  0.9064
   71SLPC  H15Y 6228   0.545   2.972   8.478 -2.5184  3.4916 -1.3311
   71SLPC  C316 6229   0.538   3.168   8.545 -0.0847  0.0885  0.1673
   71SLPC  H16X 6230   0.615   3.191   8.468  1.7429 -1.0700  1.5821
   71SLPC  H16Y 6231   0.561   3.219   8.641  0.6595  0.4827 -0.2134
   71SLPC  C317 6232   0.395   3.212   8.509 -0.2891 -0.1647 -0.6075
   71SLPC  H17X 6233   0.333   3.186   8.597  0.8815 -0.6077  0.1042
   71SLPC  H17Y 6234   0.364   3.144   8.425  0.2401  1.1457 -1.9007
   71SLPC  C318 6235   0.384   3.358   8.462  0.3352  0.1958 -0.4392
   71SLPC  H18X 6236   0.489   3.395   8.456  0.7576 -0.5530  1.4006
   71SLPC  H18Y 6237   0.333   3.420   8.539  2.0292  0.9281  0.1447
   71SLPC  H18Z 6238   0.312   3.360   8.378 -0.7503 -3.3687  0.2621
   72SLPC     N 6239   3.281   2.145  10.772  0.0401  0.2778  0.6809
   72SLPC   C13 6240   3.339   2.279  10.786 -0.2598 -0.2443 -0.0971
   72SLPC  H13A 6241   3.313   2.347  10.706 -3.7015  1.2935  2.1065
   72SLPC  H13B 6242   3.317   2.319  10.884  1.7063 -1.3215  0.8608
   72SLPC  H13C 6243   3.446   2.263  10.789 -0.4929 -2.0372 -0.2853
   72SLPC   C14 6244   3.329   2.083  10.643  0.8023  0.4881  0.3798
   72SLPC  H14A 6245   3.432   2.052  10.658  0.7554 -0.1221 -0.5165
   72SLPC  H14B 6246   3.277   1.994  10.611  0.0740 -0.0177  2.7243
   72SLPC  H14C 6247   3.313   2.154  10.564  4.7240  0.3412 -0.7773
   72SLPC   C15 6248   3.129   2.147  10.770 -0.7681  0.5034 -0.3602
   72SLPC  H15A 6249   3.089   2.193  10.860 -1.4536 -0.2986 -0.2359
   72SLPC  H15B 6250   3.088   2.180  10.676  0.6579  0.2594 -1.0804
   72SLPC  H15C 6251   3.090   2.046  10.776 -0.7326  0.5425  0.9334
   72SLPC   C12 6252   3.315   2.055  10.890 -0.3051 -0.0849  0.6873
   72SLPC  H12A 6253   3.246   1.973  10.903 -0.4477 -0.3325 -1.2637
   72SLPC  H12B 6254   3.295   2.123  10.972 -0.0041 -1.3710  1.8672
   72SLPC   C11 6255   3.460   2.015  10.901  0.0773  0.5438 -0.0075
   72SLPC  H11A 6256   3.490   1.933  10.831 -0.4727  2.0350 -2.0779
   72SLPC  H11B 6257   3.474   1.959  10.996 -0.2059 -1.5589 -1.1446
   72SLPC     P 6258   3.695   2.108  10.841 -0.3379 -0.1870  0.4181
   72SLPC   O13 6259   3.754   2.243  10.834 -0.0092 -0.0548 -0.0717
   72SLPC   O14 6260   3.769   2.007  10.926 -0.3656  0.8690  0.3571
   72SLPC   O12 6261   3.545   2.129  10.891 -0.1416  0.0590  0.5432
   72SLPC   O11 6262   3.675   2.048  10.692  0.0189 -0.6164 -0.5560
   72SLPC    C1 6263   3.715   1.925  10.636 -0.4048  0.3745 -0.0698
   72SLPC    HA 6264   3.696   1.843  10.709  1.1979  0.2255  0.2178
   72SLPC    HB 6265   3.647   1.908  10.549 -1.3474 -1.2496  0.9147
   72SLPC    C2 6266   3.869   1.922  10.585  0.0695 -0.3210 -0.5962
   72SLPC    HS 6267   3.924   1.958  10.674 -0.0771  1.7438 -1.2906
   72SLPC   O21 6268   3.892   2.026  10.485  0.4002 -0.3777  0.1536
   72SLPC   C21 6269   4.011   2.066  10.458 -0.1714  0.6522  0.4478
   72SLPC   O22 6270   4.108   2.032  10.522  0.2540  0.3927 -0.3280
   72SLPC   C22 6271   4.012   2.150  10.332 -0.6307 -0.2434 -0.6417
   72SLPC   H2R 6272   4.003   2.258  10.356 -0.9365  0.2681 -2.8534
   72SLPC   H2S 6273   4.118   2.150  10.297 -0.4443 -4.0772 -0.5125
   72SLPC    C3 6274   3.905   1.783  10.541 -0.4169  0.1700 -0.6949
   72SLPC    HX 6275   3.900   1.707  10.622  3.9652 -0.0503 -0.3828
   72SLPC    HY 6276   4.016   1.793  10.530 -0.2587 -1.7264 -1.1593
   72SLPC   O31 6277   3.860   1.748  10.408  0.1764  0.4718  0.1512
   72SLPC   C31 6278   3.733   1.700  10.406 -0.2553 -0.2073 -0.1934
   72SLPC   O32 6279   3.670   1.672  10.508 -1.2266 -0.0923  0.0214
   72SLPC   C32 6280   3.690   1.662  10.269 -0.0837 -0.3085  0.6171
   72SLPC   H2X 6281   3.591   1.612  10.270 -0.6681  0.7588 -0.4188
   72SLPC   H2Y 6282   3.763   1.585  10.237  0.8161 -0.3675  2.6703
   72SLPC   C23 6283   3.913   2.101  10.228  0.2042 -0.9798  0.1008
   72SLPC   H3R 6284   3.808   2.129  10.254  0.6112  0.9902 -0.2287
   72SLPC   H3S 6285   3.902   1.990  10.233 -2.7586 -1.0666 -3.5988
   72SLPC   C24 6286   3.953   2.153  10.088  0.3860  0.3758  0.8914
   72SLPC   H4R 6287   3.989   2.258  10.091 -0.4368  0.7316 -0.7163
   72SLPC   H4S 6288   3.857   2.172  10.036  0.5682  0.6037  0.6365
   72SLPC   C25 6289   4.040   2.046  10.019  0.2816  0.4440  0.4755
   72SLPC   H5R 6290   3.983   1.951  10.017  0.4458  0.2498 -3.5938
   72SLPC   H5S 6291   4.129   2.040  10.085  0.1857 -2.0053  0.4768
   72SLPC   C26 6292   4.097   2.077   9.884  0.6244  0.3547  0.2321
   72SLPC   H6R 6293   4.184   2.011   9.862  1.7961  1.2346  1.9665
   72SLPC   H6S 6294   4.138   2.180   9.885 -0.1923  0.6842  0.6939
   72SLPC   C27 6295   3.996   2.072   9.771 -0.2732 -0.1602 -0.4284
   72SLPC   H7R 6296   3.908   2.136   9.793 -0.0697  0.1162 -0.4264
   72SLPC   H7S 6297   3.968   1.964   9.768  0.2436 -0.2912 -0.7237
   72SLPC   C28 6298   4.055   2.131   9.644  0.0928 -0.2787  0.3740
   72SLPC   H8R 6299   4.164   2.108   9.639  0.6088  2.1465 -1.9936
   72SLPC   H8S 6300   4.038   2.241   9.646  0.9278 -0.1452  0.6728
   72SLPC   C29 6301   3.971   2.070   9.544  0.2323  0.6259  0.2083
   72SLPC   H9R 6302   3.871   2.045   9.583  0.8181 -0.8523  0.8394
   72SLPC  C210 6303   4.001   2.044   9.413 -0.2216 -0.0613  0.1864
   72SLPC  H10R 6304   3.928   1.992   9.349  1.7593 -1.8401 -0.7302
   72SLPC  C211 6305   4.136   2.067   9.347  0.3567  0.4774 -0.1775
   72SLPC  H11R 6306   4.153   1.965   9.307 -2.0392  0.6896 -1.9435
   72SLPC  H11S 6307   4.225   2.087   9.411 -0.3544  0.1618  0.9375
   72SLPC  C212 6308   4.128   2.169   9.240 -0.1192 -0.6080  0.0755
   72SLPC  H12R 6309   4.125   2.272   9.277  2.6632 -0.0441 -0.9770
   72SLPC  C213 6310   4.130   2.162   9.107  0.4895  0.3857  0.0181
   72SLPC  H13R 6311   4.119   2.250   9.042 -1.0335 -1.4353 -2.3693
   72SLPC  C214 6312   4.143   2.030   9.028  0.1773 -0.8316 -0.7889
   72SLPC  H14R 6313   4.133   1.948   9.102 -0.8915  0.2622  0.3520
   72SLPC  H14S 6314   4.244   2.025   8.983  0.8632  1.0893  0.3592
   72SLPC  C215 6315   4.040   2.008   8.923  0.2703 -0.2319  0.1657
   72SLPC  H15R 6316   3.937   2.029   8.958 -0.4362 -0.8584 -1.4204
   72SLPC  H15S 6317   4.039   1.899   8.905 -1.8678 -0.3396  0.6627
   72SLPC  C216 6318   4.066   2.088   8.796 -0.9873 -0.8497 -0.2240
   72SLPC  H16R 6319   4.173   2.074   8.772 -0.2939  1.7960  0.9585
   72SLPC  H16S 6320   4.064   2.195   8.823  1.5360 -0.7580 -0.2514
   72SLPC  C217 6321   3.978   2.052   8.672  0.1601 -0.0983  0.3515
   72SLPC  H17R 6322   3.872   2.080   8.689  0.4459  1.1082  0.2804
   72SLPC  H17S 6323   3.990   1.945   8.647 -2.2228  0.0996 -1.9845
   72SLPC  C218 6324   4.034   2.128   8.550 -0.2358 -0.1913 -0.5363
   72SLPC  H18R 6325   4.145   2.123   8.555 -0.1029  0.8106 -2.0480
   72SLPC  H18S 6326   4.006   2.235   8.563 -4.2694 -1.1988  0.7314
   72SLPC  H18T 6327   3.995   2.074   8.461 -1.3754  0.7947 -0.6594
   72SLPC   C33 6328   3.691   1.787  10.167 -0.1906 -0.0596  0.2985
   72SLPC   H3X 6329   3.795   1.825  10.167 -0.3384  0.3677 -0.6415
   72SLPC   H3Y 6330   3.620   1.866  10.199  0.5567  1.1986 -1.0161
   72SLPC   C34 6331   3.657   1.733  10.031  0.5916  0.1134 -0.1574
   72SLPC   H4X 6332   3.547   1.740  10.016  0.6182 -0.3083 -0.5813
   72SLPC   H4Y 6333   3.684   1.626  10.029  1.6127  0.2324  2.8060
   72SLPC   C35 6334   3.727   1.803   9.918  0.3432 -0.1491  0.3828
   72SLPC   H5X 6335   3.836   1.794   9.938  0.2885  1.8004  1.8541
   72SLPC   H5Y 6336   3.694   1.909   9.910  1.3025  0.1254 -0.0441
   72SLPC   C36 6337   3.688   1.736   9.785  0.4544  0.3019  0.0792
   72SLPC   H6X 6338   3.578   1.718   9.776  0.5285  0.2531 -0.7212
   72SLPC   H6Y 6339   3.731   1.635   9.795  0.5019 -0.0925 -3.1246
   72SLPC   C37 6340   3.731   1.822   9.667 -0.0279  0.1321 -0.7238
   72SLPC   H7X 6341   3.841   1.839   9.671 -0.0775  0.1873  1.0334
   72SLPC   H7Y 6342   3.696   1.927   9.680  0.8144  0.2276  1.1695
   72SLPC   C38 6343   3.693   1.756   9.534  0.2803 -0.2564 -1.1971
   72SLPC   H8X 6344   3.584   1.736   9.545  0.3992 -0.0256  0.9497
   72SLPC   H8Y 6345   3.758   1.667   9.541 -0.7268 -1.0888 -2.0425
   72SLPC   C39 6346   3.735   1.841   9.418 -0.0775  0.2114 -0.3638
   72SLPC   H9X 6347   3.844   1.827   9.400 -0.1688  1.2433 -1.9351
   72SLPC   H9Y 6348   3.715   1.949   9.436 -0.5688  0.2125 -0.8999
   72SLPC  C310 6349   3.660   1.796   9.290  0.0968 -0.2331 -0.1150
   72SLPC  H10X 6350   3.554   1.826   9.299 -0.0905 -1.0472  0.5854
   72SLPC  H10Y 6351   3.660   1.685   9.284  2.4649 -0.2101 -2.0215
   72SLPC  C311 6352   3.720   1.848   9.169 -0.0934 -0.4481  0.0954
   72SLPC  H11X 6353   3.822   1.806   9.151  1.0089  2.2113 -0.2892
   72SLPC  H11Y 6354   3.727   1.957   9.185  3.0975 -0.5242 -0.0496
   72SLPC  C312 6355   3.622   1.827   9.047 -0.0022  0.2067  0.1181
   72SLPC  H12X 6356   3.521   1.862   9.077  0.2219  0.2330  0.8501
   72SLPC  H12Y 6357   3.605   1.718   9.039  0.3473  0.0697  1.1133
   72SLPC  C313 6358   3.654   1.899   8.918 -0.0071 -0.3473  0.2758
   72SLPC  H13X 6359   3.734   1.847   8.860  1.1540  2.2329 -0.6069
   72SLPC  H13Y 6360   3.700   2.000   8.930 -0.0275 -0.5275  2.0395
   72SLPC  C314 6361   3.536   1.912   8.832 -0.3490  0.3919  0.4997
   72SLPC  H14X 6362   3.455   1.963   8.887  0.7870  2.0596  0.7093
   72SLPC  H14Y 6363   3.508   1.808   8.803  0.1474  0.6323 -0.9377
   72SLPC  C315 6364   3.567   1.993   8.706  0.2852 -0.4098  0.8322
   72SLPC  H15X 6365   3.496   1.966   8.625 -0.2503  0.3446  1.0408
   72SLPC  H15Y 6366   3.673   1.967   8.683 -0.1679 -2.0615  0.5054
   72SLPC  C316 6367   3.557   2.144   8.736  0.1305 -0.3374 -0.1147
   72SLPC  H16X 6368   3.636   2.166   8.810 -0.8023 -0.0428  0.8159
   72SLPC  H16Y 6369   3.455   2.162   8.777 -0.8434  0.4366 -2.6456
   72SLPC  C317 6370   3.573   2.230   8.609 -0.4184  0.6942 -0.1103
   72SLPC  H17X 6371   3.503   2.188   8.533 -1.9151 -0.9140  2.0327
   72SLPC  H17Y 6372   3.682   2.218   8.591 -0.5489  1.0423 -1.2015
   72SLPC  C318 6373   3.538   2.375   8.634 -0.5147 -0.4494  0.5438
   72SLPC  H18X 6374   3.427   2.380   8.645 -0.5312  1.2995 -0.0117
   72SLPC  H18Y 6375   3.550   2.443   8.547  0.2009  0.3686  1.2698
   72SLPC  H18Z 6376   3.580   2.419   8.727  0.0834 -2.2142  1.1479
   73SLPC     N 6377   3.577   6.612  11.103  0.6666  0.0129  0.0876
   73SLPC   C13 6378   3.457   6.700  11.140 -0.6018  0.0729  0.8386
   73SLPC  H13A 6379   3.449   6.778  11.066  2.2295  1.2191  1.6210
   73SLPC  H13B 6380   3.359   6.656  11.151 -1.8290  2.6189  0.6443
   73SLPC  H13C 6381   3.480   6.753  11.230  0.9146 -1.1651  1.2359
   73SLPC   C14 6382   3.588   6.509  11.209 -1.0479 -0.0491 -0.7914
   73SLPC  H14A 6383   3.506   6.439  11.207 -0.4502 -0.7404 -1.5925
   73SLPC  H14B 6384   3.667   6.443  11.177 -2.0921 -2.2005  0.8428
   73SLPC  H14C 6385   3.611   6.554  11.305  0.5036  0.8081 -1.5240
   73SLPC   C15 6386   3.702   6.703  11.101 -0.2290 -0.1874  0.0701
   73SLPC  H15A 6387   3.735   6.736  11.199  4.4109  0.0168 -1.3309
   73SLPC  H15B 6388   3.791   6.652  11.068 -0.6426 -0.6335 -0.3740
   73SLPC  H15C 6389   3.685   6.784  11.033 -0.2126  0.6197  1.0048
   73SLPC   C12 6390   3.558   6.552  10.964  0.1579 -0.4655  0.1581
   73SLPC  H12A 6391   3.484   6.473  10.966 -1.0115  0.5903  1.6347
   73SLPC  H12B 6392   3.650   6.507  10.933 -1.1790 -2.8366 -0.5972
   73SLPC   C11 6393   3.505   6.646  10.848 -0.1398 -0.1781 -0.1290
   73SLPC  H11A 6394   3.512   6.613  10.742 -0.3474 -0.3473 -0.0913
   73SLPC  H11B 6395   3.570   6.735  10.853 -0.6200  0.1728 -0.0756
   73SLPC     P 6396   3.253   6.582  10.875 -0.0979  0.6150 -0.0679
   73SLPC   O13 6397   3.302   6.443  10.908  0.5074 -0.3543 -0.0411
   73SLPC   O14 6398   3.163   6.652  10.967 -0.8656  0.2964 -0.6211
   73SLPC   O12 6399   3.371   6.679  10.879  0.1584 -0.4157 -0.2976
   73SLPC   O11 6400   3.202   6.582  10.725 -0.3861 -0.0253  0.3362
   73SLPC    C1 6401   3.158   6.708  10.674 -0.1244 -0.0487 -0.3532
   73SLPC    HA 6402   3.070   6.740  10.734 -2.1657 -3.0851 -1.5039
   73SLPC    HB 6403   3.235   6.786  10.692 -0.0768 -0.4739  1.4371
   73SLPC    C2 6404   3.119   6.709  10.529  0.4333  0.3934 -0.2334
   73SLPC    HS 6405   3.209   6.695  10.465 -0.0511  0.2275 -0.8879
   73SLPC   O21 6406   3.055   6.839  10.514  0.5603 -0.3535 -0.0470
   73SLPC   C21 6407   3.100   6.909  10.413  0.1596  0.2979 -0.2575
   73SLPC   O22 6408   3.181   6.871  10.331 -0.0439 -0.0914 -0.2397
   73SLPC   C22 6409   3.039   7.053  10.410 -0.7600  0.5655  0.3733
   73SLPC   H2R 6410   2.943   7.041  10.464 -0.7759  1.7313  0.6287
   73SLPC   H2S 6411   3.119   7.106  10.466 -0.2688 -1.4472  1.6982
   73SLPC    C3 6412   3.011   6.599  10.501 -0.5156  0.1392 -0.1126
   73SLPC    HX 6413   2.936   6.601  10.583  0.8484 -0.0546  1.1583
   73SLPC    HY 6414   3.059   6.501  10.520  0.7926  0.6023 -0.9161
   73SLPC   O31 6415   2.953   6.604  10.362 -0.0041 -0.0756  0.0519
   73SLPC   C31 6416   3.045   6.569  10.277 -1.4879  0.0897  0.0368
   73SLPC   O32 6417   3.157   6.527  10.306  0.4716 -0.4305  0.5015
   73SLPC   C32 6418   2.974   6.551  10.139 -0.3102 -0.5752  0.3510
   73SLPC   H2X 6419   2.878   6.604  10.127 -0.7711 -1.4845 -0.0729
   73SLPC   H2Y 6420   2.959   6.442  10.128  1.8204 -0.8641 -0.0974
   73SLPC   C23 6421   3.032   7.133  10.273  0.2328 -0.2280  0.4600
   73SLPC   H3R 6422   2.961   7.218  10.273  0.2017 -0.1918 -1.7820
   73SLPC   H3S 6423   2.996   7.058  10.199  0.7547  1.0988 -1.2037
   73SLPC   C24 6424   3.176   7.185  10.238  0.1182 -0.2018 -0.5129
   73SLPC   H4R 6425   3.249   7.102  10.231  0.4434  0.0113  0.2347
   73SLPC   H4S 6426   3.196   7.263  10.315 -1.0798 -0.7637  0.3898
   73SLPC   C25 6427   3.183   7.266  10.105  0.0469  0.3911  0.2703
   73SLPC   H5R 6428   3.285   7.311  10.098 -0.1074  0.6862 -0.1515
   73SLPC   H5S 6429   3.104   7.343  10.104 -0.0770  0.2703 -0.8806
   73SLPC   C26 6430   3.185   7.178   9.973 -0.1878 -0.4846  0.3558
   73SLPC   H6R 6431   3.076   7.155   9.971 -0.3083  0.1003 -0.7264
   73SLPC   H6S 6432   3.252   7.093   9.995 -0.0494  0.1695  2.7347
   73SLPC   C27 6433   3.237   7.257   9.852  0.4445  0.2181 -0.6332
   73SLPC   H7R 6434   3.336   7.302   9.875 -0.6830  2.5321 -0.0046
   73SLPC   H7S 6435   3.177   7.347   9.825  2.3472  1.8963  0.4647
   73SLPC   C28 6436   3.273   7.170   9.733  0.2887  0.3109 -0.9171
   73SLPC   H8R 6437   3.185   7.115   9.695 -0.9588  1.0464  0.7906
   73SLPC   H8S 6438   3.338   7.092   9.776  1.0870  0.1411 -2.3583
   73SLPC   C29 6439   3.332   7.244   9.619 -0.7088  0.5635  0.1739
   73SLPC   H9R 6440   3.437   7.272   9.634 -0.3460  0.1039 -1.2599
   73SLPC  C210 6441   3.286   7.265   9.495 -0.9920  0.7367 -0.2071
   73SLPC  H10R 6442   3.356   7.319   9.430  2.4510 -1.6635  1.2228
   73SLPC  C211 6443   3.151   7.211   9.433 -0.8398 -0.5478  0.1054
   73SLPC  H11R 6444   3.122   7.117   9.486 -0.1505 -0.4445  0.6823
   73SLPC  H11S 6445   3.187   7.163   9.340 -1.7745 -2.9434  0.8986
   73SLPC  C212 6446   3.048   7.313   9.397 -0.0664 -0.4900 -0.5907
   73SLPC  H12R 6447   3.054   7.349   9.293 -2.3968  1.2050 -0.2066
   73SLPC  C213 6448   2.938   7.358   9.464 -0.2257 -0.2289  1.2584
   73SLPC  H13R 6449   2.877   7.447   9.441  1.5034  0.4945 -0.8455
   73SLPC  C214 6450   2.910   7.313   9.604 -0.5851  0.2577 -0.3398
   73SLPC  H14R 6451   2.883   7.405   9.659  1.3669  0.2196  0.7928
   73SLPC  H14S 6452   2.995   7.285   9.670 -0.1859 -0.0427 -0.9705
   73SLPC  C215 6453   2.817   7.195   9.619  0.3022  0.4070  0.5621
   73SLPC  H15R 6454   2.728   7.212   9.555 -0.2648  0.4741  1.3591
   73SLPC  H15S 6455   2.778   7.193   9.723 -0.2134  1.3295  0.3984
   73SLPC  C216 6456   2.884   7.060   9.590 -0.0484  0.7539 -0.6743
   73SLPC  H16R 6457   2.981   7.047   9.644 -0.1182 -0.8795 -0.8983
   73SLPC  H16S 6458   2.885   7.046   9.479 -1.9902 -2.3266 -0.4107
   73SLPC  C217 6459   2.810   6.937   9.648 -0.0223  0.1395  0.1250
   73SLPC  H17R 6460   2.813   6.937   9.759  4.8798  2.8536  0.3014
   73SLPC  H17S 6461   2.879   6.857   9.613  1.3754  1.2202  0.2978
   73SLPC  C218 6462   2.664   6.922   9.592 -0.4912  0.4695 -0.2608
   73SLPC  H18R 6463   2.617   6.836   9.642 -0.6567  0.8400  0.2335
   73SLPC  H18S 6464   2.664   6.906   9.483 -2.0935 -0.5497 -0.1401
   73SLPC  H18T 6465   2.597   7.006   9.621 -2.3232 -0.4391 -1.6728
   73SLPC   C33 6466   3.059   6.595  10.014  0.3134 -0.9864 -0.7693
   73SLPC   H3X 6467   3.053   6.512   9.941 -2.1561 -1.9168  0.3745
   73SLPC   H3Y 6468   3.166   6.606  10.040 -0.1945  1.0390  0.7443
   73SLPC   C34 6469   3.017   6.724   9.940 -1.1402  0.3358  1.0198
   73SLPC   H4X 6470   3.016   6.796  10.025  1.8030 -1.1265  2.4559
   73SLPC   H4Y 6471   2.917   6.712   9.893 -1.1474  0.5059  0.9918
   73SLPC   C35 6472   3.127   6.775   9.840 -0.6481  0.2607 -0.2419
   73SLPC   H5X 6473   3.223   6.771   9.895 -0.7906 -1.9810 -0.0765
   73SLPC   H5Y 6474   3.086   6.873   9.809 -1.3422  1.1840  3.2262
   73SLPC   C36 6475   3.140   6.695   9.699 -0.0526 -0.0312 -0.1651
   73SLPC   H6X 6476   3.042   6.644   9.682  0.1357 -0.9804  1.4310
   73SLPC   H6Y 6477   3.215   6.617   9.722  1.0317  0.8917 -0.4806
   73SLPC   C37 6478   3.191   6.786   9.591  0.1639  0.1454 -0.0832
   73SLPC   H7X 6479   3.279   6.852   9.606  0.2543  0.3587 -1.4185
   73SLPC   H7Y 6480   3.108   6.853   9.561 -0.5928 -0.9679 -0.5384
   73SLPC   C38 6481   3.222   6.700   9.463 -0.3300 -0.3462 -0.5894
   73SLPC   H8X 6482   3.144   6.620   9.458 -2.3909  1.5762 -0.6410
   73SLPC   H8Y 6483   3.320   6.652   9.485 -0.7667 -0.8314  0.4064
   73SLPC   C39 6484   3.232   6.784   9.335 -0.6038  0.3233 -0.1528
   73SLPC   H9X 6485   3.139   6.844   9.322 -1.1193 -0.3100  0.4882
   73SLPC   H9Y 6486   3.253   6.721   9.246  1.6769 -0.1447  0.6508
   73SLPC  C310 6487   3.345   6.889   9.317  0.2738  0.8012  0.1184
   73SLPC  H10X 6488   3.446   6.841   9.320  0.0793  0.3418 -0.5488
   73SLPC  H10Y 6489   3.354   6.964   9.399  0.2131  0.0286  0.8443
   73SLPC  C311 6490   3.326   6.971   9.192  0.0745 -0.0237  1.1113
   73SLPC  H11X 6491   3.223   7.012   9.185 -1.5990 -4.0017 -1.4843
   73SLPC  H11Y 6492   3.319   6.898   9.108 -0.9045  3.5769 -2.2458
   73SLPC  C312 6493   3.436   7.068   9.170  0.0083 -0.3937  0.2035
   73SLPC  H12X 6494   3.540   7.029   9.178 -0.6601 -1.8605  3.1199
   73SLPC  H12Y 6495   3.424   7.144   9.251 -1.2203 -1.0115  0.6269
   73SLPC  C313 6496   3.410   7.147   9.040  0.5328  0.0415  0.0613
   73SLPC  H13X 6497   3.479   7.234   9.047  0.6085  0.0228 -0.4419
   73SLPC  H13Y 6498   3.305   7.184   9.040  1.0475  1.5979  0.1970
   73SLPC  C314 6499   3.438   7.071   8.913  0.7461 -0.3264  0.1159
   73SLPC  H14X 6500   3.357   6.998   8.891 -3.1812  4.0519 -1.6817
   73SLPC  H14Y 6501   3.533   7.016   8.934  0.1225 -1.2824  0.5114
   73SLPC  C315 6502   3.433   7.157   8.787 -0.2122 -1.4779 -0.0290
   73SLPC  H15X 6503   3.451   7.101   8.692  2.0353 -0.0764 -0.5241
   73SLPC  H15Y 6504   3.530   7.212   8.781 -0.3568 -1.0453  1.4068
   73SLPC  C316 6505   3.304   7.240   8.759 -0.3677  0.2990  0.0170
   73SLPC  H16X 6506   3.287   7.304   8.848 -1.1191  0.2506 -0.0870
   73SLPC  H16Y 6507   3.217   7.179   8.726 -0.6456  0.3303  0.6811
   73SLPC  C317 6508   3.338   7.341   8.650 -0.0577  0.0410 -0.5269
   73SLPC  H17X 6509   3.353   7.293   8.551 -2.0182 -0.1400 -0.7807
   73SLPC  H17Y 6510   3.437   7.383   8.677 -0.0878  0.4413 -1.0254
   73SLPC  C318 6511   3.232   7.450   8.639 -0.4415  1.3397 -0.0552
   73SLPC  H18X 6512   3.276   7.533   8.580 -0.2705  0.8329 -0.6538
   73SLPC  H18Y 6513   3.202   7.481   8.741 -1.6981 -0.5567  0.2105
   73SLPC  H18Z 6514   3.142   7.423   8.578  0.1933  2.5838 -1.6147
   74SLPC     N 6515   5.131   1.162  10.793  0.2110  0.4436 -0.0755
   74SLPC   C13 6516   5.013   1.090  10.737 -0.5262 -0.3694  0.2260
   74SLPC  H13A 6517   4.948   1.157  10.682  0.5444  1.0555  0.6197
   74SLPC  H13B 6518   5.031   1.001  10.679 -0.2976  0.1266 -0.4775
   74SLPC  H13C 6519   4.948   1.062  10.819 -0.3096 -1.3566  0.0683
   74SLPC   C14 6520   5.084   1.284  10.854 -0.3110 -0.6218  0.3526
   74SLPC  H14A 6521   5.003   1.275  10.925  1.1273  0.7430  2.3040
   74SLPC  H14B 6522   5.158   1.344  10.905  0.3279 -1.1517  0.0674
   74SLPC  H14C 6523   5.051   1.351  10.777 -3.0411  0.4008  2.2614
   74SLPC   C15 6524   5.222   1.187  10.678 -0.3279 -0.2667 -0.0415
   74SLPC  H15A 6525   5.250   1.098  10.625  0.3844  0.5790 -1.1214
   74SLPC  H15B 6526   5.176   1.259  10.612  0.8391  1.5660  1.0573
   74SLPC  H15C 6527   5.311   1.240  10.711  0.4434  0.3828 -2.9209
   74SLPC   C12 6528   5.202   1.068  10.891 -0.0333  0.0483  0.5879
   74SLPC  H12A 6529   5.132   1.045  10.969 -1.8647 -0.3929 -1.1058
   74SLPC  H12B 6530   5.279   1.129  10.936  0.2468 -0.7982  1.2680
   74SLPC   C11 6531   5.266   0.936  10.844  0.0116  0.4863  0.3668
   74SLPC  H11A 6532   5.345   0.907  10.917  0.3193 -1.7530 -0.7722
   74SLPC  H11B 6533   5.331   0.935  10.754 -0.5505 -2.3539 -0.1173
   74SLPC     P 6534   5.203   0.696  10.792 -0.3625 -0.0503 -0.1083
   74SLPC   O13 6535   5.299   0.635  10.888  0.1283  0.2793 -0.0287
   74SLPC   O14 6536   5.080   0.622  10.783  0.4020  0.2957 -0.4079
   74SLPC   O12 6537   5.165   0.842  10.826 -0.0143  0.3558 -0.0275
   74SLPC   O11 6538   5.274   0.700  10.655 -0.4144  0.1963  0.0799
   74SLPC    C1 6539   5.204   0.720  10.534  0.6340  0.5406 -0.5151
   74SLPC    HA 6540   5.117   0.787  10.550  0.9512  0.6479  0.8708
   74SLPC    HB 6541   5.270   0.783  10.470  1.1653  0.7817  0.2445
   74SLPC    C2 6542   5.173   0.585  10.449  0.1338  0.0508  0.2018
   74SLPC    HS 6543   5.150   0.506  10.522  0.5377 -0.6115 -0.3691
   74SLPC   O21 6544   5.295   0.542  10.381  0.0411 -0.2715  0.6257
   74SLPC   C21 6545   5.315   0.413  10.345 -0.5735  0.5995  0.2067
   74SLPC   O22 6546   5.261   0.317  10.399  0.2591 -0.0508 -0.1740
   74SLPC   C22 6547   5.428   0.398  10.252  0.5441 -0.1645 -0.0840
   74SLPC   H2R 6548   5.503   0.472  10.286 -0.7345  0.4102  1.6353
   74SLPC   H2S 6549   5.476   0.298  10.260 -0.6914 -0.7147  0.9775
   74SLPC    C3 6550   5.063   0.597  10.345 -0.1266  0.2568 -0.1845
   74SLPC    HX 6551   4.971   0.635  10.394 -0.1753 -0.3803  0.2239
   74SLPC    HY 6552   5.042   0.493  10.311 -1.6698  0.7478 -0.8208
   74SLPC   O31 6553   5.109   0.670  10.234  0.2772 -0.0102 -0.1274
   74SLPC   C31 6554   5.039   0.778  10.201 -1.0032 -1.1447 -0.2166
   74SLPC   O32 6555   4.947   0.821  10.265  0.3464  0.6199 -0.4720
   74SLPC   C32 6556   5.090   0.824  10.062  0.3165  0.1288 -0.7924
   74SLPC   H2X 6557   5.154   0.746  10.016 -0.9659 -0.5894 -1.4149
   74SLPC   H2Y 6558   5.149   0.916  10.081 -2.4497  1.6859  0.9382
   74SLPC   C23 6559   5.392   0.439  10.108 -0.2536 -0.5693  1.1672
   74SLPC   H3R 6560   5.482   0.448  10.043 -1.2350  0.6235 -0.0730
   74SLPC   H3S 6561   5.345   0.539  10.105 -3.9000 -2.1204  1.0634
   74SLPC   C24 6562   5.307   0.342  10.025 -0.3512 -0.6003 -0.4448
   74SLPC   H4R 6563   5.202   0.336  10.061  0.0920  0.3354  1.0713
   74SLPC   H4S 6564   5.359   0.244  10.034 -0.4031 -0.8194 -2.1278
   74SLPC   C25 6565   5.299   0.368   9.871 -0.1557  0.1206 -0.0400
   74SLPC   H5R 6566   5.396   0.394   9.823  0.7702 -1.4147  0.9136
   74SLPC   H5S 6567   5.230   0.454   9.857 -1.2442 -1.0400 -2.2446
   74SLPC   C26 6568   5.227   0.244   9.806  0.1499  0.0096  0.0133
   74SLPC   H6R 6569   5.143   0.226   9.876 -0.8676  3.4080 -0.1232
   74SLPC   H6S 6570   5.291   0.153   9.808  2.7887  1.7332  2.0107
   74SLPC   C27 6571   5.193   0.264   9.653 -0.3760 -0.0315 -0.4478
   74SLPC   H7R 6572   5.098   0.319   9.634  0.2437  1.2408 -0.0120
   74SLPC   H7S 6573   5.160   0.166   9.611 -0.9581  0.0762 -0.2584
   74SLPC   C28 6574   5.318   0.318   9.569 -0.8945  0.8837  0.3396
   74SLPC   H8R 6575   5.407   0.266   9.609 -1.0381  2.1886  2.5229
   74SLPC   H8S 6576   5.342   0.423   9.597  2.0633  0.4562 -0.2836
   74SLPC   C29 6577   5.305   0.286   9.423 -0.3172 -0.5148  0.4825
   74SLPC   H9R 6578   5.258   0.188   9.409  0.7745 -0.9831 -0.0291
   74SLPC  C210 6579   5.330   0.362   9.315  0.5122 -0.1391  0.6593
   74SLPC  H10R 6580   5.309   0.315   9.218 -0.0288  0.3395  0.5423
   74SLPC  C211 6581   5.387   0.504   9.318  0.5278  0.1844  0.0022
   74SLPC  H11R 6582   5.481   0.499   9.258  0.6470 -3.2185  0.2511
   74SLPC  H11S 6583   5.390   0.544   9.421  0.7970 -0.6173  0.3154
   74SLPC  C212 6584   5.288   0.591   9.243  0.3504 -0.0741 -1.4233
   74SLPC  H12R 6585   5.188   0.594   9.287  0.3901 -1.6651 -1.1718
   74SLPC  C213 6586   5.311   0.662   9.137 -0.2565 -0.0559  0.3400
   74SLPC  H13R 6587   5.225   0.718   9.099 -0.3147 -1.5513 -1.8957
   74SLPC  C214 6588   5.437   0.678   9.057 -0.0920 -0.6811 -0.0749
   74SLPC  H14R 6589   5.497   0.584   9.060  0.6619 -0.2483  3.6109
   74SLPC  H14S 6590   5.501   0.762   9.090 -1.6891  0.4962  0.1394
   74SLPC  C215 6591   5.404   0.676   8.904  0.7872  0.2208  0.2512
   74SLPC  H15R 6592   5.353   0.774   8.892 -3.4706 -1.6729  1.0125
   74SLPC  H15S 6593   5.324   0.604   8.875  2.0592 -1.1917  0.0906
   74SLPC  C216 6594   5.525   0.651   8.803  0.6730  0.2765  0.4350
   74SLPC  H16R 6595   5.577   0.555   8.826  1.8840  0.9286  0.5040
   74SLPC  H16S 6596   5.589   0.741   8.819  0.6347  0.0629  1.9581
   74SLPC  C217 6597   5.491   0.663   8.649  0.9731  0.3986 -0.2191
   74SLPC  H17R 6598   5.416   0.742   8.626  3.1655  3.0644  1.1580
   74SLPC  H17S 6599   5.438   0.567   8.631 -1.0385  1.4971 -0.4277
   74SLPC  C218 6600   5.612   0.679   8.560  0.3082 -0.1951 -0.3138
   74SLPC  H18R 6601   5.566   0.692   8.459 -1.6634 -0.6799  0.4721
   74SLPC  H18S 6602   5.659   0.579   8.549 -1.3118 -1.3553  2.3951
   74SLPC  H18T 6603   5.687   0.757   8.581  0.7060 -0.2594 -1.4118
   74SLPC   C33 6604   4.979   0.839   9.958 -0.2724 -0.1799  0.2812
   74SLPC   H3X 6605   4.908   0.915   9.994  1.3885  1.7287 -0.2932
   74SLPC   H3Y 6606   4.933   0.739   9.943  0.5414 -0.3752 -1.0485
   74SLPC   C34 6607   5.026   0.888   9.821  0.4690 -0.5313  0.7672
   74SLPC   H4X 6608   5.088   0.810   9.773 -0.6352 -0.1918 -1.3405
   74SLPC   H4Y 6609   5.086   0.980   9.833 -2.4931  1.8060 -0.9003
   74SLPC   C35 6610   4.902   0.905   9.723  1.0280  0.0724  0.6534
   74SLPC   H5X 6611   4.831   0.980   9.764  1.6525  1.8528 -1.3374
   74SLPC   H5Y 6612   4.855   0.805   9.716 -1.2692  0.9990  1.5983
   74SLPC   C36 6613   4.943   0.958   9.587 -0.6789 -0.3621  0.1809
   74SLPC   H6X 6614   5.019   1.036   9.607 -1.0037  0.0522 -0.1598
   74SLPC   H6Y 6615   4.853   0.996   9.533 -1.7182  2.2347  3.4214
   74SLPC   C37 6616   5.018   0.847   9.502  0.0074 -0.4716 -0.0421
   74SLPC   H7X 6617   4.940   0.770   9.486 -1.3930  0.8827  0.0595
   74SLPC   H7Y 6618   5.106   0.804   9.554  0.0904 -0.5261 -0.2296
   74SLPC   C38 6619   5.080   0.895   9.374  0.2331  0.3353 -0.4451
   74SLPC   H8X 6620   5.168   0.833   9.348  1.7908  2.0538  0.5018
   74SLPC   H8Y 6621   5.124   0.994   9.397  1.0154 -0.4159  1.5094
   74SLPC   C39 6622   4.982   0.896   9.265  0.4836 -0.1440  0.2380
   74SLPC   H9X 6623   4.895   0.962   9.288  0.1463  0.3575 -2.2294
   74SLPC   H9Y 6624   4.938   0.797   9.239 -0.8163  0.2127  0.9523
   74SLPC  C310 6625   5.035   0.958   9.138  0.0903 -0.3193 -0.1408
   74SLPC  H10X 6626   5.093   0.885   9.079  0.6021  0.6590 -0.8849
   74SLPC  H10Y 6627   5.103   1.043   9.161 -3.0732  2.3524  0.1475
   74SLPC  C311 6628   4.927   1.022   9.045  0.0463 -0.0262  0.1997
   74SLPC  H11X 6629   4.828   0.972   9.044 -1.1543  2.2483 -0.2673
   74SLPC  H11Y 6630   4.971   1.015   8.943 -1.9310 -0.4124 -0.6638
   74SLPC  C312 6631   4.909   1.171   9.077 -0.3961 -0.2890  0.0053
   74SLPC  H12X 6632   5.004   1.228   9.092  0.5095 -1.9780  1.1139
   74SLPC  H12Y 6633   4.857   1.171   9.175  1.5113 -1.0035  1.0790
   74SLPC  C313 6634   4.822   1.238   8.971 -0.3526 -0.2817  0.0828
   74SLPC  H13X 6635   4.803   1.346   8.991  2.7720  0.8387 -2.2090
   74SLPC  H13Y 6636   4.729   1.180   8.956  1.1674 -2.2102 -2.7006
   74SLPC  C314 6637   4.904   1.242   8.839  0.5724 -0.4591  0.5914
   74SLPC  H14X 6638   4.957   1.149   8.811  2.3327  0.2278  1.5275
   74SLPC  H14Y 6639   4.976   1.326   8.847 -0.6625  0.5954  0.9642
   74SLPC  C315 6640   4.818   1.287   8.715 -0.1351  0.2795 -0.2980
   74SLPC  H15X 6641   4.884   1.301   8.626  1.5664  0.7176  0.9930
   74SLPC  H15Y 6642   4.795   1.391   8.747  0.9210  0.2230  0.7175
   74SLPC  C316 6643   4.698   1.203   8.674  0.3517 -0.6220  1.0607
   74SLPC  H16X 6644   4.659   1.258   8.585  3.1210 -0.0044  0.1103
   74SLPC  H16Y 6645   4.612   1.212   8.744 -0.3790 -0.2794  0.1399
   74SLPC  C317 6646   4.719   1.057   8.629  0.4614  0.3959  0.5347
   74SLPC  H17X 6647   4.771   0.991   8.702  2.3413  0.6404 -0.5103
   74SLPC  H17Y 6648   4.777   1.054   8.534  0.8227  2.1970  0.6639
   74SLPC  C318 6649   4.588   0.996   8.586 -0.5366  0.0445 -0.2497
   74SLPC  H18X 6650   4.604   0.892   8.551  3.2630  0.8880 -1.5139
   74SLPC  H18Y 6651   4.539   1.056   8.507  1.6570 -0.3016 -1.9707
   74SLPC  H18Z 6652   4.527   0.995   8.679  1.9138  1.4746  1.5054
   75SLPC     N 6653   1.613   4.454   6.341  1.0266  0.1189  0.0215
   75SLPC   C13 6654   1.506   4.514   6.251  0.7715  0.3200  0.3984
   75SLPC  H13A 6655   1.491   4.448   6.168 -0.1477  2.1760 -0.9857
   75SLPC  H13B 6656   1.413   4.514   6.306 -1.0222  2.7849 -2.3167
   75SLPC  H13C 6657   1.524   4.617   6.223  0.6594  0.7856  1.9397
   75SLPC   C14 6658   1.621   4.532   6.474 -0.6783  0.3674 -0.1152
   75SLPC  H14A 6659   1.686   4.480   6.543  1.6331  0.2047 -2.2927
   75SLPC  H14B 6660   1.661   4.632   6.467  0.7719 -0.3129 -3.1089
   75SLPC  H14C 6661   1.528   4.538   6.528  0.2462 -1.2269  1.8048
   75SLPC   C15 6662   1.745   4.456   6.271  0.4161 -0.1878  0.0787
   75SLPC  H15A 6663   1.828   4.423   6.332  1.1890  2.5793  0.6650
   75SLPC  H15B 6664   1.747   4.388   6.186  0.2893 -0.9332  0.6633
   75SLPC  H15C 6665   1.778   4.554   6.238  1.8397 -0.5854  0.2393
   75SLPC   C12 6666   1.574   4.308   6.367 -0.0141  0.0575 -0.0911
   75SLPC  H12A 6667   1.655   4.246   6.401 -1.0990 -1.9328 -0.9587
   75SLPC  H12B 6668   1.565   4.258   6.271 -0.0408 -1.6899  0.7727
   75SLPC   C11 6669   1.437   4.282   6.443  0.3059 -0.0294  0.4059
   75SLPC  H11A 6670   1.397   4.179   6.431  0.3669 -0.2257  1.6829
   75SLPC  H11B 6671   1.362   4.343   6.389 -0.4182 -0.5513  0.7990
   75SLPC     P 6672   1.537   4.242   6.686  0.3676 -0.2175  0.0005
   75SLPC   O13 6673   1.642   4.163   6.610 -0.5966 -0.1987 -0.1378
   75SLPC   O14 6674   1.581   4.330   6.793 -0.0654  0.2525 -0.0283
   75SLPC   O12 6675   1.450   4.324   6.582 -0.0453 -0.4743 -0.2775
   75SLPC   O11 6676   1.428   4.141   6.738 -0.0206  0.6047 -0.2360
   75SLPC    C1 6677   1.332   4.173   6.826 -0.6421  0.0174  0.2770
   75SLPC    HA 6678   1.287   4.270   6.794 -1.1652 -0.4993 -0.6235
   75SLPC    HB 6679   1.251   4.098   6.816 -1.3176  0.9003 -1.5257
   75SLPC    C2 6680   1.385   4.167   6.969  0.0947  0.1299  0.0933
   75SLPC    HS 6681   1.464   4.246   6.973 -0.8022  1.0527  0.1172
   75SLPC   O21 6682   1.426   4.032   6.993 -0.0752 -0.1132  0.0950
   75SLPC   C21 6683   1.534   4.019   7.059  0.3725 -1.1065  0.2350
   75SLPC   O22 6684   1.615   4.099   7.094  0.0988 -0.4234  0.2927
   75SLPC   C22 6685   1.546   3.869   7.082 -0.3664 -0.2125 -0.6853
   75SLPC   H2R 6686   1.458   3.818   7.036 -1.3064  0.4551  0.3303
   75SLPC   H2S 6687   1.636   3.843   7.022  0.9725  2.6055 -0.1024
   75SLPC    C3 6688   1.282   4.219   7.069  1.2701 -0.5141 -0.0579
   75SLPC    HX 6689   1.201   4.143   7.079  2.0079 -1.2810  0.2070
   75SLPC    HY 6690   1.246   4.317   7.031  1.8303 -0.2973 -0.0304
   75SLPC   O31 6691   1.337   4.230   7.209 -0.5091 -0.0277  0.0618
   75SLPC   C31 6692   1.417   4.336   7.230  0.1916  0.0715 -0.3712
   75SLPC   O32 6693   1.451   4.421   7.151 -0.1021  0.5397 -0.2465
   75SLPC   C32 6694   1.450   4.339   7.380 -0.2274 -0.2974 -0.2335
   75SLPC   H2X 6695   1.390   4.267   7.439 -0.7260  1.2426  1.2066
   75SLPC   H2Y 6696   1.426   4.439   7.424 -1.7394  0.3249 -2.2875
   75SLPC   C23 6697   1.580   3.841   7.232 -0.2159  0.3771  0.1971
   75SLPC   H3R 6698   1.679   3.889   7.252 -0.1007  0.2610 -0.1036
   75SLPC   H3S 6699   1.597   3.732   7.242 -1.3406  0.2040  0.3084
   75SLPC   C24 6700   1.478   3.899   7.327 -0.2581 -0.1365  0.7978
   75SLPC   H4R 6701   1.375   3.879   7.293  0.2720  2.0752 -2.5107
   75SLPC   H4S 6702   1.492   4.009   7.332  2.8414 -0.4225  0.3693
   75SLPC   C25 6703   1.498   3.854   7.472  0.5893 -0.1374 -0.2181
   75SLPC   H5R 6704   1.605   3.831   7.487  0.4862  0.6574  2.1309
   75SLPC   H5S 6705   1.441   3.763   7.498 -1.9156  1.7907  1.5579
   75SLPC   C26 6706   1.471   3.959   7.576 -0.1263  0.0717  0.4412
   75SLPC   H6R 6707   1.361   3.977   7.567 -0.4120 -1.1044  1.3617
   75SLPC   H6S 6708   1.535   4.045   7.548  1.6911 -0.7721  1.8310
   75SLPC   C27 6709   1.518   3.909   7.713 -0.0044 -0.0237  0.5214
   75SLPC   H7R 6710   1.628   3.896   7.719  0.0115  0.1867  0.7155
   75SLPC   H7S 6711   1.470   3.809   7.715 -3.0988  1.3406  0.5309
   75SLPC   C28 6712   1.458   3.996   7.821 -0.4288  0.2511 -0.2078
   75SLPC   H8R 6713   1.474   3.954   7.923 -0.6102 -0.2290 -0.3757
   75SLPC   H8S 6714   1.347   3.999   7.812 -0.3224  0.2939 -1.6233
   75SLPC   C29 6715   1.515   4.140   7.822  0.3151 -0.5533 -0.4605
   75SLPC   H9R 6716   1.624   4.152   7.818  0.5201 -1.2093  1.6812
   75SLPC  C210 6717   1.435   4.251   7.811 -0.4737  0.1213  0.3975
   75SLPC  H10R 6718   1.498   4.342   7.809  1.4039 -1.0736 -2.7567
   75SLPC  C211 6719   1.288   4.258   7.801 -0.1238 -0.0101 -0.6662
   75SLPC  H11R 6720   1.266   4.179   7.726  0.8301  0.2359 -1.2210
   75SLPC  H11S 6721   1.257   4.355   7.757  1.6440  1.9050  1.9899
   75SLPC  C212 6722   1.206   4.244   7.928 -0.0873  0.3901 -0.0944
   75SLPC  H12R 6723   1.125   4.171   7.910 -0.1637  0.3069  0.5396
   75SLPC  C213 6724   1.210   4.325   8.038  0.5432  0.0917  0.4617
   75SLPC  H13R 6725   1.150   4.290   8.124  1.8127 -1.3946  0.7923
   75SLPC  C214 6726   1.300   4.452   8.068  0.6091  0.2157 -0.7637
   75SLPC  H14R 6727   1.292   4.521   7.981 -0.4847 -0.3463 -1.1358
   75SLPC  H14S 6728   1.409   4.439   8.085  0.3447  0.1169  1.0267
   75SLPC  C215 6729   1.223   4.522   8.183  0.4829  0.0934 -0.0030
   75SLPC  H15R 6730   1.189   4.455   8.266 -1.0066  1.1812  0.3018
   75SLPC  H15S 6731   1.135   4.578   8.146  0.9601  0.2919 -0.8508
   75SLPC  C216 6732   1.306   4.610   8.277 -0.0580  0.0966  0.7620
   75SLPC  H16R 6733   1.253   4.691   8.332 -1.1292 -0.3867  0.4800
   75SLPC  H16S 6734   1.389   4.656   8.220 -0.9637  0.3491 -0.4078
   75SLPC  C217 6735   1.381   4.537   8.398 -0.7232  0.0904  0.3544
   75SLPC  H17R 6736   1.311   4.488   8.468 -1.3627 -0.0842 -0.3966
   75SLPC  H17S 6737   1.430   4.612   8.465 -1.1847  0.0577  0.7306
   75SLPC  C218 6738   1.470   4.417   8.355  0.2465  0.1634  0.2529
   75SLPC  H18R 6739   1.413   4.344   8.295  0.9212 -0.8008  0.7465
   75SLPC  H18S 6740   1.495   4.371   8.453 -1.4525  1.4836  1.3722
   75SLPC  H18T 6741   1.555   4.450   8.291  1.4269 -1.2129  1.0258
   75SLPC   C33 6742   1.601   4.323   7.398  0.4558 -0.0170 -0.4819
   75SLPC   H3X 6743   1.633   4.280   7.496 -1.1193  1.8632  0.9265
   75SLPC   H3Y 6744   1.627   4.245   7.323  0.6738  2.8285 -3.6162
   75SLPC   C34 6745   1.687   4.447   7.371  0.2251  0.1798  0.0091
   75SLPC   H4X 6746   1.651   4.541   7.419 -1.1795 -0.8642  1.1014
   75SLPC   H4Y 6747   1.689   4.471   7.263  0.6019  0.6113  0.1110
   75SLPC   C35 6748   1.829   4.408   7.413  0.0028 -0.5349  0.4832
   75SLPC   H5X 6749   1.868   4.313   7.370  0.0496 -0.2029 -0.2171
   75SLPC   H5Y 6750   1.835   4.392   7.523  0.3293  2.3523  0.9601
   75SLPC   C36 6751   1.951   4.506   7.377  0.6407 -0.7682 -0.7031
   75SLPC   H6X 6752   1.925   4.542   7.276 -0.9372 -1.3644 -0.5314
   75SLPC   H6Y 6753   2.041   4.444   7.358  1.4020 -0.2420  0.9242
   75SLPC   C37 6754   1.981   4.618   7.476 -0.1708  0.3885  0.4270
   75SLPC   H7X 6755   1.892   4.685   7.478 -2.1763 -2.1627  0.8390
   75SLPC   H7Y 6756   2.063   4.674   7.425 -0.8211  0.0731 -0.9921
   75SLPC   C38 6757   2.017   4.570   7.615 -0.0122 -0.1718  0.6866
   75SLPC   H8X 6758   2.102   4.499   7.608 -0.6944 -0.8501 -2.8415
   75SLPC   H8Y 6759   1.926   4.516   7.649 -0.7188  0.4239 -0.2252
   75SLPC   C39 6760   2.053   4.680   7.712 -0.2418  0.0994 -0.1034
   75SLPC   H9X 6761   1.959   4.735   7.733 -1.4112 -2.3977  1.6404
   75SLPC   H9Y 6762   2.138   4.736   7.668 -0.6997 -0.8715 -2.3255
   75SLPC  C310 6763   2.088   4.625   7.851 -0.3350 -0.5123 -0.9109
   75SLPC  H10X 6764   2.160   4.546   7.824  0.2100  0.2753 -1.8053
   75SLPC  H10Y 6765   2.006   4.565   7.895 -0.4700  0.1513 -0.2235
   75SLPC  C311 6766   2.150   4.740   7.943 -0.3717 -0.0791  0.5499
   75SLPC  H11X 6767   2.065   4.802   7.979 -2.7632 -1.3031 -2.4313
   75SLPC  H11Y 6768   2.227   4.796   7.886  0.1513 -0.2799  1.0538
   75SLPC  C312 6769   2.223   4.677   8.050  0.5099  0.3013 -0.6069
   75SLPC  H12X 6770   2.272   4.759   8.107 -1.0113 -0.5952  2.1736
   75SLPC  H12Y 6771   2.317   4.631   8.012 -0.2891 -1.3351 -0.7184
   75SLPC  C313 6772   2.142   4.593   8.141 -0.4213  0.2189  0.5110
   75SLPC  H13X 6773   2.218   4.579   8.220  2.1363  0.7565 -1.7016
   75SLPC  H13Y 6774   2.134   4.494   8.092  0.3898  0.9584 -1.2036
   75SLPC  C314 6775   2.008   4.639   8.191 -1.0622 -0.0382  0.5770
   75SLPC  H14X 6776   1.968   4.566   8.265 -1.3097  0.2188  0.6977
   75SLPC  H14Y 6777   1.934   4.647   8.109 -1.1261  3.3032  0.8489
   75SLPC  C315 6778   2.015   4.767   8.271  0.8245  0.2921 -0.3906
   75SLPC  H15X 6779   1.917   4.803   8.307  1.2803  0.3178  0.8861
   75SLPC  H15Y 6780   2.047   4.852   8.208  1.6143  1.3654  1.3762
   75SLPC  C316 6781   2.107   4.768   8.401 -0.1853  0.0541  0.5541
   75SLPC  H16X 6782   2.212   4.746   8.373 -0.8754  1.2364 -3.7981
   75SLPC  H16Y 6783   2.072   4.690   8.472 -0.5446  0.3729  0.7322
   75SLPC  C317 6784   2.106   4.902   8.479  0.1503 -0.1419  0.3708
   75SLPC  H17X 6785   2.066   4.977   8.407  0.8552 -0.3207 -0.2103
   75SLPC  H17Y 6786   2.210   4.939   8.488  0.4335  0.3951 -3.5060
   75SLPC  C318 6787   2.027   4.904   8.609 -0.0842  0.4827 -0.6465
   75SLPC  H18X 6788   2.023   4.999   8.667 -0.0396  0.5222 -0.7087
   75SLPC  H18Y 6789   2.064   4.823   8.675 -1.8028 -0.6016 -0.9462
   75SLPC  H18Z 6790   1.919   4.894   8.584 -0.3405 -0.7550  0.7853
   76SLPC     N 6791   3.685   2.152   6.097 -0.2653 -0.1490  0.2888
   76SLPC   C13 6792   3.704   2.039   6.003 -0.1689 -0.3119 -0.3192
   76SLPC  H13A 6793   3.734   1.949   6.054  1.2534 -0.8977 -2.0744
   76SLPC  H13B 6794   3.605   2.013   5.969 -1.0989  0.3784  1.6611
   76SLPC  H13C 6795   3.766   2.060   5.917 -2.6104  1.7105 -1.7338
   76SLPC   C14 6796   3.822   2.187   6.163  0.2057 -0.2786  0.5496
   76SLPC  H14A 6797   3.856   2.105   6.225  3.0480  0.7398  0.4794
   76SLPC  H14B 6798   3.892   2.229   6.092  1.7351  0.8443  2.6063
   76SLPC  H14C 6799   3.807   2.275   6.224  1.9985 -0.2284  0.9905
   76SLPC   C15 6800   3.581   2.116   6.198 -0.3039 -0.3749  0.2602
   76SLPC  H15A 6801   3.601   2.021   6.247 -0.2563 -0.7844 -0.5307
   76SLPC  H15B 6802   3.575   2.193   6.273  0.0216 -0.5467  0.4700
   76SLPC  H15C 6803   3.482   2.121   6.157 -0.2361  1.5689  0.2441
   76SLPC   C12 6804   3.636   2.274   6.018 -0.1497  0.3633 -0.6589
   76SLPC  H12A 6805   3.534   2.248   5.992 -1.1159  1.2979  1.9018
   76SLPC  H12B 6806   3.686   2.284   5.923  1.1946 -0.8966 -0.1300
   76SLPC   C11 6807   3.631   2.412   6.093  0.3681  0.5979 -0.2664
   76SLPC  H11A 6808   3.585   2.483   6.021  2.8185  0.6961 -1.8341
   76SLPC  H11B 6809   3.738   2.440   6.106  0.8333 -0.1161 -2.2453
   76SLPC     P 6810   3.597   2.497   6.337  0.0544 -0.4052  0.1276
   76SLPC   O13 6811   3.500   2.491   6.450  0.7159 -0.1129  0.4957
   76SLPC   O14 6812   3.729   2.438   6.359 -0.3332  0.1328  0.3349
   76SLPC   O12 6813   3.549   2.412   6.215  0.7490  0.0170  0.2248
   76SLPC   O11 6814   3.602   2.637   6.275  0.1184  0.0879 -0.1828
   76SLPC    C1 6815   3.708   2.730   6.286 -0.2066  0.2323  0.2154
   76SLPC    HA 6816   3.803   2.678   6.261  0.1618  1.7572 -1.7719
   76SLPC    HB 6817   3.693   2.810   6.210  0.5709  1.3678  1.2201
   76SLPC    C2 6818   3.713   2.797   6.429 -0.3150  0.4272  0.2441
   76SLPC    HS 6819   3.778   2.886   6.439  0.3549  0.0233 -0.4495
   76SLPC   O21 6820   3.756   2.705   6.535  0.1734  0.2103 -0.0568
   76SLPC   C21 6821   3.874   2.663   6.537 -0.1837  0.0329 -0.1872
   76SLPC   O22 6822   3.959   2.696   6.459 -0.1926 -0.0061  0.1913
   76SLPC   C22 6823   3.883   2.559   6.649 -0.3064 -1.3598  0.2458
   76SLPC   H2R 6824   3.817   2.578   6.737  0.4825 -0.0805  0.5868
   76SLPC   H2S 6825   3.856   2.465   6.596  1.1236 -1.4733 -0.3306
   76SLPC    C3 6826   3.566   2.836   6.457 -0.7945 -0.2407  0.0636
   76SLPC    HX 6827   3.511   2.746   6.492 -0.4498 -0.4823 -0.0138
   76SLPC    HY 6828   3.518   2.878   6.366  1.8688  2.6405 -0.1664
   76SLPC   O31 6829   3.564   2.931   6.560  0.2851 -0.0507  0.2426
   76SLPC   C31 6830   3.477   2.926   6.656 -0.4051 -0.1835  0.1247
   76SLPC   O32 6831   3.405   2.834   6.679  0.3098  0.5213 -0.2363
   76SLPC   C32 6832   3.487   3.045   6.752  0.2480 -0.0286 -0.3919
   76SLPC   H2X 6833   3.433   3.133   6.711 -0.0505  0.7518  1.5906
   76SLPC   H2Y 6834   3.593   3.080   6.748 -0.1042  1.2080  0.6704
   76SLPC   C23 6835   4.036   2.547   6.690  0.4146  0.3485 -0.2670
   76SLPC   H3R 6836   4.062   2.624   6.766  0.7273  0.2157 -0.2379
   76SLPC   H3S 6837   4.098   2.558   6.599 -1.3377  1.0177 -1.4341
   76SLPC   C24 6838   4.062   2.414   6.769  0.4312 -0.3678  0.0862
   76SLPC   H4R 6839   4.009   2.334   6.712 -3.9445  1.6917  0.8676
   76SLPC   H4S 6840   4.009   2.424   6.866  0.8191  1.0414  0.1759
   76SLPC   C25 6841   4.214   2.386   6.785 -0.5213  0.5867 -1.5113
   76SLPC   H5R 6842   4.258   2.479   6.828 -0.6565 -0.8535  2.1687
   76SLPC   H5S 6843   4.265   2.352   6.693 -0.1832 -2.5478 -0.2866
   76SLPC   C26 6844   4.244   2.275   6.892 -0.6143 -0.5056  0.4115
   76SLPC   H6R 6845   4.355   2.279   6.899 -0.5575  0.9420 -0.7903
   76SLPC   H6S 6846   4.203   2.176   6.861 -0.8999  0.3601 -2.2489
   76SLPC   C27 6847   4.193   2.303   7.035  0.9432 -0.4497 -0.3835
   76SLPC   H7R 6848   4.082   2.306   7.035  0.9175  0.3378 -2.2745
   76SLPC   H7S 6849   4.233   2.400   7.073  2.8296 -1.5706  0.6547
   76SLPC   C28 6850   4.241   2.209   7.142  0.2407  0.4979 -0.1453
   76SLPC   H8R 6851   4.352   2.204   7.133  0.6664  4.0059  1.4205
   76SLPC   H8S 6852   4.231   2.274   7.232 -0.2695  0.5663 -0.2468
   76SLPC   C29 6853   4.170   2.076   7.150  0.0109 -0.9508  0.4065
   76SLPC   H9R 6854   4.172   2.020   7.055  0.0275  1.7239 -1.2852
   76SLPC  C210 6855   4.129   2.011   7.261  0.3711  0.3500 -1.0242
   76SLPC  H10R 6856   4.091   1.908   7.254  0.3312  0.3422 -0.7234
   76SLPC  C211 6857   4.117   2.070   7.401  0.1133 -0.7485  0.1606
   76SLPC  H11R 6858   4.027   2.020   7.442  0.4087 -0.7226  0.8487
   76SLPC  H11S 6859   4.092   2.178   7.396 -0.0738 -0.8388 -1.9965
   76SLPC  C212 6860   4.243   2.044   7.485  0.3528  0.2909 -0.5502
   76SLPC  H12R 6861   4.341   2.063   7.438  0.3410  1.8873  0.0187
   76SLPC  C213 6862   4.249   1.991   7.611 -0.3734 -0.7780  0.6250
   76SLPC  H13R 6863   4.350   1.974   7.652  1.0688  1.1595 -1.8282
   76SLPC  C214 6864   4.140   1.947   7.710 -0.3659 -0.3696  0.4967
   76SLPC  H14R 6865   4.145   1.836   7.708  0.8338 -0.3823  1.9094
   76SLPC  H14S 6866   4.037   1.976   7.681 -0.1266  1.1846  1.1095
   76SLPC  C215 6867   4.176   2.006   7.849  0.4404 -0.1797  0.2858
   76SLPC  H15R 6868   4.154   2.115   7.843 -0.0843  0.0434  3.8774
   76SLPC  H15S 6869   4.277   1.998   7.894 -0.5564  0.8633  2.9633
   76SLPC  C216 6870   4.086   1.966   7.970  0.7585 -0.0833  0.4986
   76SLPC  H16R 6871   3.985   1.943   7.930  1.1106  1.3257 -1.3320
   76SLPC  H16S 6872   4.069   2.043   8.049 -0.3852 -2.0428  2.2753
   76SLPC  C217 6873   4.151   1.849   8.046  0.6497  0.0308  0.0471
   76SLPC  H17R 6874   4.251   1.871   8.089  0.9034 -2.9000  1.1478
   76SLPC  H17S 6875   4.170   1.769   7.971 -1.8031 -0.7841  0.2242
   76SLPC  C218 6876   4.060   1.803   8.150 -0.2535 -0.1454 -0.2398
   76SLPC  H18R 6877   4.053   1.875   8.235 -1.8585 -0.6540  0.0768
   76SLPC  H18S 6878   4.093   1.707   8.195 -1.5563 -0.2851  0.4602
   76SLPC  H18T 6879   3.959   1.774   8.116 -0.9077  1.0614  0.5935
   76SLPC   C33 6880   3.430   3.031   6.901 -0.0971  0.3825  0.2306
   76SLPC   H3X 6881   3.331   2.982   6.909  0.0520  0.3479  2.8586
   76SLPC   H3Y 6882   3.413   3.134   6.941  0.1612  0.8155 -0.7336
   76SLPC   C34 6883   3.531   2.959   6.992 -0.0960  0.4319  0.3279
   76SLPC   H4X 6884   3.626   3.015   7.005  0.7429 -0.0560 -2.8399
   76SLPC   H4Y 6885   3.562   2.868   6.937  2.3138  2.0872 -1.2511
   76SLPC   C35 6886   3.466   2.933   7.129 -0.2840  0.6970 -0.4593
   76SLPC   H5X 6887   3.375   2.871   7.115  0.5145 -0.0210 -3.0302
   76SLPC   H5Y 6888   3.423   3.019   7.185  1.8022  0.9410  0.8992
   76SLPC   C36 6889   3.563   2.860   7.223  0.1008  0.6351 -0.1617
   76SLPC   H6X 6890   3.654   2.921   7.240  0.1162  0.3765  0.7484
   76SLPC   H6Y 6891   3.610   2.771   7.177  1.4149  0.8605  0.7081
   76SLPC   C37 6892   3.502   2.813   7.357  1.1518  0.7178  0.7103
   76SLPC   H7X 6893   3.590   2.770   7.409  1.2453  0.1222  0.0744
   76SLPC   H7Y 6894   3.416   2.745   7.343  0.0311  2.2989 -0.4342
   76SLPC   C38 6895   3.443   2.920   7.446  0.4243 -0.5233  0.0948
   76SLPC   H8X 6896   3.362   2.977   7.396 -0.4149 -0.6553  1.2478
   76SLPC   H8Y 6897   3.521   2.996   7.467  0.4609  0.0450 -1.9358
   76SLPC   C39 6898   3.399   2.863   7.581  0.9291  0.1663 -0.1969
   76SLPC   H9X 6899   3.473   2.794   7.627  0.0000 -0.3496  0.5680
   76SLPC   H9Y 6900   3.303   2.806   7.573 -0.0156  1.4003  1.6264
   76SLPC  C310 6901   3.370   2.967   7.688  0.2619 -0.0987 -0.3990
   76SLPC  H10X 6902   3.294   3.040   7.652 -2.3070 -1.3758  2.0024
   76SLPC  H10Y 6903   3.455   3.028   7.726 -0.9101  1.7103 -0.5645
   76SLPC  C311 6904   3.311   2.911   7.825  0.3167 -0.7384 -0.5317
   76SLPC  H11X 6905   3.371   2.836   7.880 -0.2833 -0.8829 -0.0582
   76SLPC  H11Y 6906   3.211   2.868   7.801 -0.0540 -1.1718  1.5900
   76SLPC  C312 6907   3.293   3.031   7.926 -0.1200  0.1707  0.2699
   76SLPC  H12X 6908   3.272   3.132   7.886  1.8865  0.6083  0.1897
   76SLPC  H12Y 6909   3.387   3.043   7.984  1.5158  0.8815 -2.3881
   76SLPC  C313 6910   3.178   3.007   8.028 -0.4385  0.2603 -0.1787
   76SLPC  H13X 6911   3.087   2.973   7.974 -0.8786 -0.7403  1.1430
   76SLPC  H13Y 6912   3.145   3.105   8.068  2.3905  1.3724 -0.3659
   76SLPC  C314 6913   3.201   2.914   8.144 -0.6787 -0.0143 -0.4082
   76SLPC  H14X 6914   3.290   2.955   8.196  0.1279 -0.4595 -1.3964
   76SLPC  H14Y 6915   3.235   2.814   8.110  0.6144  0.6419 -1.1435
   76SLPC  C315 6916   3.086   2.909   8.246  0.6773  0.4679 -0.4679
   76SLPC  H15X 6917   2.988   2.915   8.193  1.0137 -1.7385 -1.4573
   76SLPC  H15Y 6918   3.079   2.987   8.325 -1.2069 -1.6141  1.5869
   76SLPC  C316 6919   3.091   2.778   8.336 -0.6211  1.0887  0.8528
   76SLPC  H16X 6920   3.059   2.693   8.272 -0.1422 -0.6354  2.8013
   76SLPC  H16Y 6921   3.009   2.788   8.410 -1.1520  1.0509  0.2748
   76SLPC  C317 6922   3.221   2.748   8.410 -0.8654  0.2005  0.4334
   76SLPC  H17X 6923   3.227   2.837   8.477 -2.1315 -0.8587  2.0306
   76SLPC  H17Y 6924   3.318   2.759   8.357 -1.4587 -2.0409 -1.2877
   76SLPC  C318 6925   3.227   2.619   8.491 -0.1855 -0.4401  0.1372
   76SLPC  H18X 6926   3.325   2.616   8.544  0.4924 -0.8511 -1.1126
   76SLPC  H18Y 6927   3.212   2.528   8.430 -2.3616 -1.1449  1.6319
   76SLPC  H18Z 6928   3.141   2.621   8.561 -1.8319 -1.7811 -1.7680
   77SLPC     N 6929   1.355   2.258   6.274  0.2048  0.2217 -0.3442
   77SLPC   C13 6930   1.226   2.249   6.197 -0.4523 -0.3879 -0.5777
   77SLPC  H13A 6931   1.189   2.347   6.172 -0.7074 -0.4878 -0.5901
   77SLPC  H13B 6932   1.235   2.189   6.107 -1.8879  0.3039 -1.2149
   77SLPC  H13C 6933   1.148   2.203   6.255 -1.5513  0.6583 -1.1817
   77SLPC   C14 6934   1.445   2.357   6.210 -0.3639 -0.0464 -0.0162
   77SLPC  H14A 6935   1.541   2.353   6.258 -0.0991 -0.9514 -0.5930
   77SLPC  H14B 6936   1.471   2.342   6.106  1.2585 -2.8067  0.6769
   77SLPC  H14C 6937   1.404   2.456   6.204  2.0656  0.9749 -1.0958
   77SLPC   C15 6938   1.417   2.127   6.273  0.0898 -0.1108  0.2755
   77SLPC  H15A 6939   1.448   2.118   6.170 -0.9508  1.9887 -0.2847
   77SLPC  H15B 6940   1.508   2.129   6.331 -0.1847 -0.7445  0.7434
   77SLPC  H15C 6941   1.353   2.045   6.303  1.3082 -0.9208  0.7574
   77SLPC   C12 6942   1.335   2.300   6.423  0.6316  1.2419 -0.7581
   77SLPC  H12A 6943   1.251   2.368   6.432 -0.2296  0.1089  0.1881
   77SLPC  H12B 6944   1.418   2.355   6.466  1.1170  0.5549 -0.8027
   77SLPC   C11 6945   1.281   2.186   6.514 -0.7622  0.9943  0.2164
   77SLPC  H11A 6946   1.265   2.230   6.615 -1.6104 -2.2250  1.6396
   77SLPC  H11B 6947   1.359   2.109   6.529 -2.8189 -1.9993 -2.8419
   77SLPC     P 6948   1.108   1.989   6.503  0.1348  0.4175  0.0765
   77SLPC   O13 6949   0.967   1.975   6.456 -0.0855 -0.8659 -0.2281
   77SLPC   O14 6950   1.201   1.875   6.474  0.0613 -0.2505 -0.3559
   77SLPC   O12 6951   1.163   2.126   6.459 -0.0376  0.1147 -0.1510
   77SLPC   O11 6952   1.108   2.009   6.660  0.0944 -0.3305  0.3324
   77SLPC    C1 6953   1.080   1.892   6.744  0.2799  0.0005  0.3227
   77SLPC    HA 6954   0.994   1.833   6.704 -0.5145  1.6774 -0.5200
   77SLPC    HB 6955   1.165   1.820   6.739  1.3678  1.3238 -1.2191
   77SLPC    C2 6956   1.063   1.939   6.889  0.6280 -0.2457  0.6056
   77SLPC    HS 6957   1.036   1.858   6.960 -0.9587  0.7866  1.2407
   77SLPC   O21 6958   0.958   2.035   6.897 -0.3795 -0.0627 -0.0846
   77SLPC   C21 6959   0.838   1.986   6.915 -0.0557 -0.6289 -0.4479
   77SLPC   O22 6960   0.808   1.869   6.910  0.0086  0.4878 -0.3110
   77SLPC   C22 6961   0.740   2.107   6.923  0.7622  0.1882 -0.3186
   77SLPC   H2R 6962   0.789   2.199   6.886  0.9766  0.2297  0.0621
   77SLPC   H2S 6963   0.649   2.087   6.863  1.2965  0.2492 -1.1574
   77SLPC    C3 6964   1.195   2.008   6.938 -0.1795  0.2843 -0.4212
   77SLPC    HX 6965   1.211   2.097   6.873  0.9909  0.8072  0.5381
   77SLPC    HY 6966   1.278   1.934   6.926  0.3611  0.4924  1.7250
   77SLPC   O31 6967   1.181   2.049   7.074  0.1183  0.2154  0.3775
   77SLPC   C31 6968   1.268   2.003   7.156  0.1376  0.4568  0.6548
   77SLPC   O32 6969   1.389   1.992   7.133  0.4781 -0.1992  0.2058
   77SLPC   C32 6970   1.204   1.956   7.281  0.4388  0.6696  0.4231
   77SLPC   H2X 6971   1.149   1.863   7.256 -2.4507  1.8058  2.0576
   77SLPC   H2Y 6972   1.130   2.030   7.319  0.9302  1.3409  0.0832
   77SLPC   C23 6973   0.690   2.132   7.066  0.7527 -0.4904 -0.8081
   77SLPC   H3R 6974   0.629   2.047   7.103  0.5475  0.4299  1.1013
   77SLPC   H3S 6975   0.624   2.221   7.064  0.7219 -0.4157  1.2665
   77SLPC   C24 6976   0.793   2.173   7.175  0.6349 -0.0533  0.4647
   77SLPC   H4R 6977   0.830   2.276   7.160 -1.3242  0.5289 -0.7224
   77SLPC   H4S 6978   0.876   2.099   7.174 -1.4583 -2.6154  1.8968
   77SLPC   C25 6979   0.740   2.145   7.320 -0.8514 -0.6552 -1.1475
   77SLPC   H5R 6980   0.700   2.042   7.324 -1.8845 -0.2410 -0.4318
   77SLPC   H5S 6981   0.659   2.219   7.340 -0.6035 -0.5644 -0.4702
   77SLPC   C26 6982   0.851   2.160   7.422 -0.0132  0.0484 -0.2884
   77SLPC   H6R 6983   0.908   2.254   7.402 -1.6591  0.8966 -1.2633
   77SLPC   H6S 6984   0.912   2.070   7.401 -2.9976 -2.3084  0.5475
   77SLPC   C27 6985   0.805   2.157   7.573  0.6518  0.4710 -0.6865
   77SLPC   H7R 6986   0.760   2.059   7.600 -1.5267  1.6942  0.3315
   77SLPC   H7S 6987   0.726   2.234   7.579  1.1696  0.9153  1.0035
   77SLPC   C28 6988   0.918   2.173   7.669  0.0088 -0.0972 -0.3829
   77SLPC   H8R 6989   0.978   2.266   7.660  0.3206 -0.0706  1.5323
   77SLPC   H8S 6990   0.988   2.090   7.646 -1.6090 -1.1792 -1.7280
   77SLPC   C29 6991   0.863   2.167   7.811  0.0874 -0.4612 -0.3637
   77SLPC   H9R 6992   0.764   2.120   7.819 -1.1798  2.2531  1.5016
   77SLPC  C210 6993   0.936   2.200   7.921 -0.1464 -0.5048 -0.9156
   77SLPC  H10R 6994   0.887   2.182   8.019 -1.1148 -1.4017 -1.5401
   77SLPC  C211 6995   1.067   2.268   7.922 -0.1230  0.5027 -0.1301
   77SLPC  H11R 6996   1.076   2.337   7.836 -1.3682  0.9752  0.0877
   77SLPC  H11S 6997   1.155   2.201   7.924  0.1807  0.9073  0.3342
   77SLPC  C212 6998   1.068   2.359   8.041  0.3579 -0.6608  0.4937
   77SLPC  H12R 6999   1.020   2.457   8.027  0.0781 -0.5249  2.1336
   77SLPC  C213 7000   1.117   2.330   8.162  0.1475 -0.3557  0.2381
   77SLPC  H13R 7001   1.086   2.401   8.240 -0.8283 -1.4524  0.8898
   77SLPC  C214 7002   1.177   2.201   8.211 -0.2630 -0.3458  0.5098
   77SLPC  H14R 7003   1.210   2.133   8.129  0.6326 -0.3699  0.8799
   77SLPC  H14S 7004   1.104   2.149   8.276  0.0098 -0.9826  0.3221
   77SLPC  C215 7005   1.304   2.221   8.295  0.4180 -0.0511 -0.1162
   77SLPC  H15R 7006   1.380   2.266   8.227 -0.0014  0.9287  0.0484
   77SLPC  H15S 7007   1.331   2.122   8.339 -0.4715  0.1220  0.8538
   77SLPC  C216 7008   1.285   2.307   8.423 -0.5397 -0.0559 -0.2936
   77SLPC  H16R 7009   1.216   2.245   8.484 -1.7949  0.9348 -0.6483
   77SLPC  H16S 7010   1.239   2.406   8.402  0.4077  0.2728 -0.8591
   77SLPC  C217 7011   1.417   2.352   8.485  0.0360 -0.9615 -0.1286
   77SLPC  H17R 7012   1.472   2.407   8.406 -0.0846 -1.1694 -0.3585
   77SLPC  H17S 7013   1.479   2.265   8.515  0.5601 -0.0451  1.6339
   77SLPC  C218 7014   1.393   2.441   8.607  0.1468  0.6127  0.0188
   77SLPC  H18R 7015   1.483   2.459   8.669  0.5662  2.0265 -0.9440
   77SLPC  H18S 7016   1.322   2.381   8.667  0.6750 -0.6747 -0.6156
   77SLPC  H18T 7017   1.343   2.537   8.582 -1.0652 -0.0437 -0.1239
   77SLPC   C33 7018   1.309   1.939   7.398  0.4159 -0.3032  0.5052
   77SLPC   H3X 7019   1.376   2.028   7.398  1.0436 -0.6922 -1.8579
   77SLPC   H3Y 7020   1.379   1.855   7.381  2.5106  1.0651  1.8560
   77SLPC   C34 7021   1.242   1.914   7.533  0.4485 -0.8362 -0.1331
   77SLPC   H4X 7022   1.204   1.811   7.519 -1.5777 -0.3104  1.0514
   77SLPC   H4Y 7023   1.164   1.990   7.554  0.1184 -1.2992  0.3433
   77SLPC   C35 7024   1.339   1.908   7.652  0.3355 -0.8835 -0.3750
   77SLPC   H5X 7025   1.383   2.010   7.656  0.4106 -0.8817 -1.1098
   77SLPC   H5Y 7026   1.418   1.835   7.627  0.6050 -0.3411 -1.1530
   77SLPC   C36 7027   1.289   1.870   7.787 -0.4010  0.6550 -0.2499
   77SLPC   H6X 7028   1.264   1.762   7.787  0.4946  0.3946 -2.3603
   77SLPC   H6Y 7029   1.189   1.915   7.802 -1.5812 -1.3785 -1.5921
   77SLPC   C37 7030   1.382   1.899   7.910 -0.1634  0.2583 -0.3640
   77SLPC   H7X 7031   1.415   2.005   7.907 -0.1122  0.6198  4.6478
   77SLPC   H7Y 7032   1.472   1.834   7.907  0.6478  1.1137  2.3319
   77SLPC   C38 7033   1.307   1.862   8.043  0.8145 -0.1137  0.2773
   77SLPC   H8X 7034   1.253   1.766   8.030  0.1151  0.1498  1.1222
   77SLPC   H8Y 7035   1.225   1.936   8.061  1.5313  0.3158  1.8729
   77SLPC   C39 7036   1.400   1.845   8.156 -0.2704 -0.2888 -0.1862
   77SLPC   H9X 7037   1.448   1.945   8.161  0.4382 -0.5286 -1.5801
   77SLPC   H9Y 7038   1.486   1.782   8.123  0.7858  0.7132  0.5876
   77SLPC  C310 7039   1.339   1.807   8.289 -0.6229 -0.1177  0.1791
   77SLPC  H10X 7040   1.276   1.715   8.294 -0.9585  0.1494  1.1197
   77SLPC  H10Y 7041   1.272   1.889   8.321 -1.2368  0.4770 -2.4024
   77SLPC  C311 7042   1.455   1.802   8.395  0.1117  0.5727 -0.2461
   77SLPC  H11X 7043   1.503   1.901   8.407  0.0200  0.3956  2.1122
   77SLPC  H11Y 7044   1.538   1.734   8.364 -0.9187  0.1401 -2.2247
   77SLPC  C312 7045   1.410   1.755   8.531 -0.0239 -0.2143 -0.4472
   77SLPC  H12X 7046   1.371   1.651   8.534 -1.0159  0.1550  0.2764
   77SLPC  H12Y 7047   1.318   1.810   8.562  0.3925  0.3774 -0.2381
   77SLPC  C313 7048   1.529   1.768   8.632 -0.4401  0.0914  0.3969
   77SLPC  H13X 7049   1.579   1.865   8.613  2.0011 -0.7526  1.9578
   77SLPC  H13Y 7050   1.602   1.687   8.609 -1.0369 -0.6608  1.1021
   77SLPC  C314 7051   1.478   1.753   8.774  0.1089  0.2223 -0.2233
   77SLPC  H14X 7052   1.405   1.669   8.786 -1.7668  1.6222 -1.2720
   77SLPC  H14Y 7053   1.428   1.847   8.806  1.5644  0.3180  1.9929
   77SLPC  C315 7054   1.594   1.717   8.869 -0.2731 -0.5175  0.0246
   77SLPC  H15X 7055   1.575   1.756   8.971  2.6907  1.3361 -0.0020
   77SLPC  H15Y 7056   1.692   1.758   8.836 -0.5249 -1.8107 -2.5759
   77SLPC  C316 7057   1.618   1.571   8.892  0.6978  0.0698 -0.1656
   77SLPC  H16X 7058   1.607   1.512   8.799  0.3526  1.4088 -0.9939
   77SLPC  H16Y 7059   1.532   1.527   8.947  0.9495 -1.4935 -0.9741
   77SLPC  C317 7060   1.737   1.543   8.984 -0.3970 -0.2926  0.4958
   77SLPC  H17X 7061   1.696   1.451   9.032  1.2953 -0.9525  0.7551
   77SLPC  H17Y 7062   1.735   1.628   9.056 -0.7632  1.4650 -1.5049
   77SLPC  C318 7063   1.872   1.535   8.916  1.2175 -1.1852 -0.3415
   77SLPC  H18X 7064   1.950   1.535   8.995  1.6087  0.9849 -0.6522
   77SLPC  H18Y 7065   1.890   1.626   8.855  0.9611 -1.1403 -0.3528
   77SLPC  H18Z 7066   1.893   1.437   8.868  1.3987 -2.4054  2.1152
   78SLPC     N 7067   2.188   3.563   5.964 -0.1147 -0.5327 -0.1666
   78SLPC   C13 7068   2.056   3.578   5.906  0.3880  0.5936 -0.1557
   78SLPC  H13A 7069   1.989   3.512   5.959  1.2967  0.3182  0.6714
   78SLPC  H13B 7070   2.005   3.673   5.908 -0.6960  0.0173  0.7407
   78SLPC  H13C 7071   2.050   3.546   5.803 -3.5263  0.5762 -0.0846
   78SLPC   C14 7072   2.285   3.663   5.902  0.7268  0.7449 -0.2830
   78SLPC  H14A 7073   2.383   3.651   5.946  0.0537  0.8648  1.3183
   78SLPC  H14B 7074   2.291   3.651   5.795  0.6723  1.3575 -0.3567
   78SLPC  H14C 7075   2.250   3.764   5.918  0.9040  1.2513 -2.7372
   78SLPC   C15 7076   2.245   3.421   5.947  0.1837  0.3114 -0.0499
   78SLPC  H15A 7077   2.266   3.402   5.843 -1.2143  2.4892 -0.8080
   78SLPC  H15B 7078   2.339   3.422   6.000 -0.0247  2.8664  0.4077
   78SLPC  H15C 7079   2.182   3.341   5.983  1.2740 -0.1685  0.8561
   78SLPC   C12 7080   2.171   3.582   6.118 -1.0118  0.1521  0.7388
   78SLPC  H12A 7081   2.136   3.684   6.125  0.2338  0.5494  1.3958
   78SLPC  H12B 7082   2.266   3.588   6.168 -1.0828 -0.0126  0.8919
   78SLPC   C11 7083   2.087   3.469   6.193  0.4949 -1.0819 -0.3677
   78SLPC  H11A 7084   2.081   3.495   6.300  0.4601 -0.4005 -0.5331
   78SLPC  H11B 7085   2.143   3.373   6.186  2.2763 -0.1402  0.3889
   78SLPC     P 7086   1.848   3.586   6.198  0.2569 -0.3288  0.3658
   78SLPC   O13 7087   1.926   3.715   6.218  0.3121  0.8311 -0.3368
   78SLPC   O14 7088   1.727   3.589   6.118 -0.0484 -0.2726  0.3498
   78SLPC   O12 7089   1.945   3.464   6.151 -0.4345 -0.1715  0.8821
   78SLPC   O11 7090   1.802   3.541   6.343 -0.1255 -0.4892 -0.0891
   78SLPC    C1 7091   1.754   3.405   6.363 -0.5341  0.3010 -1.1444
   78SLPC    HA 7092   1.644   3.404   6.348 -0.7586  1.9867  0.0697
   78SLPC    HB 7093   1.810   3.340   6.293  0.7484  0.2705 -0.1260
   78SLPC    C2 7094   1.791   3.356   6.507 -0.1252 -0.0260  0.2256
   78SLPC    HS 7095   1.777   3.246   6.511 -1.9304  0.1865  1.6883
   78SLPC   O21 7096   1.701   3.417   6.601  0.7095 -0.5308  0.1373
   78SLPC   C21 7097   1.602   3.342   6.667  0.1623  0.7153  0.0214
   78SLPC   O22 7098   1.576   3.227   6.639 -0.3003 -0.3615 -0.4064
   78SLPC   C22 7099   1.536   3.425   6.775  0.0405 -0.2654 -0.0926
   78SLPC   H2R 7100   1.591   3.520   6.787 -2.3034  0.9008  2.5282
   78SLPC   H2S 7101   1.437   3.450   6.729  0.5815 -0.1186 -1.2087
   78SLPC    C3 7102   1.931   3.392   6.552  0.1008  0.4235 -0.1519
   78SLPC    HX 7103   1.947   3.494   6.591 -0.8531  0.1483  1.0268
   78SLPC    HY 7104   1.996   3.367   6.465 -1.4364 -0.6142 -1.0535
   78SLPC   O31 7105   1.963   3.306   6.665 -0.2440  0.2066 -0.6844
   78SLPC   C31 7106   2.095   3.305   6.683  0.2258 -0.1381 -0.0526
   78SLPC   O32 7107   2.175   3.364   6.616  0.5212 -0.3394  0.4086
   78SLPC   C32 7108   2.127   3.231   6.816 -0.3609  0.3803  0.0633
   78SLPC   H2X 7109   2.071   3.135   6.810 -2.2532  1.1873  2.9828
   78SLPC   H2Y 7110   2.070   3.287   6.892 -0.9130  1.0917 -0.8571
   78SLPC   C23 7111   1.531   3.366   6.917  0.3778 -0.3167  0.3815
   78SLPC   H3R 7112   1.518   3.256   6.920  1.3932 -0.4739 -0.5055
   78SLPC   H3S 7113   1.454   3.430   6.964  0.5999  2.9377 -3.1942
   78SLPC   C24 7114   1.666   3.394   6.998 -0.1141 -0.6304 -0.7940
   78SLPC   H4R 7115   1.752   3.340   6.954  1.8098 -0.3493  2.3248
   78SLPC   H4S 7116   1.658   3.342   7.096  1.3721 -2.5871 -1.6373
   78SLPC   C25 7117   1.709   3.543   7.012  0.2089  0.5959  0.3410
   78SLPC   H5R 7118   1.741   3.561   7.116  0.5725 -0.1540  0.3695
   78SLPC   H5S 7119   1.620   3.603   6.983  0.3813  0.5991 -0.1896
   78SLPC   C26 7120   1.830   3.581   6.926  0.1480  0.3342 -0.2046
   78SLPC   H6R 7121   1.792   3.670   6.872  0.3892  1.1282  0.9022
   78SLPC   H6S 7122   1.862   3.501   6.856 -0.8659  1.5494 -2.1331
   78SLPC   C27 7123   1.954   3.616   7.010  0.4489  0.7087  0.1760
   78SLPC   H7R 7124   1.936   3.701   7.079  2.5932  0.4106  1.1956
   78SLPC   H7S 7125   2.030   3.660   6.942 -2.3019  1.3079 -2.7275
   78SLPC   C28 7126   2.018   3.506   7.099 -0.1793  0.3679 -1.6079
   78SLPC   H8R 7127   2.046   3.433   7.019 -1.7759 -1.1029 -0.8908
   78SLPC   H8S 7128   1.944   3.451   7.161  0.7940  0.3706 -0.3946
   78SLPC   C29 7129   2.142   3.534   7.181  0.3712 -0.0752  0.3393
   78SLPC   H9R 7130   2.230   3.538   7.115  1.9475  0.0110  2.3227
   78SLPC  C210 7131   2.158   3.558   7.314 -0.0196  0.1061 -0.1693
   78SLPC  H10R 7132   2.259   3.582   7.350  0.1823  0.8579 -1.1798
   78SLPC  C211 7133   2.039   3.566   7.409  0.3423  0.1328 -0.2765
   78SLPC  H11R 7134   1.941   3.584   7.359 -0.4086 -2.5925  0.0960
   78SLPC  H11S 7135   2.054   3.648   7.483 -0.1694  0.3615 -0.4196
   78SLPC  C212 7136   2.005   3.436   7.485 -0.1135 -0.3092 -0.7184
   78SLPC  H12R 7137   1.963   3.348   7.433 -0.0050  0.2114 -1.7149
   78SLPC  C213 7138   2.025   3.425   7.619  0.2606  0.0338  0.0634
   78SLPC  H13R 7139   2.015   3.326   7.665 -0.4764  0.3082  0.5045
   78SLPC  C214 7140   2.085   3.532   7.711  0.0815  0.1485 -0.1675
   78SLPC  H14R 7141   2.038   3.631   7.693  1.8302  1.1248  0.4578
   78SLPC  H14S 7142   2.194   3.546   7.695  0.4022  0.2687  1.8915
   78SLPC  C215 7143   2.062   3.491   7.858 -0.4447  0.8443 -0.1465
   78SLPC  H15R 7144   2.119   3.565   7.918  0.9737 -1.5508  1.6492
   78SLPC  H15S 7145   2.086   3.385   7.882  1.1516  1.5807  1.8630
   78SLPC  C216 7146   1.915   3.501   7.907 -0.0435  0.6857  0.0908
   78SLPC  H16R 7147   1.849   3.435   7.845  1.1704 -0.9265  0.4495
   78SLPC  H16S 7148   1.882   3.604   7.882 -0.5074  0.4877 -0.1403
   78SLPC  C217 7149   1.894   3.471   8.065  0.2369 -0.0362  1.3270
   78SLPC  H17R 7150   1.784   3.474   8.080 -0.6223  0.0838 -3.4266
   78SLPC  H17S 7151   1.936   3.555   8.124 -1.1677  1.1843  0.6370
   78SLPC  C218 7152   1.956   3.341   8.103 -0.2106  0.6361  0.0272
   78SLPC  H18R 7153   1.940   3.315   8.209  1.5344 -0.3583  0.0830
   78SLPC  H18S 7154   2.067   3.349   8.107 -0.1532 -0.3340  0.7240
   78SLPC  H18T 7155   1.928   3.256   8.036 -0.6589  0.0742  0.9123
   78SLPC   C33 7156   2.282   3.218   6.837 -0.0327  0.4742 -0.2877
   78SLPC   H3X 7157   2.335   3.311   6.867 -1.4510  1.3732 -0.4856
   78SLPC   H3Y 7158   2.327   3.169   6.748  0.8388 -2.5735  1.6546
   78SLPC   C34 7159   2.317   3.119   6.949  0.3499  0.2033  0.0654
   78SLPC   H4X 7160   2.425   3.097   6.940  0.3452 -0.0686  0.5762
   78SLPC   H4Y 7161   2.265   3.021   6.940 -0.6712  0.3631  2.9671
   78SLPC   C35 7162   2.291   3.169   7.082  0.5860  0.3768 -0.4029
   78SLPC   H5X 7163   2.182   3.182   7.097  0.8689  1.8308  0.6615
   78SLPC   H5Y 7164   2.336   3.270   7.095  1.2094  0.3747 -2.1860
   78SLPC   C36 7165   2.333   3.077   7.191  1.0015 -0.2829 -0.3380
   78SLPC   H6X 7166   2.437   3.092   7.226  1.0802  2.7048 -1.4965
   78SLPC   H6Y 7167   2.315   2.972   7.159 -0.8827 -0.3146  0.6813
   78SLPC   C37 7168   2.252   3.111   7.327  0.2975 -0.2293 -0.5005
   78SLPC   H7X 7169   2.143   3.111   7.304  0.3651 -1.6455 -0.9369
   78SLPC   H7Y 7170   2.281   3.215   7.353 -0.6560 -0.1204  0.1832
   78SLPC   C38 7171   2.284   3.020   7.449  0.2373 -0.2420  0.1432
   78SLPC   H8X 7172   2.387   3.044   7.484  0.4151  0.9028 -1.0659
   78SLPC   H8Y 7173   2.289   2.910   7.436  3.2532 -0.0801 -1.0590
   78SLPC   C39 7174   2.202   3.050   7.573  0.5089  0.1203 -0.2951
   78SLPC   H9X 7175   2.100   3.006   7.573  0.4917 -0.0305  2.7279
   78SLPC   H9Y 7176   2.214   3.160   7.584  1.8785  0.2563 -2.5205
   78SLPC  C310 7177   2.247   2.983   7.701  0.3764 -0.2370  0.2607
   78SLPC  H10X 7178   2.345   3.027   7.731  0.8566  0.5776 -2.3060
   78SLPC  H10Y 7179   2.273   2.875   7.696  0.8061 -0.1599  0.6891
   78SLPC  C311 7180   2.144   3.023   7.818  0.1529  0.3293  0.1327
   78SLPC  H11X 7181   2.048   2.980   7.782 -0.8759  1.3203  1.5854
   78SLPC  H11Y 7182   2.152   3.134   7.826  2.5345  0.2388 -0.2362
   78SLPC  C312 7183   2.159   2.950   7.949 -0.3220 -0.1489 -0.3452
   78SLPC  H12X 7184   2.226   3.001   8.022  0.5673 -1.1383 -0.4373
   78SLPC  H12Y 7185   2.194   2.846   7.928 -1.6783 -0.6820 -0.0921
   78SLPC  C313 7186   2.026   2.930   8.028 -0.1189  1.0614  0.6892
   78SLPC  H13X 7187   1.970   2.869   7.955  1.2326 -0.6618  1.0265
   78SLPC  H13Y 7188   1.964   3.022   8.029  1.1986  1.9893  0.1716
   78SLPC  C314 7189   2.041   2.845   8.154  0.0068 -0.0506 -0.0380
   78SLPC  H14X 7190   2.096   2.753   8.128  0.0664  0.1213 -0.5311
   78SLPC  H14Y 7191   1.941   2.806   8.185  0.9495 -0.4471  2.7772
   78SLPC  C315 7192   2.098   2.933   8.266 -0.1776  0.6779 -0.2223
   78SLPC  H15X 7193   2.022   3.002   8.310 -0.5372 -0.5205  1.1156
   78SLPC  H15Y 7194   2.180   2.992   8.220 -0.8791  1.0484 -1.0203
   78SLPC  C316 7195   2.154   2.849   8.386  0.2568 -0.7251 -0.2791
   78SLPC  H16X 7196   2.184   2.923   8.463  2.4153 -2.1121  0.3227
   78SLPC  H16Y 7197   2.247   2.798   8.351 -1.2117 -2.1309 -2.3621
   78SLPC  C317 7198   2.051   2.767   8.457  1.0173  0.1079 -0.9324
   78SLPC  H17X 7199   2.005   2.685   8.398 -0.5888  0.4434 -0.2096
   78SLPC  H17Y 7200   1.961   2.831   8.471 -1.0535 -3.0535  1.7897
   78SLPC  C318 7201   2.098   2.719   8.593 -0.1344  0.6842 -0.4818
   78SLPC  H18X 7202   2.019   2.655   8.639  0.5023  1.4139  1.7339
   78SLPC  H18Y 7203   2.114   2.802   8.665 -2.7416 -0.5200  1.6652
   78SLPC  H18Z 7204   2.183   2.647   8.592 -1.1804 -0.6609  1.2334
   79SLPC     N 7205   5.102   5.758   5.923  0.4341  0.6026 -0.1765
   79SLPC   C13 7206   5.236   5.718   5.872  0.0060  0.2020 -0.1304
   79SLPC  H13A 7207   5.229   5.662   5.780 -2.8437  0.3868 -0.1216
   79SLPC  H13B 7208   5.297   5.806   5.856 -0.4704  0.5779  0.0714
   79SLPC  H13C 7209   5.290   5.672   5.953 -0.7757  0.7966  0.7502
   79SLPC   C14 7210   4.994   5.649   5.913  0.0020  0.7881 -0.3218
   79SLPC  H14A 7211   4.974   5.636   5.808 -0.0038  0.4030 -0.2737
   79SLPC  H14B 7212   5.020   5.554   5.958  1.8462  2.1732  1.7503
   79SLPC  H14C 7213   4.904   5.671   5.968  0.2655  0.3763  0.2953
   79SLPC   C15 7214   5.068   5.884   5.844 -0.0174  0.0300  0.2570
   79SLPC  H15A 7215   5.077   5.871   5.738 -1.5526 -0.1471  0.1206
   79SLPC  H15B 7216   4.965   5.911   5.859  0.0768  1.2288 -1.0792
   79SLPC  H15C 7217   5.136   5.964   5.868  2.2473 -0.5475 -3.4409
   79SLPC   C12 7218   5.101   5.801   6.070 -1.2011 -0.0998 -0.4574
   79SLPC  H12A 7219   5.000   5.808   6.107 -0.9706  1.3234 -0.0581
   79SLPC  H12B 7220   5.135   5.903   6.079 -1.4698  0.0799 -1.3629
   79SLPC   C11 7221   5.177   5.720   6.183  0.1454  0.0734 -0.9018
   79SLPC  H11A 7222   5.169   5.612   6.158 -0.9557  0.1536 -0.9586
   79SLPC  H11B 7223   5.145   5.734   6.289  2.8308 -0.7216  0.0964
   79SLPC     P 7224   5.366   5.893   6.215  0.7775  0.1079  0.8177
   79SLPC   O13 7225   5.448   5.951   6.108  0.1250 -0.3150  0.1602
   79SLPC   O14 7226   5.247   5.972   6.249  0.9394  0.3283  0.5168
   79SLPC   O12 7227   5.315   5.745   6.175 -0.9663  0.0483 -0.4029
   79SLPC   O11 7228   5.470   5.879   6.340  0.3865 -0.5410 -0.0407
   79SLPC    C1 7229   5.471   5.761   6.422  0.0311  0.2482  0.3002
   79SLPC    HA 7230   5.379   5.701   6.407  0.0346  0.6282 -1.4494
   79SLPC    HB 7231   5.558   5.695   6.401 -1.4060 -1.0538 -1.9983
   79SLPC    C2 7232   5.476   5.811   6.565  0.0639 -0.0284  0.6164
   79SLPC    HS 7233   5.445   5.726   6.630  0.4471 -0.8008 -0.1800
   79SLPC   O21 7234   5.397   5.936   6.579  0.0789 -0.4704  0.2146
   79SLPC   C21 7235   5.273   5.914   6.595  0.5414 -0.1445  0.0360
   79SLPC   O22 7236   5.219   5.809   6.618 -0.1419 -0.2976  0.2755
   79SLPC   C22 7237   5.184   6.039   6.596  0.6444 -0.0705  0.7490
   79SLPC   H2R 7238   5.245   6.132   6.596 -1.8126  1.6584  1.0898
   79SLPC   H2S 7239   5.119   6.040   6.506 -1.0998 -0.5998  1.9522
   79SLPC    C3 7240   5.622   5.841   6.597 -0.4640  0.5025  0.0580
   79SLPC    HX 7241   5.669   5.903   6.518  0.9449  0.3085  0.7086
   79SLPC    HY 7242   5.665   5.739   6.594 -0.8776  0.2954  0.8175
   79SLPC   O31 7243   5.643   5.897   6.733 -0.3106 -0.2278  0.5260
   79SLPC   C31 7244   5.675   6.031   6.732 -0.1548 -0.2384  0.2024
   79SLPC   O32 7245   5.704   6.099   6.637 -0.1263  0.3049  0.0551
   79SLPC   C32 7246   5.678   6.083   6.873  0.9191 -0.2184  0.1836
   79SLPC   H2X 7247   5.694   6.192   6.859  0.0786  0.1834  2.0833
   79SLPC   H2Y 7248   5.761   6.030   6.923  0.1452 -0.3078  1.4103
   79SLPC   C23 7249   5.086   6.032   6.717  0.3645  0.3901 -0.5681
   79SLPC   H3R 7250   5.039   5.931   6.727  0.8726  0.2770  1.0560
   79SLPC   H3S 7251   5.006   6.103   6.687 -0.8384 -0.9788 -0.7303
   79SLPC   C24 7252   5.150   6.066   6.851  0.1767 -0.3688 -0.2972
   79SLPC   H4R 7253   5.187   6.170   6.840 -0.3870 -0.0751  0.4751
   79SLPC   H4S 7254   5.237   5.999   6.869 -1.4640 -2.5851 -0.1604
   79SLPC   C25 7255   5.056   6.054   6.974 -0.0674  0.1052 -0.9665
   79SLPC   H5R 7256   4.995   5.961   6.975 -0.7824  0.5583 -1.6669
   79SLPC   H5S 7257   4.983   6.137   6.971  0.6490  0.8763  1.1201
   79SLPC   C26 7258   5.138   6.079   7.100  0.3112  0.4946  0.5226
   79SLPC   H6R 7259   5.194   6.175   7.098  0.3141  0.4836 -0.3936
   79SLPC   H6S 7260   5.225   6.010   7.111 -1.1877 -1.5319  0.2298
   79SLPC   C27 7261   5.036   6.083   7.211  0.3942 -0.6016  0.5218
   79SLPC   H7R 7262   4.980   5.988   7.195 -2.2152  0.8940  0.1642
   79SLPC   H7S 7263   4.963   6.165   7.196  1.6385  0.1039 -2.4087
   79SLPC   C28 7264   5.088   6.094   7.353 -0.1789 -0.0979  0.4322
   79SLPC   H8R 7265   5.114   6.196   7.389 -2.7329  0.3972  1.0973
   79SLPC   H8S 7266   5.174   6.024   7.357 -1.5062 -1.9692 -1.5284
   79SLPC   C29 7267   4.973   6.045   7.445 -0.4632  0.3011  0.0305
   79SLPC   H9R 7268   4.879   6.096   7.420 -0.9330 -0.3165  0.5405
   79SLPC  C210 7269   4.962   5.940   7.531 -0.1573 -0.1816 -0.4000
   79SLPC  H10R 7270   4.860   5.913   7.560 -0.8467  0.4227 -2.1489
   79SLPC  C211 7271   5.069   5.838   7.577 -0.4628  0.4036 -0.2551
   79SLPC  H11R 7272   5.175   5.871   7.575 -0.6974  1.6609  2.5643
   79SLPC  H11S 7273   5.074   5.754   7.505 -1.5305 -0.5317  0.7209
   79SLPC  C212 7274   5.038   5.798   7.720  0.4022 -0.6058  0.1882
   79SLPC  H12R 7275   5.004   5.694   7.723  0.4690 -0.6037  1.8128
   79SLPC  C213 7276   5.059   5.873   7.833  0.2185 -0.4508  0.0859
   79SLPC  H13R 7277   5.054   5.826   7.932  2.1459  2.4946  1.7266
   79SLPC  C214 7278   5.123   6.007   7.836  0.1263  0.2447  0.4243
   79SLPC  H14R 7279   5.152   6.034   7.732 -2.7881 -0.7753 -0.7516
   79SLPC  H14S 7280   5.221   6.006   7.889  0.5359 -0.9478 -0.3040
   79SLPC  C215 7281   5.032   6.119   7.894  0.4029 -0.4783 -0.5124
   79SLPC  H15R 7282   4.922   6.114   7.875  0.3976 -0.5067 -0.4759
   79SLPC  H15S 7283   5.059   6.216   7.847 -1.0118 -0.4229 -1.2897
   79SLPC  C216 7284   5.036   6.131   8.049 -1.0843 -0.5294 -0.2008
   79SLPC  H16R 7285   5.009   6.035   8.098  1.2162 -2.0389 -1.7175
   79SLPC  H16S 7286   4.953   6.197   8.083 -0.8422  0.3216 -1.1872
   79SLPC  C217 7287   5.164   6.172   8.121 -0.4814 -0.3747  0.1010
   79SLPC  H17R 7288   5.231   6.084   8.112 -0.9405 -0.5696 -1.7598
   79SLPC  H17S 7289   5.135   6.189   8.227 -0.0322  0.6994  0.0755
   79SLPC  C218 7290   5.225   6.307   8.073 -0.0360 -0.3603 -0.2621
   79SLPC  H18R 7291   5.322   6.316   8.126  0.2097 -1.6290 -0.4780
   79SLPC  H18S 7292   5.149   6.387   8.089  0.3864  0.2586 -1.3188
   79SLPC  H18T 7293   5.244   6.309   7.964 -0.4012  0.4102 -0.3187
   79SLPC   C33 7294   5.548   6.062   6.961  0.2432  0.1716  0.3337
   79SLPC   H3X 7295   5.533   5.955   6.988  0.4697 -0.2884 -1.2671
   79SLPC   H3Y 7296   5.464   6.088   6.894  1.1887 -0.1193 -0.9951
   79SLPC   C34 7297   5.545   6.154   7.083  0.2828 -0.1526  0.1891
   79SLPC   H4X 7298   5.437   6.175   7.103 -0.0555 -1.0886 -0.5928
   79SLPC   H4Y 7299   5.591   6.253   7.061  0.1480 -0.1134  0.0823
   79SLPC   C35 7300   5.592   6.089   7.218  0.3182  0.6125 -0.0732
   79SLPC   H5X 7301   5.702   6.085   7.208  0.3709  1.8568 -0.1006
   79SLPC   H5Y 7302   5.550   5.986   7.226  0.3179  0.7400  2.0679
   79SLPC   C36 7303   5.546   6.173   7.338  0.1446  0.2765  0.3764
   79SLPC   H6X 7304   5.436   6.159   7.340  0.1661 -0.1075 -0.5964
   79SLPC   H6Y 7305   5.567   6.278   7.308 -1.2528  0.6995  0.8102
   79SLPC   C37 7306   5.593   6.144   7.475  0.2597 -0.7106  0.1460
   79SLPC   H7X 7307   5.702   6.163   7.485  0.3061 -0.1473 -1.1861
   79SLPC   H7Y 7308   5.589   6.035   7.495  0.1438 -0.5482  1.0779
   79SLPC   C38 7309   5.512   6.226   7.583 -0.0574 -0.0867 -0.1724
   79SLPC   H8X 7310   5.410   6.183   7.587  0.6530 -1.8041  0.4986
   79SLPC   H8Y 7311   5.523   6.328   7.540 -2.2864  0.9983  1.5902
   79SLPC   C39 7312   5.573   6.222   7.719 -0.4991  0.0163  0.8338
   79SLPC   H9X 7313   5.529   6.301   7.784 -3.1201 -1.1287  0.6082
   79SLPC   H9Y 7314   5.681   6.245   7.705 -0.4956 -0.7290 -0.6445
   79SLPC  C310 7315   5.556   6.089   7.797 -1.0826  0.1523 -0.2488
   79SLPC  H10X 7316   5.611   6.002   7.754 -1.4229 -0.4816  0.5678
   79SLPC  H10Y 7317   5.449   6.062   7.789 -1.6865  2.6227 -1.0976
   79SLPC  C311 7318   5.591   6.105   7.947  0.3512  0.3569 -1.1462
   79SLPC  H11X 7319   5.531   6.192   7.980  0.9968 -0.1862  1.6954
   79SLPC  H11Y 7320   5.696   6.139   7.960  0.8491 -1.1978 -0.8330
   79SLPC  C312 7321   5.586   5.981   8.041 -0.0877 -0.2469  0.7982
   79SLPC  H12X 7322   5.667   5.906   8.028  1.4220  1.4143  0.1678
   79SLPC  H12Y 7323   5.484   5.944   8.018 -0.1779  1.0772 -1.3208
   79SLPC  C313 7324   5.585   6.006   8.193 -0.3337 -0.5297  0.5253
   79SLPC  H13X 7325   5.522   6.092   8.227  0.8022 -0.6561  3.2458
   79SLPC  H13Y 7326   5.690   6.011   8.229 -0.4367 -1.9543  1.0653
   79SLPC  C314 7327   5.530   5.882   8.264 -0.6172  0.4941 -0.6760
   79SLPC  H14X 7328   5.566   5.784   8.224 -1.2189 -2.3910  4.9068
   79SLPC  H14Y 7329   5.422   5.888   8.240 -0.6763 -0.5346 -0.7045
   79SLPC  C315 7330   5.561   5.892   8.413  0.3796  0.2810 -0.5414
   79SLPC  H15X 7331   5.550   5.997   8.447 -1.0235 -0.4993  1.6622
   79SLPC  H15Y 7332   5.661   5.852   8.440 -0.4178 -2.3728 -1.2067
   79SLPC  C316 7333   5.465   5.799   8.495 -0.1615  0.8167 -0.4301
   79SLPC  H16X 7334   5.465   5.702   8.442 -1.6143  1.1069 -1.0238
   79SLPC  H16Y 7335   5.358   5.830   8.495 -1.0503 -1.9090  0.4842
   79SLPC  C317 7336   5.505   5.769   8.637 -0.3076  0.6401 -0.3891
   79SLPC  H17X 7337   5.509   5.866   8.691  1.9930  0.8827 -0.8869
   79SLPC  H17Y 7338   5.605   5.726   8.615  0.2313  1.1854  0.9041
   79SLPC  C318 7339   5.422   5.664   8.715  0.0380  0.3821 -0.7750
   79SLPC  H18X 7340   5.314   5.681   8.735  0.0038 -1.7087  1.1824
   79SLPC  H18Y 7341   5.475   5.663   8.812 -1.4248  1.6880  0.0819
   79SLPC  H18Z 7342   5.425   5.572   8.652 -2.7890 -0.2891 -0.0983
   80SLPC     N 7343   1.345   3.128   6.362  0.0974 -0.4649 -0.0766
   80SLPC   C13 7344   1.291   3.165   6.494  0.4702  0.2442 -0.6115
   80SLPC  H13A 7345   1.225   3.250   6.492 -1.3500 -1.0045  1.6940
   80SLPC  H13B 7346   1.234   3.079   6.525  0.9951  0.5697  1.4029
   80SLPC  H13C 7347   1.362   3.199   6.568 -0.3944  0.0522  0.3249
   80SLPC   C14 7348   1.408   3.249   6.302 -0.1704  0.6114 -0.2601
   80SLPC  H14A 7349   1.490   3.263   6.371 -1.3415  0.8552  1.1535
   80SLPC  H14B 7350   1.443   3.244   6.200  0.6431  1.8058 -0.0536
   80SLPC  H14C 7351   1.360   3.344   6.318  3.6485  2.6494  0.1452
   80SLPC   C15 7352   1.221   3.111   6.279 -0.0349 -0.2550 -0.1277
   80SLPC  H15A 7353   1.172   3.020   6.311 -1.0044  0.1620 -0.3830
   80SLPC  H15B 7354   1.155   3.196   6.291  1.6055  1.0580 -0.0793
   80SLPC  H15C 7355   1.253   3.088   6.178 -1.6607 -0.4019 -0.6395
   80SLPC   C12 7356   1.435   3.009   6.366  0.3193  0.1725 -0.2997
   80SLPC  H12A 7357   1.533   3.044   6.393  0.6016  1.4769 -2.7169
   80SLPC  H12B 7358   1.424   2.975   6.264 -3.3638 -1.6535  0.5278
   80SLPC   C11 7359   1.382   2.896   6.462 -0.3596  0.5023 -0.2824
   80SLPC  H11A 7360   1.374   2.932   6.567 -1.9590 -1.3122  0.2711
   80SLPC  H11B 7361   1.463   2.822   6.478 -1.9398 -0.9196  1.6118
   80SLPC     P 7362   1.254   2.682   6.357  0.0430  0.2044 -0.0261
   80SLPC   O13 7363   1.125   2.650   6.292  0.0688 -0.0416  0.2122
   80SLPC   O14 7364   1.375   2.664   6.272  0.2013 -0.4557  0.2045
   80SLPC   O12 7365   1.257   2.829   6.416  0.0728 -0.0650  0.4556
   80SLPC   O11 7366   1.281   2.600   6.491 -0.0035  0.6688 -0.1352
   80SLPC    C1 7367   1.192   2.600   6.602  0.3663  0.2183 -0.5153
   80SLPC    HA 7368   1.088   2.635   6.589 -0.0307 -0.7688 -0.0805
   80SLPC    HB 7369   1.180   2.498   6.644 -0.6690 -0.1349 -1.6112
   80SLPC    C2 7370   1.256   2.677   6.719 -0.6397  0.1423  0.4170
   80SLPC    HS 7371   1.279   2.779   6.682  0.1431  0.3084  1.3289
   80SLPC   O21 7372   1.382   2.615   6.750  0.1574 -0.3310  0.7018
   80SLPC   C21 7373   1.457   2.701   6.821 -0.6863  0.8510  0.0463
   80SLPC   O22 7374   1.438   2.818   6.841  0.0334 -0.2431 -0.2282
   80SLPC   C22 7375   1.570   2.628   6.880 -0.6679  1.5884  0.5134
   80SLPC   H2R 7376   1.609   2.547   6.815  0.1252 -1.0499  4.0160
   80SLPC   H2S 7377   1.655   2.700   6.886  1.5128 -0.7721 -0.5237
   80SLPC    C3 7378   1.166   2.679   6.846 -0.8234 -0.1296 -0.6519
   80SLPC    HX 7379   1.070   2.734   6.839  0.7346  3.1815  1.4974
   80SLPC    HY 7380   1.220   2.742   6.920 -2.0315  2.5020 -1.9112
   80SLPC   O31 7381   1.142   2.544   6.888  0.2622 -0.5419 -0.3125
   80SLPC   C31 7382   1.109   2.528   7.021  0.2216 -0.8380 -0.2042
   80SLPC   O32 7383   1.079   2.622   7.093  0.3817 -0.5278 -0.5687
   80SLPC   C32 7384   1.113   2.379   7.052 -0.0303 -0.6864 -0.5938
   80SLPC   H2X 7385   1.200   2.327   7.007 -0.1149 -3.7980  2.4331
   80SLPC   H2Y 7386   1.024   2.339   6.998  2.2196 -3.4573 -2.5034
   80SLPC   C23 7387   1.542   2.564   7.012  0.1292  0.2744 -0.4988
   80SLPC   H3R 7388   1.632   2.508   7.046 -0.5807 -0.4766  0.1922
   80SLPC   H3S 7389   1.457   2.493   7.024 -0.8383  0.5894 -4.2429
   80SLPC   C24 7390   1.515   2.667   7.124 -0.2953  0.4636 -0.6204
   80SLPC   H4R 7391   1.412   2.646   7.160 -0.3669 -0.7903 -1.5162
   80SLPC   H4S 7392   1.501   2.769   7.082  1.6027  0.5845 -1.0508
   80SLPC   C25 7393   1.614   2.675   7.244  0.0786  0.4719  1.1576
   80SLPC   H5R 7394   1.704   2.725   7.202  0.7942 -0.3117  1.7201
   80SLPC   H5S 7395   1.652   2.572   7.258  1.1023  0.2907 -2.0356
   80SLPC   C26 7396   1.551   2.722   7.374  0.3808  0.0767  0.0191
   80SLPC   H6R 7397   1.475   2.648   7.407 -1.0610  1.9640  1.1859
   80SLPC   H6S 7398   1.500   2.821   7.366 -0.1728  0.1642  3.3367
   80SLPC   C27 7399   1.654   2.737   7.490  0.0027 -0.7440 -0.2122
   80SLPC   H7R 7400   1.697   2.840   7.489 -0.7788 -0.4064 -0.7504
   80SLPC   H7S 7401   1.727   2.657   7.465 -1.1345 -1.6628 -0.6785
   80SLPC   C28 7402   1.596   2.711   7.628 -0.4771  0.3699 -0.6194
   80SLPC   H8R 7403   1.552   2.609   7.626 -1.1239  0.6508 -0.9697
   80SLPC   H8S 7404   1.516   2.785   7.643 -0.1069  0.8246 -0.8678
   80SLPC   C29 7405   1.697   2.736   7.733 -0.1962 -0.2699 -0.3001
   80SLPC   H9R 7406   1.774   2.662   7.756 -1.0698 -0.4783  2.3767
   80SLPC  C210 7407   1.692   2.841   7.811 -0.0407 -0.0818  0.7589
   80SLPC  H10R 7408   1.773   2.847   7.885 -0.7848 -3.0818  1.9752
   80SLPC  C211 7409   1.594   2.954   7.807  0.0222 -0.3706  0.9709
   80SLPC  H11R 7410   1.504   2.921   7.864 -1.4798  0.3756 -0.8845
   80SLPC  H11S 7411   1.568   2.981   7.703  0.1828  2.0598  1.4912
   80SLPC  C212 7412   1.653   3.080   7.866 -0.1980 -0.9554 -0.1803
   80SLPC  H12R 7413   1.695   3.147   7.790 -1.6565 -3.4390 -3.4027
   80SLPC  C213 7414   1.640   3.132   7.989 -0.3788  0.1417  0.0855
   80SLPC  H13R 7415   1.681   3.232   8.011 -2.6253  1.1895 -0.2502
   80SLPC  C214 7416   1.569   3.060   8.101 -0.1998 -0.0325  0.1706
   80SLPC  H14R 7417   1.615   2.959   8.109  0.1883  0.1879  0.8048
   80SLPC  H14S 7418   1.466   3.048   8.060  0.2031  2.9102 -2.0698
   80SLPC  C215 7419   1.554   3.132   8.230 -0.1330  0.1606  0.4646
   80SLPC  H15R 7420   1.471   3.073   8.275 -1.1312 -0.1864 -1.7140
   80SLPC  H15S 7421   1.512   3.233   8.211  0.8343  0.1768 -1.8950
   80SLPC  C216 7422   1.687   3.139   8.318 -0.2189  0.4515 -0.0975
   80SLPC  H16R 7423   1.758   3.195   8.255  0.2795 -0.3382 -0.2493
   80SLPC  H16S 7424   1.717   3.034   8.339  0.7081  0.6609 -0.3622
   80SLPC  C217 7425   1.662   3.207   8.451  0.2726 -0.5595  0.8134
   80SLPC  H17R 7426   1.568   3.171   8.497  0.6620 -0.3931  1.7667
   80SLPC  H17S 7427   1.652   3.315   8.428 -0.8408 -0.9089 -0.4584
   80SLPC  C218 7428   1.775   3.195   8.552 -0.3275  0.4886  0.0236
   80SLPC  H18R 7429   1.751   3.094   8.591 -0.2172 -0.1021 -1.3498
   80SLPC  H18S 7430   1.761   3.280   8.622  0.7338  1.5458 -0.9850
   80SLPC  H18T 7431   1.872   3.199   8.498 -0.4068  1.7340 -0.0584
   80SLPC   C33 7432   1.106   2.356   7.204  0.1532  0.2897 -0.5328
   80SLPC   H3X 7433   1.097   2.246   7.214  0.0834  0.2983 -0.5036
   80SLPC   H3Y 7434   1.017   2.400   7.252  0.2061 -0.2577  0.0695
   80SLPC   C34 7435   1.230   2.382   7.292  1.4607  0.2165 -0.1054
   80SLPC   H4X 7436   1.231   2.491   7.311 -1.1999  0.0936  1.3577
   80SLPC   H4Y 7437   1.315   2.344   7.231  0.8100 -0.6644 -0.4936
   80SLPC   C35 7438   1.208   2.329   7.438  0.3405 -0.2822  0.3287
   80SLPC   H5X 7439   1.176   2.222   7.434 -1.9197  0.3201  0.9742
   80SLPC   H5Y 7440   1.126   2.381   7.491 -0.4694 -0.1617 -1.0129
   80SLPC   C36 7441   1.345   2.337   7.503 -0.3923 -0.0546  0.5994
   80SLPC   H6X 7442   1.414   2.408   7.452 -1.3625  0.5249  0.0849
   80SLPC   H6Y 7443   1.392   2.236   7.507 -0.6530 -0.2566 -0.8075
   80SLPC   C37 7444   1.332   2.376   7.655 -0.0391 -0.2357  0.0769
   80SLPC   H7X 7445   1.260   2.306   7.703 -0.5988  0.0341 -0.3571
   80SLPC   H7Y 7446   1.285   2.476   7.670 -0.4986  0.1574 -3.1251
   80SLPC   C38 7447   1.461   2.362   7.736 -0.3832  0.0378 -0.5009
   80SLPC   H8X 7448   1.525   2.437   7.685 -0.1262 -0.4426 -0.8938
   80SLPC   H8Y 7449   1.504   2.263   7.710 -0.1538 -0.0446  0.1786
   80SLPC   C39 7450   1.437   2.387   7.887 -0.1429 -0.3663  0.2992
   80SLPC   H9X 7451   1.531   2.351   7.935  0.7013  0.4098 -0.7445
   80SLPC   H9Y 7452   1.364   2.317   7.934 -1.1211  0.8924  0.6959
   80SLPC  C310 7453   1.406   2.527   7.929  0.0424  0.2667 -0.3511
   80SLPC  H10X 7454   1.300   2.557   7.913  0.4169  0.7507 -2.1245
   80SLPC  H10Y 7455   1.476   2.597   7.879 -0.1363  0.1774 -0.7293
   80SLPC  C311 7456   1.437   2.550   8.080  0.1958 -0.7765 -0.1420
   80SLPC  H11X 7457   1.543   2.524   8.103  1.0800  2.8621  0.5356
   80SLPC  H11Y 7458   1.378   2.474   8.135 -0.0390 -1.7349 -1.6558
   80SLPC  C312 7459   1.406   2.691   8.122  0.5099 -0.6969 -0.6184
   80SLPC  H12X 7460   1.299   2.710   8.097  0.4710  2.1081  1.2463
   80SLPC  H12Y 7461   1.468   2.759   8.061 -2.4037  1.3093 -1.5770
   80SLPC  C313 7462   1.416   2.725   8.272  0.9788 -0.1776  0.1541
   80SLPC  H13X 7463   1.353   2.666   8.342  0.3103 -0.7547 -0.9158
   80SLPC  H13Y 7464   1.390   2.832   8.281  1.9937 -0.0351  1.7964
   80SLPC  C314 7465   1.564   2.723   8.326 -0.2052 -1.2249 -0.7931
   80SLPC  H14X 7466   1.620   2.803   8.272  1.5059 -0.1349  2.3287
   80SLPC  H14Y 7467   1.611   2.624   8.312  0.5672 -0.9263 -0.3778
   80SLPC  C315 7468   1.564   2.761   8.478  0.4823 -0.0865  0.2016
   80SLPC  H15X 7469   1.506   2.684   8.532  1.7901 -0.1335  1.6175
   80SLPC  H15Y 7470   1.512   2.859   8.473 -0.9303 -0.8569 -0.5536
   80SLPC  C316 7471   1.692   2.791   8.555  0.1674 -0.0692  0.7543
   80SLPC  H16X 7472   1.752   2.863   8.496 -0.2974  0.1614  0.5650
   80SLPC  H16Y 7473   1.742   2.694   8.577  1.0053  0.0468 -0.4815
   80SLPC  C317 7474   1.660   2.861   8.694  0.4410  0.1476 -0.0763
   80SLPC  H17X 7475   1.599   2.953   8.683 -1.5111 -1.0719  0.0238
   80SLPC  H17Y 7476   1.752   2.887   8.751  0.5736  0.4937 -0.4400
   80SLPC  C318 7477   1.567   2.774   8.788  0.4150 -0.4149 -0.3182
   80SLPC  H18X 7478   1.614   2.679   8.822 -0.1462 -1.4721 -2.3577
   80SLPC  H18Y 7479   1.466   2.762   8.742 -0.4279  1.9246  0.7966
   80SLPC  H18Z 7480   1.556   2.839   8.877 -2.8825  0.5553 -1.2716
   81SAPS     N 7481   0.252   4.959  10.925  0.0060  0.2244 -0.6030
   81SAPS   HN1 7482   0.149   4.965  10.913 -0.0062 -0.4668 -0.9293
   81SAPS   HN2 7483   0.277   5.013  11.010  1.5843  0.8708 -1.4399
   81SAPS   HN3 7484   0.303   4.988  10.840  0.1201 -0.9771 -0.9724
   81SAPS   C12 7485   0.283   4.809  10.960  0.2544 -0.5582 -0.5676
   81SAPS  H12A 7486   0.360   4.802  11.035 -1.3348 -0.3542  1.1814
   81SAPS   C13 7487   0.166   4.727  11.021  0.5597 -0.4351  0.3208
   81SAPS  O13A 7488   0.052   4.771  11.017 -0.3992 -0.2673 -0.0959
   81SAPS  O13B 7489   0.205   4.623  11.074 -0.5312  0.2225  0.2901
   81SAPS   C11 7490   0.332   4.732  10.832  0.5289 -0.0395 -0.1563
   81SAPS  H11A 7491   0.256   4.738  10.751  1.0884  0.3934 -0.6609
   81SAPS  H11B 7492   0.342   4.626  10.864  1.7683 -0.4545 -1.7574
   81SAPS     P 7493   0.596   4.722  10.853  0.0273  0.4488 -0.0933
   81SAPS   O13 7494   0.643   4.810  10.963  0.1121  1.4449  0.0899
   81SAPS   O14 7495   0.580   4.582  10.891 -0.0808  0.0181  0.6393
   81SAPS   O12 7496   0.465   4.776  10.786  0.6536  0.0634 -0.0519
   81SAPS   O11 7497   0.692   4.729  10.737  0.7207 -0.7305  0.2762
   81SAPS    C1 7498   0.724   4.614  10.654 -0.4096 -0.6762 -0.5145
   81SAPS    HA 7499   0.831   4.585  10.664 -0.4039 -1.1515 -1.7445
   81SAPS    HB 7500   0.672   4.519  10.679 -0.1761 -0.8187 -0.5608
   81SAPS    C2 7501   0.705   4.653  10.503 -0.3689 -0.2405  0.2999
   81SAPS    HS 7502   0.753   4.565  10.455 -1.8698 -1.3110  0.6994
   81SAPS   O21 7503   0.769   4.771  10.458 -0.7380 -0.0889  0.1372
   81SAPS   C21 7504   0.900   4.767  10.443  1.0910 -0.2701  0.1129
   81SAPS   O22 7505   0.971   4.670  10.465  0.9334 -0.0552 -0.4309
   81SAPS   C22 7506   0.949   4.898  10.380 -0.0673 -0.6753  1.0131
   81SAPS   H2R 7507   0.992   4.966  10.457 -1.9113 -1.3766  2.7489
   81SAPS   H2S 7508   1.043   4.873  10.326 -0.0409  3.3387 -1.1467
   81SAPS    C3 7509   0.554   4.649  10.468  0.0859 -0.4871  0.1536
   81SAPS    HX 7510   0.500   4.716  10.538  1.3647  1.6221 -0.7848
   81SAPS    HY 7511   0.525   4.542  10.480  3.0550 -1.4266 -0.0975
   81SAPS   O31 7512   0.517   4.702  10.340 -0.3017 -0.0994  0.2446
   81SAPS   C31 7513   0.523   4.620  10.231  0.7173 -0.1013 -0.8671
   81SAPS   O32 7514   0.562   4.508  10.230  0.1707 -0.1617 -0.2643
   81SAPS   C32 7515   0.471   4.704  10.118  0.0032  0.6146  0.3118
   81SAPS   H2X 7516   0.518   4.803  10.132 -0.5229  1.0614 -0.9572
   81SAPS   H2Y 7517   0.360   4.716  10.127 -0.1858 -1.4863  1.3987
   81SAPS   C23 7518   0.858   4.968  10.276 -0.4363  0.0339  0.6750
   81SAPS   H3R 7519   0.898   5.070  10.257 -1.8777  0.6853  0.9964
   81SAPS   H3S 7520   0.752   4.979  10.309 -1.1938 -1.1783 -1.1661
   81SAPS   C24 7521   0.854   4.889  10.142  0.1342  0.6023  0.3177
   81SAPS   H4R 7522   0.798   4.798  10.172  2.0755 -1.4545 -1.7716
   81SAPS   H4S 7523   0.956   4.861  10.107  0.5567  1.0453  1.1863
   81SAPS   C25 7524   0.781   4.978  10.036 -0.7533  1.1081  0.2202
   81SAPS   H5R 7525   0.694   5.032  10.076 -1.7282 -0.0479 -0.2835
   81SAPS   C26 7526   0.803   4.981   9.906  0.2250 -0.6871 -0.1706
   81SAPS   H6R 7527   0.744   5.053   9.848 -0.0906 -1.5105 -0.8912
   81SAPS   C27 7528   0.911   4.905   9.833 -0.3343 -0.3461 -0.3587
   81SAPS   H7R 7529   0.863   4.807   9.812 -1.1423 -0.8191  3.0555
   81SAPS   H7S 7530   1.000   4.897   9.899 -0.3554  0.4045 -0.2322
   81SAPS   C28 7531   0.951   4.988   9.709 -0.6433  0.0226  0.5068
   81SAPS   H8R 7532   1.007   5.079   9.733 -0.0136 -0.2554  0.1139
   81SAPS   C29 7533   0.929   4.960   9.579  0.5642  0.0243  0.2374
   81SAPS   H9R 7534   0.962   5.034   9.505  2.0743 -1.0630 -0.2060
   81SAPS  C210 7535   0.840   4.844   9.524  0.2176  0.1154 -0.4674
   81SAPS  H10R 7536   0.765   4.811   9.600 -0.1587 -0.0318 -0.8967
   81SAPS  H10S 7537   0.914   4.763   9.508  0.3339  0.2531 -0.6340
   81SAPS  C211 7538   0.764   4.867   9.392 -0.2849  0.2661 -0.4728
   81SAPS  H11R 7539   0.720   4.967   9.378 -0.0817  0.2483 -1.2763
   81SAPS  C212 7540   0.774   4.790   9.284 -0.0099  0.9588 -0.3988
   81SAPS  H12R 7541   0.707   4.819   9.202 -1.0775  1.3951  0.6067
   81SAPS  C213 7542   0.846   4.657   9.269  0.3061 -0.3173  0.4358
   81SAPS  H13R 7543   0.777   4.593   9.210  0.1138  0.9925 -0.7981
   81SAPS  H13S 7544   0.858   4.605   9.366  3.1775 -0.6133  0.0194
   81SAPS  C214 7545   0.975   4.668   9.198 -0.5754 -0.6769  0.3294
   81SAPS  H14R 7546   0.977   4.743   9.119  0.2815 -0.2185  0.7729
   81SAPS  C215 7547   1.086   4.596   9.231 -0.2805  0.2941  1.1108
   81SAPS  H15R 7548   1.180   4.615   9.179  0.7644  0.1692  2.8679
   81SAPS  C216 7549   1.091   4.492   9.339 -0.0467  0.1586 -0.5494
   81SAPS  H16R 7550   1.167   4.419   9.303  0.2544 -0.4342  1.1932
   81SAPS  H16S 7551   0.989   4.452   9.360 -0.0223  0.4711  0.1902
   81SAPS  C217 7552   1.151   4.549   9.475  0.8040 -0.3351  0.1888
   81SAPS  H17R 7553   1.068   4.594   9.533 -1.1040  0.4369 -2.8767
   81SAPS  H17S 7554   1.217   4.636   9.457 -2.4899  2.5017  0.6242
   81SAPS  C218 7555   1.209   4.448   9.565 -0.4482 -0.0562 -0.2831
   81SAPS  H18R 7556   1.297   4.398   9.520 -0.9211 -1.5738  0.4155
   81SAPS  H18S 7557   1.134   4.368   9.582 -2.5033  1.5326 -1.3560
   81SAPS  C219 7558   1.258   4.506   9.702  0.9906 -0.6454 -0.5298
   81SAPS  H19R 7559   1.165   4.518   9.762 -1.2570 -1.4155 -3.6141
   81SAPS  H19S 7560   1.294   4.611   9.690  1.1304 -0.2966  2.2595
   81SAPS  C220 7561   1.348   4.414   9.778 -0.2024 -0.3588  0.2629
   81SAPS  H20R 7562   1.373   4.450   9.880 -1.8820 -1.6843  1.1887
   81SAPS  H20S 7563   1.443   4.408   9.721  0.3897  0.2689  1.1495
   81SAPS  H20T 7564   1.315   4.309   9.794 -1.2911  0.1722  1.6176
   81SAPS   C33 7565   0.510   4.655   9.979 -0.3220  0.3073  0.3195
   81SAPS   H3X 7566   0.619   4.633   9.982 -0.2599  0.7219  2.5741
   81SAPS   H3Y 7567   0.495   4.736   9.904  2.8050 -0.1206 -0.9423
   81SAPS   C34 7568   0.446   4.525   9.943  0.2765 -0.3376  0.4164
   81SAPS   H4X 7569   0.339   4.553   9.929  0.6082 -0.2232 -2.4910
   81SAPS   H4Y 7570   0.455   4.441  10.015 -1.1152 -1.9002 -1.1361
   81SAPS   C35 7571   0.481   4.471   9.809 -0.1331 -0.5160 -0.2263
   81SAPS   H5X 7572   0.423   4.377   9.793 -0.5059 -0.3883  0.3519
   81SAPS   H5Y 7573   0.590   4.449   9.810 -0.2915 -1.3468  1.3507
   81SAPS   C36 7574   0.451   4.567   9.691  0.3287  0.1598 -0.2925
   81SAPS   H6X 7575   0.498   4.666   9.709  0.0812  0.0248  1.1936
   81SAPS   H6Y 7576   0.345   4.599   9.696  0.6134  0.9698  2.1350
   81SAPS   C37 7577   0.512   4.506   9.560 -0.2432 -0.2448  0.2075
   81SAPS   H7X 7578   0.475   4.402   9.559 -3.6824  0.8591 -0.4775
   81SAPS   H7Y 7579   0.622   4.498   9.575 -0.4871 -0.7162  1.9953
   81SAPS   C38 7580   0.482   4.588   9.429  0.3207  0.5198 -0.4783
   81SAPS   H8X 7581   0.568   4.655   9.406  0.4494  0.3382 -0.5339
   81SAPS   H8Y 7582   0.395   4.656   9.435  0.1378  0.3663 -1.2029
   81SAPS   C39 7583   0.455   4.506   9.294 -0.2118 -0.1513 -0.2467
   81SAPS   H9X 7584   0.368   4.447   9.331  0.9914 -1.2148  1.0500
   81SAPS   H9Y 7585   0.536   4.437   9.262  0.1745  0.3819 -0.4210
   81SAPS  C310 7586   0.410   4.598   9.183 -0.1254 -0.4879 -0.0805
   81SAPS  H10X 7587   0.495   4.670   9.177 -0.3024 -0.2275  0.4089
   81SAPS  H10Y 7588   0.316   4.645   9.219 -1.7661 -2.0867 -2.0739
   81SAPS  C311 7589   0.391   4.520   9.058 -0.1775  0.2087 -0.2596
   81SAPS  H11X 7590   0.316   4.441   9.078 -0.9936  0.3592 -2.5090
   81SAPS  H11Y 7591   0.487   4.469   9.040  1.0094  2.2451 -0.0181
   81SAPS  C312 7592   0.348   4.594   8.931  0.3884 -0.2866 -0.4837
   81SAPS  H12X 7593   0.251   4.645   8.949  1.1144  0.3485  2.1897
   81SAPS  H12Y 7594   0.318   4.517   8.857 -0.1032  0.3030 -0.9064
   81SAPS  C313 7595   0.455   4.698   8.892 -0.0500  0.9068  0.2527
   81SAPS  H13X 7596   0.464   4.763   8.982  0.6262  1.9810 -0.5704
   81SAPS  H13Y 7597   0.408   4.760   8.812 -0.9634  0.4229  0.3929
   81SAPS  C314 7598   0.592   4.652   8.863  0.5490 -0.3996  0.0251
   81SAPS  H14X 7599   0.586   4.561   8.800  2.2620 -1.2291  1.0072
   81SAPS  H14Y 7600   0.640   4.634   8.962  0.6998 -3.1813 -0.4703
   81SAPS  C315 7601   0.677   4.752   8.797  0.2998  0.5107  0.5882
   81SAPS  H15X 7602   0.676   4.846   8.856 -0.1350  0.4511  0.6793
   81SAPS  H15Y 7603   0.640   4.768   8.693  0.2538 -5.0113 -0.5224
   81SAPS  C316 7604   0.822   4.702   8.794  0.0597 -0.0211 -0.4120
   81SAPS  H16X 7605   0.832   4.624   8.873  2.9369  0.4877 -0.1501
   81SAPS  H16Y 7606   0.894   4.778   8.831  1.8546 -1.7751 -0.1462
   81SAPS  C317 7607   0.872   4.652   8.663 -0.3883  0.1449  0.5466
   81SAPS  H17X 7608   0.895   4.743   8.603  0.4029 -0.3089  0.1423
   81SAPS  H17Y 7609   0.796   4.590   8.610  2.2911 -0.6335 -2.6664
   81SAPS  C318 7610   1.003   4.574   8.675 -0.6489 -0.0698  0.2688
   81SAPS  H18X 7611   0.983   4.469   8.706  0.4154 -0.7867 -1.3551
   81SAPS  H18Y 7612   1.080   4.638   8.725 -0.4607  1.3918 -1.7761
   81SAPS  H18Z 7613   1.047   4.580   8.573 -1.7681 -0.7566 -0.2646
   82SAPS     N 7614   6.206   4.406  11.261  0.4524  0.2584  0.3855
   82SAPS   HN1 7615   6.118   4.419  11.314  0.8271  0.1560  1.0459
   82SAPS   HN2 7616   6.287   4.445  11.315  1.1239 -1.2522  0.5464
   82SAPS   HN3 7617   6.202   4.460  11.173  0.9231  0.8947  0.7426
   82SAPS   C12 7618   6.217   4.267  11.238 -0.7331 -0.2694  0.3711
   82SAPS  H12A 7619   6.293   4.261  11.161 -0.0299 -1.7030  1.1311
   82SAPS   C13 7620   6.267   4.179  11.358 -0.2512  0.2552 -0.2524
   82SAPS  O13A 7621   6.304   4.238  11.463 -0.1829 -0.4307 -0.1111
   82SAPS  O13B 7622   6.258   4.050  11.348 -0.3859 -0.4333  0.1460
   82SAPS   C11 7623   6.074   4.222  11.203  0.5604  0.6282  0.8575
   82SAPS  H11A 7624   6.016   4.233  11.297  0.7415  0.6083  0.9701
   82SAPS  H11B 7625   6.080   4.116  11.172 -0.1044  0.4482  1.3116
   82SAPS     P 7626   5.880   4.265  11.019 -0.0114 -0.1034 -0.4259
   82SAPS   O13 7627   5.798   4.167  11.087  0.0503  0.5206 -0.4736
   82SAPS   O14 7628   5.809   4.389  10.978 -0.3941  0.2588  0.4569
   82SAPS   O12 7629   6.009   4.307  11.106  0.3515  0.4872 -0.8548
   82SAPS   O11 7630   5.944   4.187  10.898  0.2141  0.2529 -0.1608
   82SAPS    C1 7631   6.073   4.220  10.838 -0.3486 -0.0985  0.0133
   82SAPS    HA 7632   6.132   4.287  10.904 -0.1874  1.3260 -1.4877
   82SAPS    HB 7633   6.139   4.132  10.820  0.4627  0.2669  1.1110
   82SAPS    C2 7634   6.071   4.308  10.712 -0.1866 -1.2341 -0.2933
   82SAPS    HS 7635   6.010   4.398  10.732  2.1422  0.4430 -0.2891
   82SAPS   O21 7636   6.011   4.229  10.608 -0.0030 -0.3658  0.0703
   82SAPS   C21 7637   5.878   4.223  10.587 -0.1275  0.5065  0.0017
   82SAPS   O22 7638   5.795   4.277  10.647 -0.5417  0.0266  0.3395
   82SAPS   C22 7639   5.852   4.140  10.461  0.8827 -0.2860 -0.1764
   82SAPS   H2R 7640   5.763   4.178  10.408  1.1797  2.8460  1.3457
   82SAPS   H2S 7641   5.940   4.172  10.402  1.3974  0.5429  0.9964
   82SAPS    C3 7642   6.214   4.342  10.666 -0.3724  0.7158  0.7351
   82SAPS    HX 7643   6.281   4.255  10.683 -1.5859  0.0491  2.3298
   82SAPS    HY 7644   6.263   4.420  10.728  0.2332  1.8731 -1.1190
   82SAPS   O31 7645   6.216   4.393  10.531  0.2806 -0.0760  0.2807
   82SAPS   C31 7646   6.153   4.503  10.503  0.7612  0.1247  0.3232
   82SAPS   O32 7647   6.085   4.566  10.581  0.2007  0.1454  0.6669
   82SAPS   C32 7648   6.179   4.522  10.357 -0.0086  0.7220  0.3159
   82SAPS   H2X 7649   6.082   4.520  10.304  0.2331  2.4239 -0.2414
   82SAPS   H2Y 7650   6.230   4.430  10.321 -0.4447  0.5348  0.1702
   82SAPS   C23 7651   5.858   3.988  10.488  0.0934 -0.0224 -0.5641
   82SAPS   H3R 7652   5.763   3.961  10.539  0.6406 -0.7751  0.0766
   82SAPS   H3S 7653   5.940   3.967  10.559 -1.0084  0.6053  0.9488
   82SAPS   C24 7654   5.895   3.897  10.371 -0.1768  0.7040  0.4934
   82SAPS   H4R 7655   5.887   3.791  10.403 -1.2339  0.9549  1.1173
   82SAPS   H4S 7656   6.003   3.899  10.347 -0.4906 -0.1309 -1.1658
   82SAPS   C25 7657   5.800   3.932  10.261  0.0583 -0.6705 -0.0325
   82SAPS   H5R 7658   5.696   3.921  10.294  0.8485 -3.8602  1.8369
   82SAPS   C26 7659   5.832   3.974  10.139  0.6301  0.2197  0.5342
   82SAPS   H6R 7660   5.754   4.008  10.069  0.4344 -0.1053  0.5930
   82SAPS   C27 7661   5.969   3.993  10.079 -0.2527  0.0045  0.6232
   82SAPS   H7R 7662   6.040   3.935  10.141  0.6958  0.8459  0.3413
   82SAPS   H7S 7663   6.005   4.098  10.081 -0.0569  0.0152 -1.4240
   82SAPS   C28 7664   5.990   3.934   9.938 -0.4059 -0.3480 -0.1763
   82SAPS   H8R 7665   6.005   3.826   9.945 -0.0177 -0.2857 -0.0215
   82SAPS   C29 7666   5.987   4.000   9.818  0.2424  0.7399 -0.2509
   82SAPS   H9R 7667   6.003   3.945   9.724 -2.2503  0.2749 -0.4656
   82SAPS  C210 7668   5.954   4.148   9.799 -0.1705 -0.5190 -0.6185
   82SAPS  H10R 7669   6.043   4.212   9.811 -1.9405  1.5644  3.5640
   82SAPS  H10S 7670   5.889   4.190   9.879  2.8912 -1.2949  2.5567
   82SAPS  C211 7671   5.898   4.170   9.662  0.1072 -0.3377  0.9894
   82SAPS  H11R 7672   5.789   4.159   9.660 -0.0662  1.3280  0.2150
   82SAPS  C212 7673   5.965   4.197   9.546 -0.4268 -0.5651 -0.1063
   82SAPS  H12R 7674   5.906   4.197   9.453 -3.0349  0.9171  1.4222
   82SAPS  C213 7675   6.111   4.225   9.540 -0.7258 -0.4746 -0.2916
   82SAPS  H13R 7676   6.153   4.230   9.643 -0.4559 -0.3313 -0.4094
   82SAPS  H13S 7677   6.130   4.327   9.501  0.4380 -0.9324 -0.9682
   82SAPS  C214 7678   6.185   4.129   9.457  0.0764  0.5551  0.0743
   82SAPS  H14R 7679   6.169   4.152   9.351 -1.6061 -2.4306 -0.4280
   82SAPS  C215 7680   6.260   4.022   9.487 -0.5856 -0.3437  0.2167
   82SAPS  H15R 7681   6.298   3.958   9.406  0.0611  2.3750 -1.8159
   82SAPS  C216 7682   6.292   3.970   9.626  0.2276 -0.2093 -0.3468
   82SAPS  H16R 7683   6.212   4.006   9.694 -0.6516  1.3235 -2.1003
   82SAPS  H16S 7684   6.391   4.009   9.658  0.8575 -2.1816  0.2174
   82SAPS  C217 7685   6.287   3.818   9.629 -0.3645 -0.8682 -0.8079
   82SAPS  H17R 7686   6.371   3.779   9.568 -0.6809  0.6042 -2.2527
   82SAPS  H17S 7687   6.194   3.774   9.588 -0.7461  0.4307 -1.4040
   82SAPS  C218 7688   6.316   3.760   9.769 -0.2376 -0.3545  0.3211
   82SAPS  H18R 7689   6.338   3.653   9.750 -0.1731 -0.1977 -0.5650
   82SAPS  H18S 7690   6.230   3.780   9.837  1.4205  0.5259  2.2568
   82SAPS  C219 7691   6.438   3.821   9.837  0.1650  0.7747  0.3294
   82SAPS  H19R 7692   6.427   3.931   9.847 -0.3351  0.8852 -1.1568
   82SAPS  H19S 7693   6.533   3.799   9.783 -0.8529  1.1382 -1.6846
   82SAPS  C220 7694   6.454   3.755   9.976  0.0585  0.1854 -0.6083
   82SAPS  H20R 7695   6.372   3.791  10.042  1.4097  1.8452  0.2373
   82SAPS  H20S 7696   6.551   3.792  10.014 -0.0997  0.1464 -0.1640
   82SAPS  H20T 7697   6.447   3.644   9.968 -1.2423  0.2695 -0.8653
   82SAPS   C33 7698   6.259   4.651  10.322  0.0305 -0.1857  0.4445
   82SAPS   H3X 7699   6.371   4.650  10.323  0.0886  1.0439 -0.8223
   82SAPS   H3Y 7700   6.238   4.725  10.402  2.1334 -0.7976  1.6596
   82SAPS   C34 7701   6.219   4.717  10.190 -0.1478  0.1059  0.2251
   82SAPS   H4X 7702   6.268   4.665  10.105  1.6931  0.2283  1.1598
   82SAPS   H4Y 7703   6.251   4.823  10.194 -0.9966  0.3428  0.8850
   82SAPS   C35 7704   6.068   4.731  10.170 -0.9548  0.6761  0.1123
   82SAPS   H5X 7705   6.018   4.762  10.264 -0.4888  0.8803  0.2990
   82SAPS   H5Y 7706   6.028   4.635  10.133 -1.5282  1.0639 -0.2845
   82SAPS   C36 7707   6.023   4.838  10.063 -0.3034 -0.7052  0.5245
   82SAPS   H6X 7708   6.053   4.933  10.110  0.0010 -1.1528  1.2438
   82SAPS   H6Y 7709   5.913   4.841  10.047 -0.1835  2.4130 -0.2845
   82SAPS   C37 7710   6.086   4.811   9.919  0.5989  0.0355 -0.5388
   82SAPS   H7X 7711   6.048   4.718   9.874 -0.9974  0.6521 -0.5198
   82SAPS   H7Y 7712   6.196   4.805   9.934  0.4836 -0.5138  0.1470
   82SAPS   C38 7713   6.059   4.926   9.817 -0.7142  0.0772  0.7169
   82SAPS   H8X 7714   6.102   4.902   9.718 -0.0835  1.1531  0.7158
   82SAPS   H8Y 7715   6.125   5.012   9.844 -0.0828  0.3282 -1.4798
   82SAPS   C39 7716   5.920   4.981   9.801 -0.1335 -0.0396  0.0968
   82SAPS   H9X 7717   5.906   5.029   9.899  1.6954  0.3609  0.2008
   82SAPS   H9Y 7718   5.857   4.891   9.788  0.9042 -0.9643  1.2030
   82SAPS  C310 7719   5.904   5.069   9.682  0.0622  0.2764  0.2990
   82SAPS  H10X 7720   5.949   5.171   9.684 -0.0800  0.3302  1.0342
   82SAPS  H10Y 7721   5.798   5.089   9.654  0.5603  2.4698 -0.2795
   82SAPS  C311 7722   5.945   4.995   9.550 -0.0472 -0.5767 -0.3141
   82SAPS  H11X 7723   5.904   4.892   9.539 -0.2532 -0.4009 -1.3786
   82SAPS  H11Y 7724   6.056   4.991   9.546  0.1128  1.4412  1.0157
   82SAPS  C312 7725   5.900   5.079   9.424 -0.4028 -0.1878 -0.3791
   82SAPS  H12X 7726   5.939   5.182   9.428  0.7535 -0.5816 -1.0190
   82SAPS  H12Y 7727   5.789   5.084   9.426 -0.3495  1.1299  1.0159
   82SAPS  C313 7728   5.943   5.010   9.300 -0.2642 -0.4296  0.3149
   82SAPS  H13X 7729   5.874   4.928   9.274 -0.8852  0.1445  0.1224
   82SAPS  H13Y 7730   6.043   4.962   9.299 -0.9546 -1.9426  1.4429
   82SAPS  C314 7731   5.939   5.110   9.187  0.4824  0.1886 -0.0287
   82SAPS  H14X 7732   6.008   5.195   9.206  1.3082 -0.7955  1.5926
   82SAPS  H14Y 7733   5.839   5.157   9.177 -0.0608 -0.6580  1.1676
   82SAPS  C315 7734   5.965   5.050   9.042 -0.3374  0.4712 -0.8117
   82SAPS  H15X 7735   5.907   4.956   9.044  1.5669 -0.7519 -0.3440
   82SAPS  H15Y 7736   6.074   5.031   9.038 -0.7293 -2.1256 -0.5805
   82SAPS  C316 7737   5.908   5.133   8.923  0.2542  0.5553  0.1657
   82SAPS  H16X 7738   5.951   5.235   8.926  0.0433  0.6166  2.6880
   82SAPS  H16Y 7739   5.799   5.140   8.944  0.3759 -0.3533  1.1462
   82SAPS  C317 7740   5.928   5.062   8.792 -0.5935  0.2825  0.1831
   82SAPS  H17X 7741   5.920   4.952   8.811 -0.1336 -0.4010 -2.9502
   82SAPS  H17Y 7742   6.035   5.082   8.770  0.0433  0.9554  3.4264
   82SAPS  C318 7743   5.822   5.107   8.697  0.4470  0.1086 -0.3213
   82SAPS  H18X 7744   5.843   5.063   8.597 -1.8052  0.4898 -1.0247
   82SAPS  H18Y 7745   5.826   5.218   8.686  2.3023  0.2586  1.2161
   82SAPS  H18Z 7746   5.716   5.101   8.728  0.2134  0.0824 -1.1046
   83SAPS     N 7747   2.929   6.555  11.078  0.0241 -0.5374 -0.2204
   83SAPS   HN1 7748   3.018   6.601  11.051  0.4440 -0.8119  0.6599
   83SAPS   HN2 7749   2.901   6.498  10.996  1.3929  0.1724 -1.2223
   83SAPS   HN3 7750   2.858   6.631  11.083  1.0236  0.3490  1.6303
   83SAPS   C12 7751   2.924   6.481  11.206  0.3681 -0.7127 -0.3921
   83SAPS  H12A 7752   2.902   6.379  11.177 -0.6838 -0.8093  0.6624
   83SAPS   C13 7753   3.050   6.477  11.290  0.4948  0.7420  0.2540
   83SAPS  O13A 7754   3.154   6.538  11.252 -0.1062 -0.1563 -0.2877
   83SAPS  O13B 7755   3.054   6.394  11.386  0.5660  0.4276 -0.2543
   83SAPS   C11 7756   2.811   6.539  11.297  0.1293  0.4773  0.4512
   83SAPS  H11A 7757   2.853   6.636  11.329 -2.1397  1.6314  0.1187
   83SAPS  H11B 7758   2.798   6.484  11.393 -1.2523  0.8745  0.5074
   83SAPS     P 7759   2.567   6.468  11.224 -0.1989 -0.1285  0.1456
   83SAPS   O13 7760   2.610   6.342  11.159  0.9720 -0.0273  0.4280
   83SAPS   O14 7761   2.516   6.459  11.363  0.0696  0.3544  0.5583
   83SAPS   O12 7762   2.686   6.570  11.232 -0.0608 -0.3591 -0.2264
   83SAPS   O11 7763   2.458   6.550  11.147 -0.3930  0.0545  0.7228
   83SAPS    C1 7764   2.465   6.577  11.005  0.1669  0.7129  0.5538
   83SAPS    HA 7765   2.394   6.657  10.975  0.6398  0.8608 -0.1832
   83SAPS    HB 7766   2.564   6.620  10.979  0.9390 -0.2830  1.7415
   83SAPS    C2 7767   2.431   6.449  10.917 -0.0273  0.4128  0.1330
   83SAPS    HS 7768   2.495   6.362  10.943 -1.3025 -0.9404 -1.0799
   83SAPS   O21 7769   2.446   6.477  10.779  0.2321 -0.2038  0.1605
   83SAPS   C21 7770   2.566   6.476  10.732  0.5398  0.3067  0.2908
   83SAPS   O22 7771   2.666   6.449  10.790 -0.6689 -0.0859  0.1515
   83SAPS   C22 7772   2.561   6.508  10.589  0.0044 -0.9008  0.2697
   83SAPS   H2R 7773   2.520   6.611  10.581  0.5456 -0.4846  2.3031
   83SAPS   H2S 7774   2.666   6.524  10.556  1.0048 -1.3131  2.9635
   83SAPS    C3 7775   2.283   6.409  10.933  0.1053  0.7485 -0.6224
   83SAPS    HX 7776   2.236   6.496  10.883 -1.1032  0.3388 -0.2287
   83SAPS    HY 7777   2.251   6.417  11.039 -2.3779  2.7109 -1.4254
   83SAPS   O31 7778   2.245   6.284  10.867 -0.2913  0.0721 -0.1293
   83SAPS   C31 7779   2.124   6.283  10.818 -0.4907  0.1109 -0.0484
   83SAPS   O32 7780   2.045   6.378  10.813 -0.4799 -0.2021  0.1439
   83SAPS   C32 7781   2.102   6.140  10.775  0.2423  0.3634  0.1653
   83SAPS   H2X 7782   2.017   6.104  10.837  0.0705 -0.4487 -0.5229
   83SAPS   H2Y 7783   2.195   6.078  10.771 -0.4150 -0.7542  1.4373
   83SAPS   C23 7784   2.483   6.419  10.493 -0.3608  0.7009  0.1371
   83SAPS   H3R 7785   2.491   6.446  10.386 -1.8468  1.0289  0.0880
   83SAPS   H3S 7786   2.373   6.427  10.505 -0.3756  0.1788  0.3725
   83SAPS   C24 7787   2.526   6.268  10.505 -0.2418 -0.2117 -0.2172
   83SAPS   H4R 7788   2.473   6.203  10.432 -0.0988 -2.2608  1.4049
   83SAPS   H4S 7789   2.495   6.226  10.604  2.0112 -1.6243 -0.0382
   83SAPS   C25 7790   2.675   6.260  10.488  0.0529  0.0787  0.2817
   83SAPS   H5R 7791   2.730   6.262  10.584  1.3359  1.7837 -0.4391
   83SAPS   C26 7792   2.738   6.248  10.373 -0.6400  0.2938  0.6911
   83SAPS   H6R 7793   2.847   6.238  10.369 -0.8092 -2.4182  0.5436
   83SAPS   C27 7794   2.672   6.234  10.234  0.6426 -1.1524 -0.0104
   83SAPS   H7R 7795   2.562   6.223  10.244  0.2089  1.2966 -1.4003
   83SAPS   H7S 7796   2.709   6.149  10.172 -1.2776 -0.6095 -2.0009
   83SAPS   C28 7797   2.687   6.372  10.167 -0.0499  0.8943  0.2497
   83SAPS   H8R 7798   2.709   6.455  10.235 -0.7530  2.5622 -1.4474
   83SAPS   C29 7799   2.665   6.407  10.039 -0.0280 -0.1524  0.0452
   83SAPS   H9R 7800   2.671   6.513  10.011 -2.5750 -0.4477 -1.9352
   83SAPS  C210 7801   2.616   6.312   9.935  0.5143 -0.2812  0.6347
   83SAPS  H10R 7802   2.552   6.370   9.865  0.2677 -2.5966 -1.2093
   83SAPS  H10S 7803   2.555   6.232   9.984  1.1606 -1.1853  0.0088
   83SAPS  C211 7804   2.732   6.243   9.863  0.0937  0.2093 -0.8537
   83SAPS  H11R 7805   2.775   6.170   9.934 -3.2785  2.1279  3.6616
   83SAPS  C212 7806   2.754   6.248   9.733  0.3399 -0.1385  0.7209
   83SAPS  H12R 7807   2.838   6.185   9.700  0.2210 -0.9774  1.9374
   83SAPS  C213 7808   2.673   6.319   9.621 -0.3570  0.7997 -1.1044
   83SAPS  H13R 7809   2.671   6.428   9.640  0.8355  0.4925  1.2447
   83SAPS  H13S 7810   2.565   6.292   9.623 -0.1753  0.0793 -0.5358
   83SAPS  C214 7811   2.712   6.278   9.482 -0.8673 -0.4433 -0.1429
   83SAPS  H14R 7812   2.708   6.169   9.464  0.8058 -0.4183 -0.7737
   83SAPS  C215 7813   2.750   6.365   9.387 -0.3112 -0.2671 -0.2324
   83SAPS  H15R 7814   2.786   6.320   9.294  2.0450 -2.0153  1.3979
   83SAPS  C216 7815   2.752   6.512   9.396  0.0388  0.1997 -0.3703
   83SAPS  H16R 7816   2.793   6.548   9.493 -0.1743  1.1617 -0.6346
   83SAPS  H16S 7817   2.648   6.545   9.378  0.1911  0.3281 -1.0345
   83SAPS  C217 7818   2.828   6.578   9.281 -0.2025 -0.0942  0.1303
   83SAPS  H17R 7819   2.788   6.551   9.181  0.4571  1.7667 -0.6688
   83SAPS  H17S 7820   2.938   6.560   9.290  0.2828  2.4492  0.0369
   83SAPS  C218 7821   2.821   6.732   9.289  0.0368 -0.0489  0.4677
   83SAPS  H18R 7822   2.852   6.776   9.386 -0.0960 -0.3404  0.6423
   83SAPS  H18S 7823   2.717   6.763   9.267  0.0278 -1.3084 -1.5863
   83SAPS  C219 7824   2.892   6.797   9.170 -0.0518 -0.4036 -0.8765
   83SAPS  H19R 7825   2.864   6.755   9.071  0.6031 -1.8843 -0.4697
   83SAPS  H19S 7826   2.998   6.764   9.180  0.5728  2.0769  2.8248
   83SAPS  C220 7827   2.894   6.948   9.164 -0.3946  0.4232  0.7571
   83SAPS  H20R 7828   2.939   7.011   9.243 -0.1723  1.2046  0.0304
   83SAPS  H20S 7829   2.786   6.973   9.169 -0.3948  0.5952  0.0359
   83SAPS  H20T 7830   2.943   6.990   9.073  0.4063 -0.4554  0.7679
   83SAPS   C33 7831   2.048   6.131  10.632  0.2394 -0.5156  0.7710
   83SAPS   H3X 7832   1.956   6.193  10.637  0.6722  0.2916 -0.7500
   83SAPS   H3Y 7833   2.002   6.032  10.614 -2.6274  0.7666  0.5514
   83SAPS   C34 7834   2.148   6.163  10.518  1.2264  0.2432 -0.1883
   83SAPS   H4X 7835   2.218   6.078  10.503 -0.6830 -1.1236 -1.9839
   83SAPS   H4Y 7836   2.208   6.255  10.533 -0.2544  1.3708 -0.9750
   83SAPS   C35 7837   2.081   6.179  10.384 -0.2902  0.5353 -0.0515
   83SAPS   H5X 7838   2.024   6.274  10.374 -1.2315 -0.0799 -0.6475
   83SAPS   H5Y 7839   2.016   6.093  10.356  0.3912 -0.2908  0.8328
   83SAPS   C36 7840   2.194   6.183  10.274 -0.3042 -0.6011 -0.0219
   83SAPS   H6X 7841   2.245   6.084  10.275 -0.6201 -0.8093  2.9656
   83SAPS   H6Y 7842   2.266   6.262  10.302 -0.0915 -1.1746  1.1075
   83SAPS   C37 7843   2.152   6.210  10.132 -0.3689 -0.4293  0.8023
   83SAPS   H7X 7844   2.105   6.311  10.134  0.6043  0.1931 -2.3589
   83SAPS   H7Y 7845   2.067   6.139  10.124 -0.2413 -0.5702  0.7045
   83SAPS   C38 7846   2.256   6.198  10.026 -0.8421 -0.2319  0.5580
   83SAPS   H8X 7847   2.311   6.102  10.039 -1.5283 -0.8975 -1.0820
   83SAPS   H8Y 7848   2.325   6.282  10.045  1.5769 -1.4276 -2.1834
   83SAPS   C39 7849   2.199   6.212   9.879  0.0902  0.1904  0.1117
   83SAPS   H9X 7850   2.156   6.314   9.873  0.4504  0.2739 -1.2833
   83SAPS   H9Y 7851   2.120   6.134   9.871  0.7215 -0.7039  1.9056
   83SAPS  C310 7852   2.289   6.180   9.767 -0.0251 -0.8408  0.2593
   83SAPS  H10X 7853   2.334   6.079   9.780 -1.4459 -1.5754 -0.2467
   83SAPS  H10Y 7854   2.375   6.249   9.778  0.2625 -1.4476  2.1984
   83SAPS  C311 7855   2.216   6.177   9.631  0.0589 -0.2554 -0.1778
   83SAPS  H11X 7856   2.141   6.259   9.626  1.5528  1.1481 -0.3816
   83SAPS  H11Y 7857   2.164   6.079   9.632  1.0753 -0.8028  0.8435
   83SAPS  C312 7858   2.316   6.173   9.509 -0.0514 -0.2008  0.2791
   83SAPS  H12X 7859   2.405   6.108   9.527 -0.1057 -0.2054  0.5275
   83SAPS  H12Y 7860   2.362   6.274   9.507  1.6258 -0.9162  0.6594
   83SAPS  C313 7861   2.247   6.139   9.376 -0.3021  0.3018  0.1231
   83SAPS  H13X 7862   2.150   6.192   9.376 -0.1454  0.6006 -1.2337
   83SAPS  H13Y 7863   2.234   6.028   9.382 -0.4361  0.2353 -1.1950
   83SAPS  C314 7864   2.327   6.156   9.244 -0.7560  0.1234 -0.0447
   83SAPS  H14X 7865   2.425   6.105   9.240 -1.3387 -1.1861  1.4375
   83SAPS  H14Y 7866   2.351   6.264   9.231  1.5785 -0.5817 -2.6390
   83SAPS  C315 7867   2.247   6.119   9.123  0.4084  0.5712  0.2691
   83SAPS  H15X 7868   2.140   6.124   9.152 -0.0462 -1.4953 -0.8043
   83SAPS  H15Y 7869   2.266   6.011   9.105  1.0002  1.0171 -2.0827
   83SAPS  C316 7870   2.271   6.195   8.997  0.0331  0.0898  0.0673
   83SAPS  H16X 7871   2.327   6.287   9.023 -1.1419  0.4931  1.3072
   83SAPS  H16Y 7872   2.177   6.235   8.951 -0.1528  0.1537  0.4963
   83SAPS  C317 7873   2.362   6.122   8.894 -0.2653  0.2458  0.0539
   83SAPS  H17X 7874   2.319   6.021   8.877  0.1874 -0.6145  3.2671
   83SAPS  H17Y 7875   2.460   6.099   8.943 -0.4640 -0.7265  0.0190
   83SAPS  C318 7876   2.381   6.197   8.760  0.3961  0.3585  0.7673
   83SAPS  H18X 7877   2.447   6.141   8.690  0.4817  0.3606  0.8455
   83SAPS  H18Y 7878   2.431   6.291   8.793 -1.3556  1.2548  0.9624
   83SAPS  H18Z 7879   2.289   6.220   8.702  1.0674 -1.7962 -1.3155
   84SAPS     N 7880   2.814   4.220  11.342  0.1334 -1.1661 -0.1095
   84SAPS   HN1 7881   2.821   4.270  11.251 -1.6005 -0.9783 -0.1811
   84SAPS   HN2 7882   2.892   4.152  11.342  0.4097 -0.8534 -0.7282
   84SAPS   HN3 7883   2.720   4.176  11.341 -1.4097  1.8554 -1.0468
   84SAPS   C12 7884   2.827   4.323  11.451  0.6104  0.9408 -0.9210
   84SAPS  H12A 7885   2.727   4.353  11.478 -0.5286 -2.1989 -1.2225
   84SAPS   C13 7886   2.881   4.271  11.589  0.3810 -0.0292  0.4226
   84SAPS  O13A 7887   2.897   4.150  11.619 -0.5565 -0.3196 -0.1815
   84SAPS  O13B 7888   2.888   4.362  11.671 -0.5304 -0.0056 -0.1410
   84SAPS   C11 7889   2.922   4.435  11.395 -0.3169 -0.7239  0.1432
   84SAPS  H11A 7890   3.011   4.378  11.362 -0.2719 -0.3373 -0.4190
   84SAPS  H11B 7891   2.965   4.491  11.481 -1.2150 -0.1262  0.2235
   84SAPS     P 7892   2.776   4.624  11.281  0.0976  0.5986 -0.0763
   84SAPS   O13 7893   2.640   4.573  11.311  0.2017  0.4829 -0.4841
   84SAPS   O14 7894   2.824   4.719  11.382  0.3427 -0.4682  0.6325
   84SAPS   O12 7895   2.872   4.504  11.279  0.3975  0.0662  0.3570
   84SAPS   O11 7896   2.781   4.683  11.135  0.2704 -0.3734 -0.5903
   84SAPS    C1 7897   2.894   4.659  11.044  0.0478 -0.0151  0.0159
   84SAPS    HA 7898   2.988   4.644  11.100 -0.1035  1.9109  0.8508
   84SAPS    HB 7899   2.880   4.569  10.980  0.9171  0.1716 -0.4461
   84SAPS    C2 7900   2.921   4.790  10.961  0.2464 -0.6012  0.0621
   84SAPS    HS 7901   2.916   4.874  11.034 -1.5814 -0.1755 -0.4849
   84SAPS   O21 7902   2.818   4.796  10.862  0.3360 -0.0055 -0.6135
   84SAPS   C21 7903   2.807   4.904  10.792  0.1691 -0.0519 -0.0091
   84SAPS   O22 7904   2.875   5.004  10.804  0.1534 -0.1833  0.0017
   84SAPS   C22 7905   2.692   4.890  10.692 -0.4809  0.3496 -0.0449
   84SAPS   H2R 7906   2.735   4.915  10.593  1.4411  1.0565  0.9046
   84SAPS   H2S 7907   2.663   4.783  10.685  2.6976 -0.5553 -1.5570
   84SAPS    C3 7908   3.065   4.796  10.898 -0.0753 -0.6061 -0.0933
   84SAPS    HX 7909   3.131   4.821  10.984 -2.3822 -0.2264  1.6787
   84SAPS    HY 7910   3.080   4.880  10.827  0.7941 -1.6539 -1.1797
   84SAPS   O31 7911   3.110   4.668  10.844  0.1845 -0.3398  0.0343
   84SAPS   C31 7912   3.046   4.644  10.722  0.3487 -0.4757  0.0674
   84SAPS   O32 7913   2.993   4.730  10.658  0.0586 -0.3470  0.4669
   84SAPS   C32 7914   3.063   4.498  10.678 -0.1771  0.2990 -0.2209
   84SAPS   H2X 7915   2.964   4.469  10.638  0.3182 -0.2663 -1.0796
   84SAPS   H2Y 7916   3.087   4.434  10.766  1.4796 -0.0524 -0.8817
   84SAPS   C23 7917   2.575   4.984  10.722 -0.5432 -0.2483  0.3874
   84SAPS   H3R 7918   2.616   5.082  10.754 -1.5634 -0.4275  2.3646
   84SAPS   H3S 7919   2.501   4.954  10.798 -0.5795  0.1876  0.5233
   84SAPS   C24 7920   2.503   5.026  10.590 -0.1534  0.0750  0.3704
   84SAPS   H4R 7921   2.578   5.073  10.522 -2.1374  0.2827 -1.8136
   84SAPS   H4S 7922   2.433   5.110  10.612 -0.3769 -0.2803  1.0383
   84SAPS   C25 7923   2.426   4.916  10.520 -0.2491  0.1580 -0.5860
   84SAPS   H5R 7924   2.356   4.854  10.578  1.4483 -1.2419  0.0496
   84SAPS   C26 7925   2.434   4.892  10.385  0.4881 -1.4052 -0.3173
   84SAPS   H6R 7926   2.368   4.816  10.341  0.8201 -2.3496  0.7689
   84SAPS   C27 7927   2.519   4.962  10.280  0.4686 -0.5836  0.2193
   84SAPS   H7R 7928   2.598   4.891  10.248 -0.2240 -1.0960 -0.3899
   84SAPS   H7S 7929   2.579   5.046  10.322 -0.3351  0.3077 -0.3885
   84SAPS   C28 7930   2.435   5.012  10.168  0.7462  0.0221 -0.1159
   84SAPS   H8R 7931   2.376   5.103  10.186  0.1767 -0.1034 -1.2432
   84SAPS   C29 7932   2.437   4.958  10.046  0.0161 -0.0484  0.1880
   84SAPS   H9R 7933   2.379   4.993   9.959 -0.7713 -0.4344  0.5401
   84SAPS  C210 7934   2.512   4.832   9.996 -0.2402 -0.1509 -0.2478
   84SAPS  H10R 7935   2.563   4.778  10.079  1.1619  0.4847 -0.6655
   84SAPS  H10S 7936   2.595   4.871   9.933 -0.6618 -0.5731 -1.0690
   84SAPS  C211 7937   2.424   4.739   9.932  1.3122  0.6237  0.2287
   84SAPS  H11R 7938   2.368   4.676  10.003  0.6924  1.8259  0.8362
   84SAPS  C212 7939   2.419   4.712   9.800 -0.0800  0.4538  0.8956
   84SAPS  H12R 7940   2.353   4.632   9.763 -0.3712  1.6046 -1.2491
   84SAPS  C213 7941   2.506   4.773   9.692  0.1414 -0.0332  0.0610
   84SAPS  H13R 7942   2.528   4.689   9.622 -0.0981 -0.7182  0.7907
   84SAPS  H13S 7943   2.609   4.804   9.720  1.2330 -1.8614 -1.6126
   84SAPS  C214 7944   2.439   4.888   9.628 -0.2961  0.2966  0.0073
   84SAPS  H14R 7945   2.403   4.960   9.703 -0.1373 -1.1156  1.5085
   84SAPS  C215 7946   2.431   4.908   9.494 -0.0854 -0.4023 -0.0674
   84SAPS  H15R 7947   2.366   4.993   9.470 -2.1103 -1.3526  1.7056
   84SAPS  C216 7948   2.481   4.826   9.378 -0.8609  0.3377  0.2457
   84SAPS  H16R 7949   2.502   4.722   9.413  1.4106  0.6546 -0.0084
   84SAPS  H16S 7950   2.567   4.884   9.339 -0.0083  1.5299  3.5758
   84SAPS  C217 7951   2.385   4.822   9.259  0.0333  0.6738 -0.7274
   84SAPS  H17R 7952   2.282   4.811   9.299  0.8548 -0.0466  1.2992
   84SAPS  H17S 7953   2.407   4.729   9.202 -1.4382  1.2742 -2.3831
   84SAPS  C218 7954   2.377   4.952   9.186 -0.3111 -0.9998  0.2250
   84SAPS  H18R 7955   2.474   4.968   9.135 -0.2019  1.5292  1.0730
   84SAPS  H18S 7956   2.362   5.036   9.257 -0.7754 -1.1316  0.2838
   84SAPS  C219 7957   2.276   4.959   9.067  0.6070 -0.0394 -0.3226
   84SAPS  H19R 7958   2.171   4.940   9.097  0.4990 -0.7314 -1.1081
   84SAPS  H19S 7959   2.300   4.870   9.005 -1.6485 -2.2739  1.8058
   84SAPS  C220 7960   2.284   5.088   8.993  0.3400  0.4920 -0.6013
   84SAPS  H20R 7961   2.389   5.118   8.970 -0.6742  2.3843 -3.3170
   84SAPS  H20S 7962   2.223   5.168   9.041 -1.9863 -0.7060 -1.4171
   84SAPS  H20T 7963   2.222   5.090   8.901 -0.3666  0.5369 -0.1327
   84SAPS   C33 7964   3.160   4.477  10.561  0.4410 -0.4197 -0.1244
   84SAPS   H3X 7965   3.184   4.368  10.566 -1.7565 -0.8985  1.3951
   84SAPS   H3Y 7966   3.255   4.528  10.583  0.1463 -0.0888  0.3876
   84SAPS   C34 7967   3.094   4.511  10.420 -0.3435 -0.3776 -0.9899
   84SAPS   H4X 7968   3.081   4.620  10.434 -3.4675 -0.7672 -0.0120
   84SAPS   H4Y 7969   2.992   4.466  10.419 -1.0783  1.2093 -1.8858
   84SAPS   C35 7970   3.179   4.481  10.295 -0.2591  0.1357 -0.0318
   84SAPS   H5X 7971   3.204   4.373  10.285 -1.6981 -0.1510 -0.8478
   84SAPS   H5Y 7972   3.280   4.527  10.305  0.5503 -2.0469  3.4506
   84SAPS   C36 7973   3.122   4.535  10.167 -0.2424  0.5908  0.6040
   84SAPS   H6X 7974   3.141   4.644  10.170  0.4039  0.5045 -0.0421
   84SAPS   H6Y 7975   3.011   4.534  10.152 -0.0663 -0.6927 -0.9291
   84SAPS   C37 7976   3.179   4.474  10.049 -0.0446  0.3106  0.1246
   84SAPS   H7X 7977   3.147   4.368  10.040 -1.4064  0.7352 -0.2644
   84SAPS   H7Y 7978   3.288   4.465  10.068 -0.1433 -1.1958  0.0935
   84SAPS   C38 7979   3.147   4.543   9.911  0.0400 -0.0524  1.1730
   84SAPS   H8X 7980   3.175   4.651   9.903 -0.7436  0.2133  1.7877
   84SAPS   H8Y 7981   3.037   4.559   9.910  0.0928  0.2881  0.4625
   84SAPS   C39 7982   3.205   4.470   9.789 -0.3758 -0.0753  0.2194
   84SAPS   H9X 7983   3.176   4.363   9.793 -1.2444  0.0823 -1.3997
   84SAPS   H9Y 7984   3.316   4.474   9.781 -0.5524  2.2834 -2.9132
   84SAPS  C310 7985   3.139   4.527   9.659 -0.4412  0.0707 -0.6453
   84SAPS  H10X 7986   3.176   4.630   9.639 -0.7653  0.2295 -0.4385
   84SAPS  H10Y 7987   3.033   4.538   9.689 -0.3146 -0.8991  0.2108
   84SAPS  C311 7988   3.150   4.445   9.530 -0.0441  0.0746 -0.6480
   84SAPS  H11X 7989   3.258   4.445   9.505  0.2663  1.1409  0.5761
   84SAPS  H11Y 7990   3.098   4.508   9.455  1.2961 -1.2325 -2.7667
   84SAPS  C312 7991   3.088   4.304   9.546 -0.0039 -0.4434 -0.0551
   84SAPS  H12X 7992   2.981   4.298   9.576 -0.7599 -0.2781 -2.5067
   84SAPS  H12Y 7993   3.148   4.257   9.627  0.7231 -0.5831 -0.6661
   84SAPS  C313 7994   3.098   4.231   9.406 -0.7003  0.0999  0.6703
   84SAPS  H13X 7995   3.194   4.264   9.361 -0.7875  3.0754  2.4186
   84SAPS  H13Y 7996   3.016   4.271   9.343  0.2668 -0.4693 -1.0105
   84SAPS  C314 7997   3.093   4.079   9.414  0.1730 -0.0018  0.1497
   84SAPS  H14X 7998   3.014   4.043   9.483  0.9304 -4.0705 -0.8198
   84SAPS  H14Y 7999   3.191   4.051   9.460 -0.3917  0.3383  1.5831
   84SAPS  C315 8000   3.096   4.020   9.278  0.6024  0.7282  0.5458
   84SAPS  H15X 8001   3.036   4.084   9.210  1.2252  0.1189 -0.6274
   84SAPS  H15Y 8002   3.065   3.914   9.293 -0.1895  1.0116  0.9394
   84SAPS  C316 8003   3.237   4.036   9.214  0.1049  0.6295  0.2270
   84SAPS  H16X 8004   3.307   3.972   9.271 -0.6867 -1.7459 -1.2910
   84SAPS  H16Y 8005   3.266   4.143   9.215 -1.2459  1.0672 -1.6234
   84SAPS  C317 8006   3.240   3.992   9.068 -0.8492 -0.5760  0.9865
   84SAPS  H17X 8007   3.180   4.066   9.013  1.7747  0.8014 -0.2035
   84SAPS  H17Y 8008   3.188   3.894   9.069 -2.1561  0.0646 -0.5281
   84SAPS  C318 8009   3.382   3.986   9.002  0.2375 -0.0976 -0.3331
   84SAPS  H18X 8010   3.379   3.967   8.893 -0.0106  0.5803 -0.4507
   84SAPS  H18Y 8011   3.443   3.904   9.046  0.1176 -0.8211 -1.4644
   84SAPS  H18Z 8012   3.439   4.078   9.026  0.3396 -0.2398 -0.0243
   85SAPS     N 8013   1.490   6.534  11.242  0.7997 -0.1593 -0.4413
   85SAPS   HN1 8014   1.410   6.522  11.177 -0.5339 -0.7541  1.2385
   85SAPS   HN2 8015   1.476   6.455  11.308 -0.6886  1.9225  1.9265
   85SAPS   HN3 8016   1.475   6.627  11.285 -2.0826  1.0877 -3.7072
   85SAPS   C12 8017   1.614   6.521  11.163 -0.0388  0.3938  0.5420
   85SAPS  H12A 8018   1.628   6.607  11.098  0.6545  1.2125  1.7397
   85SAPS   C13 8019   1.739   6.516  11.248  0.2723  0.9708  0.8648
   85SAPS  O13A 8020   1.736   6.532  11.374 -0.0605 -0.0840  0.0416
   85SAPS  O13B 8021   1.849   6.501  11.192 -0.1753  0.3079  0.0158
   85SAPS   C11 8022   1.608   6.388  11.084 -0.1125  0.0725 -0.0912
   85SAPS  H11A 8023   1.612   6.304  11.157 -0.0116 -0.9204 -1.2115
   85SAPS  H11B 8024   1.702   6.373  11.027  1.4734 -0.1029  2.4078
   85SAPS     P 8025   1.389   6.270  11.008 -0.0258  0.0417  0.1928
   85SAPS   O13 8026   1.464   6.143  11.005 -0.3242  0.2102  0.4778
   85SAPS   O14 8027   1.298   6.296  11.125 -0.6058 -0.2568 -0.3750
   85SAPS   O12 8028   1.493   6.385  11.004 -0.1206 -0.0421  0.5278
   85SAPS   O11 8029   1.300   6.280  10.875 -0.5879 -0.1792  0.1557
   85SAPS    C1 8030   1.342   6.209  10.755 -0.0822 -0.7229  0.2209
   85SAPS    HA 8031   1.441   6.161  10.773 -1.2055 -2.5685  1.8403
   85SAPS    HB 8032   1.270   6.127  10.732 -2.5079  1.3613 -0.0319
   85SAPS    C2 8033   1.351   6.305  10.630  0.0077  0.1507 -0.8564
   85SAPS    HS 8034   1.405   6.259  10.545  1.1424 -0.0943 -0.0220
   85SAPS   O21 8035   1.417   6.427  10.672  0.3178 -0.7176  0.5488
   85SAPS   C21 8036   1.542   6.427  10.698  0.4025  0.4135 -0.0999
   85SAPS   O22 8037   1.618   6.333  10.693  0.2765  0.1330 -0.1262
   85SAPS   C22 8038   1.588   6.568  10.748  0.3351  0.4394  0.6013
   85SAPS   H2R 8039   1.523   6.637  10.690 -0.3284 -0.4965  0.2017
   85SAPS   H2S 8040   1.571   6.562  10.858  2.4494  0.7028  0.9937
   85SAPS    C3 8041   1.210   6.338  10.568 -0.1857 -0.4931  1.1034
   85SAPS    HX 8042   1.166   6.387  10.658 -1.9141  1.4960 -0.7176
   85SAPS    HY 8043   1.152   6.249  10.536  1.9509 -0.9713 -1.7632
   85SAPS   O31 8044   1.218   6.434  10.462  0.2816  0.0088 -0.8392
   85SAPS   C31 8045   1.257   6.379  10.348  0.4910  0.4016 -0.0828
   85SAPS   O32 8046   1.287   6.264  10.332  0.7420  0.7708  0.4284
   85SAPS   C32 8047   1.279   6.494  10.248 -0.2691 -0.1303  0.1202
   85SAPS   H2X 8048   1.365   6.556  10.281  0.1976  0.2417 -1.7011
   85SAPS   H2Y 8049   1.183   6.548  10.236 -0.3027 -0.6195 -2.2177
   85SAPS   C23 8050   1.741   6.592  10.733  0.9826 -0.0636  0.5392
   85SAPS   H3R 8051   1.809   6.511  10.768  0.6227 -0.4536  0.3340
   85SAPS   H3S 8052   1.758   6.675  10.805 -0.4204 -0.5042  1.4114
   85SAPS   C24 8053   1.786   6.644  10.595 -0.5114  0.7904 -0.5038
   85SAPS   H4R 8054   1.883   6.696  10.609 -0.3345  0.0916  1.0716
   85SAPS   H4S 8055   1.717   6.724  10.560 -0.9582  0.4181 -0.4965
   85SAPS   C25 8056   1.804   6.538  10.487 -0.1036 -0.0425  0.5095
   85SAPS   H5R 8057   1.863   6.455  10.528  2.2488  1.7361  0.9310
   85SAPS   C26 8058   1.748   6.534  10.364  0.6129 -0.4719  0.0163
   85SAPS   H6R 8059   1.766   6.452  10.293 -2.3709 -3.2192  2.0922
   85SAPS   C27 8060   1.643   6.636  10.318 -0.4265 -0.7771  0.1212
   85SAPS   H7R 8061   1.582   6.676  10.402  2.3671  2.6365  0.7620
   85SAPS   H7S 8062   1.582   6.579  10.244  0.7784  0.1706 -1.6663
   85SAPS   C28 8063   1.707   6.761  10.250 -0.0636  0.0219  0.0885
   85SAPS   H8R 8064   1.816   6.769  10.266 -0.0193  0.5657 -0.4504
   85SAPS   C29 8065   1.642   6.855  10.187 -0.3657 -0.0204  0.9482
   85SAPS   H9R 8066   1.698   6.936  10.138 -0.7349  1.3976  2.7609
   85SAPS  C210 8067   1.500   6.865  10.161 -0.1183 -0.9257 -0.6915
   85SAPS  H10R 8068   1.463   6.761  10.147  0.8807 -1.3421 -0.3709
   85SAPS  H10S 8069   1.475   6.925  10.071  1.5624  1.6611  0.4472
   85SAPS  C211 8070   1.420   6.917  10.288  0.4005  0.7591 -0.4938
   85SAPS  H11R 8071   1.480   6.915  10.380  0.0257 -0.5626 -0.2606
   85SAPS  C212 8072   1.293   6.959  10.287 -0.2232  0.8409  0.5099
   85SAPS  H12R 8073   1.249   6.999  10.379 -2.5942 -0.7940  0.1671
   85SAPS  C213 8074   1.194   6.959  10.173 -0.1235 -0.1626 -0.3479
   85SAPS  H13R 8075   1.232   6.886  10.100  0.2456  0.8575 -1.1967
   85SAPS  H13S 8076   1.199   7.062  10.131 -2.1086  0.7603  1.4592
   85SAPS  C214 8077   1.048   6.924  10.199 -0.5835 -0.0228  0.4481
   85SAPS  H14R 8078   1.031   6.886  10.300 -1.7002 -0.9709 -0.0790
   85SAPS  C215 8079   0.945   6.932  10.123  0.4552  0.3884 -0.0556
   85SAPS  H15R 8080   0.849   6.896  10.162  0.4622  2.1750  1.7719
   85SAPS  C216 8081   0.949   6.973   9.976 -0.2212 -0.6773 -0.0152
   85SAPS  H16R 8082   0.975   7.080   9.958  0.7592 -1.1840 -1.8223
   85SAPS  H16S 8083   0.848   6.966   9.929 -1.1426  2.1273  1.2779
   85SAPS  C217 8084   1.045   6.893   9.882  0.3410  0.9488  0.3451
   85SAPS  H17R 8085   1.039   6.782   9.886 -0.6438  0.7465 -3.1799
   85SAPS  H17S 8086   1.149   6.925   9.904  1.4954  0.1502 -3.3034
   85SAPS  C218 8087   1.016   6.926   9.736 -0.7257 -0.6720  0.1987
   85SAPS  H18R 8088   1.020   7.037   9.738 -2.7066 -0.5675  0.2020
   85SAPS  H18S 8089   0.921   6.879   9.703 -1.2536  1.0706 -0.8832
   85SAPS  C219 8090   1.127   6.872   9.651  0.2533  0.0351 -0.3056
   85SAPS  H19R 8091   1.106   6.765   9.632 -0.6802  0.4462 -1.7788
   85SAPS  H19S 8092   1.220   6.886   9.710  1.9619  0.0484 -2.8733
   85SAPS  C220 8093   1.145   6.941   9.514 -0.4043  0.0197  0.1416
   85SAPS  H20R 8094   1.057   6.916   9.451 -1.5358  1.1205  1.2345
   85SAPS  H20S 8095   1.230   6.894   9.461  0.9470  2.0329  0.4492
   85SAPS  H20T 8096   1.150   7.051   9.525 -2.5184  0.0556  1.5090
   85SAPS   C33 8097   1.321   6.447  10.113 -0.0469 -0.0885 -0.3980
   85SAPS   H3X 8098   1.271   6.353  10.080  0.2783 -0.4375  0.1009
   85SAPS   H3Y 8099   1.426   6.411  10.106  1.0659  2.9044 -0.3285
   85SAPS   C34 8100   1.307   6.551  10.000 -0.7561 -0.0462  0.2035
   85SAPS   H4X 8101   1.369   6.642  10.016  0.7065 -1.1273  0.9846
   85SAPS   H4Y 8102   1.199   6.575   9.987 -0.7389 -0.2315 -0.3305
   85SAPS   C35 8103   1.361   6.492   9.860  0.2319  0.3735 -0.7572
   85SAPS   H5X 8104   1.332   6.385   9.851 -2.0664  1.0771 -3.2617
   85SAPS   H5Y 8105   1.471   6.502   9.851  0.2390  0.8471 -0.2192
   85SAPS   C36 8106   1.295   6.564   9.746 -0.1489 -0.0160 -0.3849
   85SAPS   H6X 8107   1.321   6.671   9.752  1.0402 -0.3725  2.7295
   85SAPS   H6Y 8108   1.184   6.570   9.748 -0.1849 -0.5871 -0.2511
   85SAPS   C37 8109   1.340   6.501   9.614  0.3572  0.7799  1.2465
   85SAPS   H7X 8110   1.319   6.392   9.620 -0.2842  0.9042  1.3406
   85SAPS   H7Y 8111   1.448   6.516   9.594  0.4795 -1.8923 -0.6210
   85SAPS   C38 8112   1.267   6.556   9.490  0.8856  0.1966  0.3378
   85SAPS   H8X 8113   1.282   6.666   9.486 -0.4712  0.3937  0.2472
   85SAPS   H8Y 8114   1.158   6.547   9.504  0.6243  2.4508  0.0940
   85SAPS   C39 8115   1.305   6.514   9.355 -0.4388 -0.4712  0.6580
   85SAPS   H9X 8116   1.300   6.403   9.355  0.6140 -0.6202 -2.4728
   85SAPS   H9Y 8117   1.412   6.544   9.346  0.4615 -2.8168  2.3702
   85SAPS  C310 8118   1.227   6.568   9.243  0.4728  0.2224  0.5450
   85SAPS  H10X 8119   1.205   6.674   9.269  0.2012  0.5265 -0.8471
   85SAPS  H10Y 8120   1.131   6.514   9.230 -0.0666  1.3622 -0.4862
   85SAPS  C311 8121   1.294   6.555   9.103  0.1560 -0.2479  0.1486
   85SAPS  H11X 8122   1.395   6.602   9.104  0.9822 -1.8984 -1.2560
   85SAPS  H11Y 8123   1.234   6.619   9.034  2.3163  1.4592 -0.2734
   85SAPS  C312 8124   1.300   6.414   9.052 -0.6316  0.3191  0.4311
   85SAPS  H12X 8125   1.201   6.370   9.076 -0.6875 -0.9822 -1.8408
   85SAPS  H12Y 8126   1.360   6.344   9.114 -0.1739 -0.7538 -1.1424
   85SAPS  C313 8127   1.349   6.410   8.899 -0.1709  0.1900 -0.4055
   85SAPS  H13X 8128   1.301   6.500   8.854 -0.5179 -0.3589 -1.1593
   85SAPS  H13Y 8129   1.311   6.313   8.860  0.4938  0.0583 -0.7399
   85SAPS  C314 8130   1.496   6.418   8.893  0.4493  0.4956  0.1075
   85SAPS  H14X 8131   1.548   6.356   8.969 -1.8038  0.4961  1.7095
   85SAPS  H14Y 8132   1.541   6.518   8.905  1.7475  0.0581 -0.8229
   85SAPS  C315 8133   1.557   6.369   8.755 -0.1400 -0.0080 -0.3955
   85SAPS  H15X 8134   1.536   6.265   8.723  1.3629 -0.1282 -1.0657
   85SAPS  H15Y 8135   1.667   6.382   8.751  0.1121 -2.1397 -1.4047
   85SAPS  C316 8136   1.509   6.463   8.636 -0.2753 -0.4689 -0.5733
   85SAPS  H16X 8137   1.553   6.563   8.654 -0.4473 -0.7654  1.8766
   85SAPS  H16Y 8138   1.399   6.473   8.642 -0.1417  0.2116  1.2401
   85SAPS  C317 8139   1.558   6.413   8.502 -0.4082 -0.0189  0.5585
   85SAPS  H17X 8140   1.530   6.306   8.490  2.5627 -0.6332 -1.9632
   85SAPS  H17Y 8141   1.668   6.424   8.505 -0.1963 -0.6822 -2.1363
   85SAPS  C318 8142   1.506   6.499   8.384 -0.4371  0.2478 -0.3316
   85SAPS  H18X 8143   1.401   6.527   8.408 -0.1703  1.4527 -0.4760
   85SAPS  H18Y 8144   1.525   6.447   8.287 -1.0771 -0.0829 -0.2843
   85SAPS  H18Z 8145   1.559   6.596   8.381  0.3496 -0.1811 -0.4986
   86SAPS     N 8146   3.533   1.390  11.082 -0.2202 -0.0036 -0.6667
   86SAPS   HN1 8147   3.625   1.349  11.110 -0.1528  0.9415  0.5941
   86SAPS   HN2 8148   3.553   1.458  11.006 -0.5386  1.9536  0.9193
   86SAPS   HN3 8149   3.486   1.453  11.150 -0.4733  0.1889 -1.0157
   86SAPS   C12 8150   3.436   1.285  11.048 -0.6576 -0.1362  0.2912
   86SAPS  H12A 8151   3.474   1.221  10.970  0.5035  2.2459 -1.2417
   86SAPS   C13 8152   3.396   1.187  11.173  0.3688 -0.7330 -0.1633
   86SAPS  O13A 8153   3.436   1.223  11.286  0.2080 -0.3406  0.4023
   86SAPS  O13B 8154   3.307   1.097  11.165 -0.0965  0.0986 -0.3062
   86SAPS   C11 8155   3.308   1.350  10.990 -0.1862 -0.1415 -0.3012
   86SAPS  H11A 8156   3.269   1.404  11.079 -0.1598  0.0645 -0.4169
   86SAPS  H11B 8157   3.239   1.270  10.956  0.5589 -0.4300 -1.1683
   86SAPS     P 8158   3.254   1.566  10.849 -0.4438  0.0363 -0.0873
   86SAPS   O13 8159   3.160   1.593  10.960 -0.5116  0.1521  0.2761
   86SAPS   O14 8160   3.350   1.674  10.811 -0.4597 -0.0664  0.0243
   86SAPS   O12 8161   3.341   1.442  10.890  0.0948  0.0225 -0.1975
   86SAPS   O11 8162   3.173   1.517  10.727  0.2017  0.0498 -0.1289
   86SAPS    C1 8163   3.245   1.436  10.630  0.6430  0.2807  0.0021
   86SAPS    HA 8164   3.348   1.474  10.611  1.7128 -2.4975 -0.2842
   86SAPS    HB 8165   3.245   1.329  10.660 -0.3174  0.0318 -0.8440
   86SAPS    C2 8166   3.185   1.459  10.494  0.3579  0.0234  0.4966
   86SAPS    HS 8167   3.213   1.564  10.470 -0.5817  0.1634 -0.0494
   86SAPS   O21 8168   3.044   1.419  10.489  0.2029 -0.0311 -0.1464
   86SAPS   C21 8169   2.977   1.500  10.408  0.4144  0.3764 -0.2257
   86SAPS   O22 8170   3.023   1.594  10.343  0.2358 -0.2330 -0.0638
   86SAPS   C22 8171   2.827   1.456  10.404  0.2829  0.1317  0.2163
   86SAPS   H2R 8172   2.781   1.504  10.493  1.0992  1.3907 -0.0146
   86SAPS   H2S 8173   2.777   1.506  10.317 -0.5045  1.0439  1.1617
   86SAPS    C3 8174   3.269   1.380  10.385  0.2955 -0.6497 -0.1303
   86SAPS    HX 8175   3.277   1.273  10.416 -2.0989 -0.2796  2.1123
   86SAPS    HY 8176   3.373   1.419  10.395  0.3769 -0.9755  0.3338
   86SAPS   O31 8177   3.223   1.397  10.246  0.4286  0.7945  0.0088
   86SAPS   C31 8178   3.258   1.509  10.178 -0.5550 -0.1455 -0.6018
   86SAPS   O32 8179   3.321   1.603  10.222 -0.7101 -0.0217  0.3393
   86SAPS   C32 8180   3.209   1.506  10.035 -0.6161 -0.3126  0.9043
   86SAPS   H2X 8181   3.161   1.600  10.002 -1.1530 -0.8231  0.1670
   86SAPS   H2Y 8182   3.133   1.426  10.021 -1.9639  1.1558 -0.4532
   86SAPS   C23 8183   2.797   1.305  10.416 -0.0105  0.4870  0.5434
   86SAPS   H3R 8184   2.690   1.287  10.440 -0.1116  1.6411  0.9875
   86SAPS   H3S 8185   2.856   1.247  10.491  2.1929  0.0917 -1.3589
   86SAPS   C24 8186   2.807   1.229  10.281  0.0024 -0.5033  0.6883
   86SAPS   H4R 8187   2.753   1.290  10.206  2.4659  0.4955 -0.3813
   86SAPS   H4S 8188   2.770   1.125  10.295  0.5793 -1.3768 -3.3085
   86SAPS   C25 8189   2.951   1.211  10.243 -0.2480 -0.3160 -0.5333
   86SAPS   H5R 8190   3.017   1.220  10.330 -0.1278 -0.3858 -0.6159
   86SAPS   C26 8191   2.980   1.179  10.119 -0.7054  0.1047  0.3996
   86SAPS   H6R 8192   3.087   1.172  10.096 -0.6798 -0.1107  0.5860
   86SAPS   C27 8193   2.889   1.142  10.000 -0.4980 -0.3095  0.2708
   86SAPS   H7R 8194   2.796   1.099  10.042  1.2328 -2.0101  2.6183
   86SAPS   H7S 8195   2.936   1.058   9.944 -1.2888 -0.8564  0.4190
   86SAPS   C28 8196   2.849   1.260   9.915 -1.0247 -0.0362 -0.9376
   86SAPS   H8R 8197   2.818   1.350   9.969  0.3292  0.6392 -1.2575
   86SAPS   C29 8198   2.833   1.261   9.782 -0.2725 -0.1211  0.2918
   86SAPS   H9R 8199   2.800   1.359   9.743  1.0607  0.8628  1.5335
   86SAPS  C210 8200   2.864   1.150   9.681  0.5157  0.1154  0.1311
   86SAPS  H10R 8201   2.936   1.080   9.728 -1.5478 -1.8302  0.5691
   86SAPS  H10S 8202   2.918   1.179   9.589  0.9066 -0.1489  0.2727
   86SAPS  C211 8203   2.732   1.080   9.653  0.0334 -0.2326 -0.4272
   86SAPS  H11R 8204   2.700   0.999   9.720  1.0654 -0.8952 -0.7166
   86SAPS  C212 8205   2.664   1.098   9.539  0.3387  0.0882  0.5139
   86SAPS  H12R 8206   2.573   1.039   9.524  0.5922 -0.3778  0.7948
   86SAPS  C213 8207   2.695   1.187   9.422  0.2740  0.1979  0.0554
   86SAPS  H13R 8208   2.781   1.252   9.449  0.8240 -0.2529 -0.5605
   86SAPS  H13S 8209   2.611   1.256   9.401 -0.1339 -0.5621 -0.8783
   86SAPS  C214 8210   2.731   1.098   9.307  0.5743 -0.7948  0.2420
   86SAPS  H14R 8211   2.827   1.047   9.323  1.3602  0.7445  0.6234
   86SAPS  C215 8212   2.664   1.094   9.190 -0.6892 -0.0932  0.0841
   86SAPS  H15R 8213   2.704   1.021   9.118 -0.2054 -0.2280  0.4864
   86SAPS  C216 8214   2.538   1.160   9.148  0.3225  0.1156  0.1569
   86SAPS  H16R 8215   2.552   1.264   9.111 -1.4173 -0.2917 -1.8817
   86SAPS  H16S 8216   2.469   1.167   9.234  0.8005 -1.5234  0.7197
   86SAPS  C217 8217   2.480   1.081   9.031  0.0187  0.1299 -0.0051
   86SAPS  H17R 8218   2.369   1.079   9.027 -0.0427  1.1089  0.7919
   86SAPS  H17S 8219   2.503   0.973   9.033  0.7124  0.2504 -0.7543
   86SAPS  C218 8220   2.546   1.112   8.889  0.0813  0.2770  0.1435
   86SAPS  H18R 8221   2.655   1.099   8.909 -0.5033 -0.8521  3.0947
   86SAPS  H18S 8222   2.522   1.218   8.867 -1.7422 -0.1413 -0.0240
   86SAPS  C219 8223   2.504   1.027   8.764  0.4853  0.2284 -0.3450
   86SAPS  H19R 8224   2.570   1.050   8.678  1.1465 -1.3779 -0.2968
   86SAPS  H19S 8225   2.402   1.051   8.728  0.3210 -0.7821 -0.5819
   86SAPS  C220 8226   2.524   0.874   8.785 -0.2032  0.5451  0.1225
   86SAPS  H20R 8227   2.485   0.819   8.697 -1.1975 -2.1107  2.0869
   86SAPS  H20S 8228   2.455   0.841   8.866  0.2784 -1.5349 -0.2639
   86SAPS  H20T 8229   2.630   0.850   8.807  0.4399  0.7582 -2.5202
   86SAPS   C33 8230   3.331   1.472   9.942 -0.0363  0.2154 -0.5363
   86SAPS   H3X 8231   3.393   1.381   9.957  2.3170  1.7207 -0.5041
   86SAPS   H3Y 8232   3.396   1.561   9.927  0.7163 -0.2224  0.0598
   86SAPS   C34 8233   3.268   1.456   9.805  0.5044  0.0446  1.0986
   86SAPS   H4X 8234   3.215   1.553   9.793  1.6005  0.4806 -0.4049
   86SAPS   H4Y 8235   3.195   1.371   9.804  0.7170 -0.1928 -1.9763
   86SAPS   C35 8236   3.367   1.435   9.689  0.5907 -0.9229  0.6384
   86SAPS   H5X 8237   3.396   1.328   9.694  0.1850 -1.1028 -0.6172
   86SAPS   H5Y 8238   3.457   1.500   9.701 -0.0091  0.3749 -1.4236
   86SAPS   C36 8239   3.307   1.466   9.549 -0.2627 -0.0063  0.0505
   86SAPS   H6X 8240   3.397   1.449   9.485 -1.9098 -0.8568 -2.1813
   86SAPS   H6Y 8241   3.279   1.573   9.538 -0.7239 -0.1282  0.0383
   86SAPS   C37 8242   3.203   1.363   9.494 -0.4336 -0.0728 -0.1921
   86SAPS   H7X 8243   3.114   1.369   9.560 -1.2380  2.5155 -1.3720
   86SAPS   H7Y 8244   3.244   1.261   9.483 -1.6853 -0.3689 -2.9771
   86SAPS   C38 8245   3.159   1.404   9.357 -0.0460 -0.0744  0.0066
   86SAPS   H8X 8246   3.112   1.503   9.377 -0.0678 -0.6032  3.0624
   86SAPS   H8Y 8247   3.072   1.342   9.327 -0.1986  0.3670 -0.4773
   86SAPS   C39 8248   3.265   1.412   9.250  0.1475  0.1171  0.5908
   86SAPS   H9X 8249   3.333   1.327   9.228 -0.1060 -0.3333  1.4939
   86SAPS   H9Y 8250   3.337   1.492   9.277  1.2495 -0.6046 -0.1252
   86SAPS  C310 8251   3.214   1.455   9.116 -0.4115 -0.2039  0.3978
   86SAPS  H10X 8252   3.145   1.541   9.123  1.6442  1.4454  1.8296
   86SAPS  H10Y 8253   3.165   1.367   9.069 -0.6362 -1.8943  3.5621
   86SAPS  C311 8254   3.340   1.518   9.036  0.2751 -0.2930 -0.4966
   86SAPS  H11X 8255   3.426   1.447   9.046  2.2644  2.2065  1.3384
   86SAPS  H11Y 8256   3.376   1.607   9.092  0.9678 -0.5719 -0.4790
   86SAPS  C312 8257   3.313   1.550   8.891 -0.7391 -0.3902 -0.7498
   86SAPS  H12X 8258   3.390   1.622   8.854 -0.4762  1.0671  2.3100
   86SAPS  H12Y 8259   3.207   1.583   8.882 -0.4528  0.9388  0.4516
   86SAPS  C313 8260   3.324   1.425   8.807  0.1822  0.7919  0.2622
   86SAPS  H13X 8261   3.255   1.354   8.857  0.7529 -1.1451 -1.5635
   86SAPS  H13Y 8262   3.430   1.392   8.813 -0.0027  0.4106  2.3064
   86SAPS  C314 8263   3.287   1.453   8.659 -0.7969  0.3065 -0.5192
   86SAPS  H14X 8264   3.357   1.527   8.615 -0.2883  0.2025  0.1068
   86SAPS  H14Y 8265   3.188   1.503   8.659 -1.6216 -1.2529 -0.6901
   86SAPS  C315 8266   3.285   1.328   8.566 -0.2041 -0.3834 -0.7883
   86SAPS  H15X 8267   3.193   1.275   8.599 -1.4079  2.5148  0.8126
   86SAPS  H15Y 8268   3.375   1.268   8.591 -2.1395 -3.4890 -0.7514
   86SAPS  C316 8269   3.283   1.354   8.424  0.5479 -0.1998  0.1139
   86SAPS  H16X 8270   3.287   1.269   8.353 -1.2297  1.9389 -2.7866
   86SAPS  H16Y 8271   3.376   1.410   8.396  1.6893 -2.9292 -1.9908
   86SAPS  C317 8272   3.154   1.430   8.374 -0.0708  0.1258 -0.8104
   86SAPS  H17X 8273   3.147   1.527   8.427 -1.4664 -0.6217  0.4536
   86SAPS  H17Y 8274   3.058   1.376   8.392  0.6053 -1.5304 -1.8399
   86SAPS  C318 8275   3.174   1.466   8.233 -0.4669 -0.3360  0.0913
   86SAPS  H18X 8276   3.271   1.519   8.223 -0.1633 -0.9852 -0.4532
   86SAPS  H18Y 8277   3.087   1.532   8.215 -1.2030 -0.1392  3.5513
   86SAPS  H18Z 8278   3.175   1.378   8.165  1.3437 -0.6332  0.4581
   87SAPS     N 8279   3.144   1.619  11.232 -0.3421  0.6814 -0.0416
   87SAPS   HN1 8280   3.049   1.643  11.266 -0.8762 -0.7240 -0.4458
   87SAPS   HN2 8281   3.154   1.591  11.132 -0.5225 -1.7462  0.5465
   87SAPS   HN3 8282   3.176   1.542  11.294 -1.0527  0.4288  0.0181
   87SAPS   C12 8283   3.236   1.740  11.255 -0.1751  0.0005  0.0578
   87SAPS  H12A 8284   3.224   1.793  11.349 -0.1412  1.2973 -0.6499
   87SAPS   C13 8285   3.383   1.719  11.225 -0.1823 -0.5293  0.2205
   87SAPS  O13A 8286   3.425   1.604  11.196 -0.0422  0.2098 -0.4932
   87SAPS  O13B 8287   3.465   1.815  11.244  0.2781  0.1449 -0.2740
   87SAPS   C11 8288   3.191   1.849  11.157  0.3016 -0.3433 -0.4658
   87SAPS  H11A 8289   3.204   1.826  11.049 -0.1908 -0.8727 -0.4136
   87SAPS  H11B 8290   3.253   1.940  11.176 -2.7413  2.0971 -1.4356
   87SAPS     P 8291   2.984   1.982  11.080  0.4547  0.4510  0.1690
   87SAPS   O13 8292   2.851   2.009  11.134  0.1638 -0.6435 -0.1773
   87SAPS   O14 8293   3.075   2.092  11.061 -0.1420 -0.6703 -0.5521
   87SAPS   O12 8294   3.054   1.884  11.185  0.3007  0.1949  0.0498
   87SAPS   O11 8295   2.983   1.902  10.940  0.5406  0.4635 -0.2805
   87SAPS    C1 8296   2.875   1.809  10.919 -0.2794 -0.5961  0.4530
   87SAPS    HA 8297   2.931   1.724  10.875  2.0351  0.8861  0.3698
   87SAPS    HB 8298   2.829   1.765  11.010  1.0653 -3.5894 -0.1889
   87SAPS    C2 8299   2.792   1.870  10.803 -0.5549  0.1412 -0.2123
   87SAPS    HS 8300   2.720   1.795  10.764  0.2306 -1.3972  1.1580
   87SAPS   O21 8301   2.891   1.910  10.700  0.7836  0.5242 -0.3521
   87SAPS   C21 8302   2.952   1.813  10.626  0.3937 -0.7190 -0.0641
   87SAPS   O22 8303   2.946   1.693  10.643 -0.0032  0.2472  1.0519
   87SAPS   C22 8304   3.024   1.885  10.512 -0.5405  0.0095 -0.7933
   87SAPS   H2R 8305   3.119   1.929  10.548 -0.2256 -0.1517 -1.4080
   87SAPS   H2S 8306   3.057   1.802  10.447 -1.8789 -1.0397 -0.2056
   87SAPS    C3 8307   2.714   1.999  10.853 -0.6299 -0.0340  0.1008
   87SAPS    HX 8308   2.788   2.076  10.883 -0.2560 -0.2998 -0.1355
   87SAPS    HY 8309   2.651   1.971  10.940 -0.0578 -2.8231 -0.2866
   87SAPS   O31 8310   2.638   2.061  10.747 -0.9620  0.3557 -0.4444
   87SAPS   C31 8311   2.533   1.994  10.705 -0.9900  0.0240  0.0672
   87SAPS   O32 8312   2.499   1.882  10.742  0.1006 -0.5080  0.3081
   87SAPS   C32 8313   2.474   2.067  10.583  0.4372  0.2627  0.1542
   87SAPS   H2X 8314   2.540   2.047  10.495 -0.2803  1.6726 -0.7393
   87SAPS   H2Y 8315   2.476   2.176  10.602 -0.8646  0.5510 -1.2008
   87SAPS   C23 8316   2.941   1.978  10.424 -0.1658  0.7766 -0.8460
   87SAPS   H3R 8317   2.996   2.009  10.333  0.3344  1.0936 -0.4477
   87SAPS   H3S 8318   2.903   2.059  10.489 -1.2955 -0.5133  0.1508
   87SAPS   C24 8319   2.815   1.897  10.368 -0.2309 -0.9350 -0.3741
   87SAPS   H4R 8320   2.731   1.914  10.439 -0.6845 -0.3594 -1.0334
   87SAPS   H4S 8321   2.836   1.788  10.361 -0.7143 -1.0102 -0.7113
   87SAPS   C25 8322   2.779   1.948  10.229  0.2448  1.0752 -0.9599
   87SAPS   H5R 8323   2.740   2.050  10.243 -0.0627  0.8363 -0.0124
   87SAPS   C26 8324   2.799   1.895  10.108 -0.2737 -0.2182  0.2657
   87SAPS   H6R 8325   2.755   1.943  10.019  1.3423  0.6516 -0.1017
   87SAPS   C27 8326   2.870   1.765  10.077 -0.3349  0.5601 -0.1315
   87SAPS   H7R 8327   2.914   1.724  10.170 -0.7494  0.2826 -0.0521
   87SAPS   H7S 8328   2.963   1.783  10.019  0.3483  1.2506  1.1420
   87SAPS   C28 8329   2.769   1.665  10.011  0.4342  0.0617 -0.5357
   87SAPS   H8R 8330   2.727   1.594  10.083  1.8482 -0.1176  0.1508
   87SAPS   C29 8331   2.742   1.643   9.878  0.3450  0.3274 -0.6555
   87SAPS   H9R 8332   2.675   1.559   9.854  1.2948 -0.3321 -1.1134
   87SAPS  C210 8333   2.801   1.721   9.766 -0.7164  0.2837 -0.2484
   87SAPS  H10R 8334   2.863   1.802   9.810 -0.6406 -0.0024  0.1817
   87SAPS  H10S 8335   2.724   1.772   9.703  0.6955 -1.8379 -4.0411
   87SAPS  C211 8336   2.896   1.647   9.674  0.5720  0.4533 -0.5738
   87SAPS  H11R 8337   3.000   1.645   9.709  0.7694 -1.1420 -1.1788
   87SAPS  C212 8338   2.873   1.592   9.555 -0.2848 -1.0156  0.1246
   87SAPS  H12R 8339   2.956   1.552   9.495  1.5558  2.5506  0.0357
   87SAPS  C213 8340   2.740   1.592   9.480  0.0546  0.1142  0.4658
   87SAPS  H13R 8341   2.656   1.619   9.547 -0.0089 -2.2127  1.4400
   87SAPS  H13S 8342   2.720   1.485   9.457 -0.8496 -0.1348  2.2147
   87SAPS  C214 8343   2.735   1.676   9.355  0.4945 -0.2908  0.0130
   87SAPS  H14R 8344   2.734   1.785   9.371 -3.6657 -0.2902  0.8926
   87SAPS  C215 8345   2.721   1.634   9.225 -0.7162 -0.2820  0.5316
   87SAPS  H15R 8346   2.724   1.710   9.145  0.1483 -0.6941  0.1468
   87SAPS  C216 8347   2.720   1.498   9.164 -0.3209 -0.2058 -0.3960
   87SAPS  H16R 8348   2.620   1.464   9.128 -0.5958  1.4419 -1.2617
   87SAPS  H16S 8349   2.740   1.432   9.252 -0.3450 -0.3057 -0.4648
   87SAPS  C217 8350   2.839   1.460   9.069  0.1160  0.1007  0.1441
   87SAPS  H17R 8351   2.828   1.355   9.035  0.8929 -0.0598  0.3786
   87SAPS  H17S 8352   2.941   1.465   9.114  1.3800 -0.7614 -2.4256
   87SAPS  C218 8353   2.837   1.558   8.956 -0.0949  0.5665  0.0345
   87SAPS  H18R 8354   2.889   1.646   9.000  2.0446 -0.0013 -1.2014
   87SAPS  H18S 8355   2.733   1.590   8.936 -0.9782 -2.3412 -0.5233
   87SAPS  C219 8356   2.917   1.516   8.837 -0.2956 -0.1850 -0.1255
   87SAPS  H19R 8357   2.871   1.425   8.794 -0.8230  0.3593 -0.7402
   87SAPS  H19S 8358   3.015   1.476   8.872  1.1831  1.7400 -1.8356
   87SAPS  C220 8359   2.932   1.619   8.724 -0.4950 -0.5414 -0.0364
   87SAPS  H20R 8360   2.993   1.701   8.768 -2.2798  0.0753  1.4241
   87SAPS  H20S 8361   2.836   1.667   8.693 -0.9638 -1.8646 -0.7391
   87SAPS  H20T 8362   2.968   1.571   8.630  1.6959  0.4667  0.2330
   87SAPS   C33 8363   2.336   2.011  10.531 -0.0606 -0.3537  0.0042
   87SAPS   H3X 8364   2.262   2.047  10.606  1.0381 -0.0568  0.9609
   87SAPS   H3Y 8365   2.332   1.900  10.525  1.4203 -0.3933 -0.6101
   87SAPS   C34 8366   2.289   2.073  10.394  0.0190  0.2802 -0.4079
   87SAPS   H4X 8367   2.301   2.183  10.404  2.4213 -0.0505  1.5346
   87SAPS   H4Y 8368   2.184   2.035  10.392  0.2108 -0.3003  0.0630
   87SAPS   C35 8369   2.380   2.015  10.280 -0.1469  0.2762  0.2677
   87SAPS   H5X 8370   2.384   1.904  10.278 -2.5386  0.1285 -0.8382
   87SAPS   H5Y 8371   2.484   2.053  10.287  0.7308 -1.5604 -1.5846
   87SAPS   C36 8372   2.322   2.054  10.135  0.3582  0.2987 -0.9734
   87SAPS   H6X 8373   2.320   2.165  10.132 -2.9637  0.5619  2.8825
   87SAPS   H6Y 8374   2.222   2.009  10.120  0.4628  0.5665 -2.7495
   87SAPS   C37 8375   2.414   1.999  10.027  1.1927 -0.0889  0.6379
   87SAPS   H7X 8376   2.404   1.889  10.016 -2.0016  0.1939 -0.3302
   87SAPS   H7Y 8377   2.521   2.017  10.048  1.6361 -1.4096 -0.3542
   87SAPS   C38 8378   2.389   2.071   9.889  0.1690  0.0499  0.1535
   87SAPS   H8X 8379   2.405   2.181   9.897  1.7682 -0.2205  1.1681
   87SAPS   H8Y 8380   2.285   2.045   9.860  0.5397 -0.4036 -0.8033
   87SAPS   C39 8381   2.489   2.018   9.780 -0.3309  0.1460  0.1166
   87SAPS   H9X 8382   2.498   1.907   9.782 -1.2512  0.0660  1.1982
   87SAPS   H9Y 8383   2.590   2.057   9.804  0.1659  1.1533 -3.0916
   87SAPS  C310 8384   2.452   2.056   9.635 -0.5202 -0.2747  0.0593
   87SAPS  H10X 8385   2.417   2.161   9.624 -1.3884 -0.7560 -2.4972
   87SAPS  H10Y 8386   2.360   2.002   9.603 -0.4955  0.0272 -0.5189
   87SAPS  C311 8387   2.570   2.009   9.543  0.3118 -0.8765  0.7541
   87SAPS  H11X 8388   2.591   1.900   9.548  1.1196 -0.7005  1.3671
   87SAPS  H11Y 8389   2.665   2.045   9.589  1.0055 -1.3059 -0.2937
   87SAPS  C312 8390   2.548   2.049   9.397  0.8546  0.6327  0.5267
   87SAPS  H12X 8391   2.642   2.028   9.343  0.3231  0.1116 -0.2208
   87SAPS  H12Y 8392   2.520   2.156   9.397 -0.6351  0.2644  0.4848
   87SAPS  C313 8393   2.443   1.956   9.328  0.0128  0.3026  0.0784
   87SAPS  H13X 8394   2.338   1.972   9.361 -0.1958  0.0640 -0.4631
   87SAPS  H13Y 8395   2.462   1.854   9.368 -0.3850 -0.0597 -0.6397
   87SAPS  C314 8396   2.458   1.950   9.171  0.2221 -0.1556 -0.0651
   87SAPS  H14X 8397   2.567   1.946   9.152 -0.0165 -2.3122 -1.3965
   87SAPS  H14Y 8398   2.422   2.039   9.116  1.0190  0.6259  0.6479
   87SAPS  C315 8399   2.408   1.826   9.105  0.0418 -0.6313  0.3660
   87SAPS  H15X 8400   2.305   1.797   9.135 -0.1829  1.5915  2.0295
   87SAPS  H15Y 8401   2.475   1.744   9.139 -3.3201 -3.8715 -0.2908
   87SAPS  C316 8402   2.430   1.830   8.957  0.1665 -0.3914  0.0685
   87SAPS  H16X 8403   2.532   1.846   8.916 -0.8592  0.1313 -2.4537
   87SAPS  H16Y 8404   2.393   1.923   8.909  2.3665 -0.0199 -1.0301
   87SAPS  C317 8405   2.360   1.711   8.890 -0.1017  0.2821 -0.9270
   87SAPS  H17X 8406   2.249   1.723   8.899 -0.1587 -0.8629  0.1519
   87SAPS  H17Y 8407   2.394   1.617   8.936  1.7835  1.3712  0.0063
   87SAPS  C318 8408   2.419   1.703   8.752 -0.2232 -0.2068  0.3987
   87SAPS  H18X 8409   2.408   1.802   8.702 -0.1780  0.8133  2.3255
   87SAPS  H18Y 8410   2.368   1.627   8.689 -1.8447  1.2801 -0.1531
   87SAPS  H18Z 8411   2.530   1.698   8.758 -0.1594  0.7801  0.1878
   88SAPS     N 8412   4.386   5.927  11.010 -0.9307  0.0278  0.1972
   88SAPS   HN1 8413   4.341   5.900  11.100  2.9089  1.3843  2.7519
   88SAPS   HN2 8414   4.349   6.016  10.972 -0.6730 -0.1101 -0.3990
   88SAPS   HN3 8415   4.388   5.846  10.945 -1.1577 -1.6065  2.1317
   88SAPS   C12 8416   4.530   5.943  11.026 -0.7802  0.2538  0.0978
   88SAPS  H12A 8417   4.574   5.962  10.929  0.6254 -0.4312  0.5711
   88SAPS   C13 8418   4.561   6.070  11.114 -0.2230  0.0407 -0.3325
   88SAPS  O13A 8419   4.465   6.121  11.180  0.1550  0.2134  0.5124
   88SAPS  O13B 8420   4.680   6.100  11.134  0.0707  0.2225 -0.0311
   88SAPS   C11 8421   4.582   5.807  11.091  0.5644  0.2455  0.5210
   88SAPS  H11A 8422   4.530   5.799  11.189 -0.2713  0.4797  0.1083
   88SAPS  H11B 8423   4.689   5.833  11.104  0.3091  1.0393  1.1015
   88SAPS     P 8424   4.675   5.575  11.028  0.7927 -0.2713 -0.2660
   88SAPS   O13 8425   4.813   5.625  11.024 -0.2214  0.1105 -0.5087
   88SAPS   O14 8426   4.629   5.498  11.144  0.0576  0.0108  0.4281
   88SAPS   O12 8427   4.570   5.689  11.005 -0.4535 -0.1668  0.2192
   88SAPS   O11 8428   4.653   5.487  10.900 -0.1916 -0.0108  0.8271
   88SAPS    C1 8429   4.539   5.503  10.810  0.2899  0.5039  0.4050
   88SAPS    HA 8430   4.526   5.405  10.761  0.6891  0.2409  0.8151
   88SAPS    HB 8431   4.443   5.525  10.860 -0.5618 -0.6243 -0.7000
   88SAPS    C2 8432   4.567   5.609  10.700  0.9977  0.2493 -0.4389
   88SAPS    HS 8433   4.587   5.697  10.765 -2.3923 -1.3220  3.1837
   88SAPS   O21 8434   4.450   5.627  10.617 -0.5287  0.7450 -0.2808
   88SAPS   C21 8435   4.373   5.722  10.656  0.3252  0.1148  0.2177
   88SAPS   O22 8436   4.390   5.798  10.749 -0.9342  0.1265 -0.2920
   88SAPS   C22 8437   4.244   5.705  10.579  0.4141  0.3481 -0.2988
   88SAPS   H2R 8438   4.268   5.660  10.480  1.1929 -2.0881  0.9309
   88SAPS   H2S 8439   4.187   5.624  10.630  0.5565 -0.3772 -1.2571
   88SAPS    C3 8440   4.686   5.568  10.609 -0.2282 -0.2660  0.0695
   88SAPS    HX 8441   4.782   5.548  10.661  0.1564  1.4216  0.0705
   88SAPS    HY 8442   4.718   5.656  10.548 -1.4737  1.8541  2.3038
   88SAPS   O31 8443   4.648   5.461  10.523 -0.5597  0.0099  0.6500
   88SAPS   C31 8444   4.716   5.342  10.528  0.0657  0.1969  0.0944
   88SAPS   O32 8445   4.803   5.321  10.608  0.0517 -0.1719  0.4960
   88SAPS   C32 8446   4.675   5.252  10.417  0.0448 -0.2867 -0.7136
   88SAPS   H2X 8447   4.620   5.316  10.345  2.4855  1.4319 -1.2125
   88SAPS   H2Y 8448   4.604   5.177  10.458 -1.2763  1.7196  0.8833
   88SAPS   C23 8449   4.152   5.829  10.568  1.0064  0.1671 -0.3029
   88SAPS   H3R 8450   4.191   5.926  10.530 -0.4461  1.1831  0.6954
   88SAPS   H3S 8451   4.121   5.860  10.670  1.4056  1.5008 -0.5681
   88SAPS   C24 8452   4.013   5.808  10.492 -0.1550  0.0831 -0.1013
   88SAPS   H4R 8453   4.015   5.800  10.381 -0.1395  0.4283 -0.1279
   88SAPS   H4S 8454   3.962   5.906  10.505  1.0184  0.7219 -0.1208
   88SAPS   C25 8455   3.924   5.695  10.533 -0.5394  0.9326  0.3688
   88SAPS   H5R 8456   3.904   5.684  10.640 -0.4559 -1.5719  0.1730
   88SAPS   C26 8457   3.870   5.598  10.455  0.4354  0.6956 -0.6461
   88SAPS   H6R 8458   3.807   5.525  10.508  1.5449  0.7538  0.8056
   88SAPS   C27 8459   3.867   5.591  10.306 -0.2872  0.3775  0.2255
   88SAPS   H7R 8460   3.945   5.658  10.264 -0.6558 -0.6555 -2.2868
   88SAPS   H7S 8461   3.773   5.633  10.265  0.1058  1.6200  0.5411
   88SAPS   C28 8462   3.919   5.457  10.256  0.3577 -0.1215 -0.1157
   88SAPS   H8R 8463   3.928   5.377  10.331 -2.4207  0.5312  1.0661
   88SAPS   C29 8464   3.928   5.438  10.126  0.1649  0.0910  0.0182
   88SAPS   H9R 8465   3.956   5.339  10.087 -2.7638 -0.4892 -0.8281
   88SAPS  C210 8466   3.904   5.536  10.013 -0.2603 -0.6640  0.2234
   88SAPS  H10R 8467   3.812   5.593  10.037  1.2140  0.6856  3.2112
   88SAPS  H10S 8468   3.893   5.477   9.920  0.3577  0.1743 -0.3972
   88SAPS  C211 8469   4.019   5.630   9.994 -0.4790 -0.4290  0.3825
   88SAPS  H11R 8470   4.077   5.655  10.084 -1.1485  2.0909  0.1923
   88SAPS  C212 8471   4.063   5.685   9.878  0.6281 -0.3390  0.4377
   88SAPS  H12R 8472   4.151   5.751   9.871  0.1963  0.2344  0.3836
   88SAPS  C213 8473   4.005   5.667   9.739  0.4556  0.1662 -0.3849
   88SAPS  H13R 8474   3.945   5.758   9.714  1.4407  0.8682 -0.2495
   88SAPS  H13S 8475   3.938   5.579   9.735  2.8895 -1.8262  0.4253
   88SAPS  C214 8476   4.107   5.654   9.631  0.2716  0.0527  0.1433
   88SAPS  H14R 8477   4.210   5.638   9.666 -0.2155 -1.2718  1.0721
   88SAPS  C215 8478   4.087   5.674   9.501  0.8564  0.2684 -0.7299
   88SAPS  H15R 8479   4.167   5.651   9.429  0.9546 -0.6479 -0.3417
   88SAPS  C216 8480   3.955   5.720   9.445 -0.3291  0.1472  0.1035
   88SAPS  H16R 8481   3.933   5.821   9.486 -1.3214 -0.3517  0.8440
   88SAPS  H16S 8482   3.870   5.654   9.470  0.0003 -1.9291 -3.5587
   88SAPS  C217 8483   3.952   5.739   9.296  0.3170 -0.1710  0.3828
   88SAPS  H17R 8484   4.033   5.808   9.265  1.9865 -2.3794 -0.4546
   88SAPS  H17S 8485   3.855   5.784   9.266  1.4837  1.1662 -1.6234
   88SAPS  C218 8486   3.966   5.607   9.213  0.6377 -0.4019  0.2673
   88SAPS  H18R 8487   4.057   5.543   9.223  0.6909 -0.6709 -1.5523
   88SAPS  H18S 8488   3.964   5.627   9.104  0.7040 -3.0843 -0.3036
   88SAPS  C219 8489   3.841   5.531   9.232  0.1179  0.3328 -1.1857
   88SAPS  H19R 8490   3.756   5.594   9.266  0.5488  0.9875 -1.3222
   88SAPS  H19S 8491   3.854   5.471   9.325  0.4820  0.9351 -0.8395
   88SAPS  C220 8492   3.807   5.449   9.107 -0.0349  0.8354 -0.0917
   88SAPS  H20R 8493   3.897   5.398   9.065 -1.0826 -2.1699  1.0454
   88SAPS  H20S 8494   3.761   5.505   9.023 -3.0021 -2.1253 -0.6572
   88SAPS  H20T 8495   3.730   5.379   9.146 -0.1362  1.1216  0.2218
   88SAPS   C33 8496   4.795   5.189  10.346 -0.2564 -0.1725  0.0282
   88SAPS   H3X 8497   4.748   5.100  10.299 -2.3684  0.7112  0.3559
   88SAPS   H3Y 8498   4.884   5.170  10.409 -0.1872 -1.4672 -0.4291
   88SAPS   C34 8499   4.842   5.273  10.228 -0.9874 -0.0963 -0.2059
   88SAPS   H4X 8500   4.854   5.368  10.284  0.5315 -1.2002  1.4740
   88SAPS   H4Y 8501   4.765   5.289  10.150 -0.6862  1.0668 -0.2857
   88SAPS   C35 8502   4.979   5.213  10.176 -0.1234  0.2314  0.4768
   88SAPS   H5X 8503   4.969   5.104  10.159 -0.3167  0.3192 -0.0131
   88SAPS   H5Y 8504   5.057   5.223  10.255  0.7728 -1.5746 -0.1266
   88SAPS   C36 8505   5.032   5.285  10.051  0.3678 -0.2958 -0.4457
   88SAPS   H6X 8506   5.043   5.393  10.074  0.6038 -0.0394 -1.6940
   88SAPS   H6Y 8507   4.957   5.278   9.970 -1.5777  1.8933  1.0379
   88SAPS   C37 8508   5.161   5.221   9.995  0.5531  0.3608  0.3729
   88SAPS   H7X 8509   5.147   5.111   9.988  2.8700  0.0450 -0.4586
   88SAPS   H7Y 8510   5.253   5.250  10.050  0.9958  0.4140 -0.3742
   88SAPS   C38 8511   5.210   5.254   9.857  0.5815 -0.7755  0.2494
   88SAPS   H8X 8512   5.317   5.243   9.831 -0.1186 -0.2774 -3.3226
   88SAPS   H8Y 8513   5.200   5.365   9.855 -0.0910 -0.7906  1.5358
   88SAPS   C39 8514   5.129   5.186   9.743  0.2723 -0.4960  0.0444
   88SAPS   H9X 8515   5.027   5.229   9.746  1.6392  3.1246  0.8270
   88SAPS   H9Y 8516   5.130   5.081   9.780 -0.0819 -0.3529  0.4820
   88SAPS  C310 8517   5.180   5.225   9.603  0.1490 -0.2593 -0.3160
   88SAPS  H10X 8518   5.288   5.206   9.587 -0.0489 -1.2945 -0.5201
   88SAPS  H10Y 8519   5.166   5.332   9.576 -0.1837 -0.3275 -0.4158
   88SAPS  C311 8520   5.110   5.133   9.499  0.2910  0.2973 -0.5395
   88SAPS  H11X 8521   5.000   5.133   9.508  0.4223  0.3965  1.4394
   88SAPS  H11Y 8522   5.134   5.030   9.531  0.0221 -0.0894 -1.5514
   88SAPS  C312 8523   5.155   5.150   9.355 -0.2086 -0.2882  0.0755
   88SAPS  H12X 8524   5.264   5.129   9.350  0.1129  1.2358  0.3057
   88SAPS  H12Y 8525   5.143   5.256   9.325  2.1436 -0.5646 -2.2092
   88SAPS  C313 8526   5.083   5.058   9.261 -0.1130  0.4855  0.1193
   88SAPS  H13X 8527   4.974   5.064   9.279 -0.9666 -1.0395 -3.6020
   88SAPS  H13Y 8528   5.120   4.954   9.276 -1.8870  0.2637  4.3722
   88SAPS  C314 8529   5.100   5.093   9.114  0.0686  0.2744  0.8106
   88SAPS  H14X 8530   5.206   5.083   9.083  0.0350 -0.8540  0.9948
   88SAPS  H14Y 8531   5.071   5.198   9.093 -0.2844 -0.1050 -0.7369
   88SAPS  C315 8532   5.034   5.009   9.002  0.0666  0.3826  0.2496
   88SAPS  H15X 8533   5.066   5.044   8.902 -0.5779  1.5415  0.4364
   88SAPS  H15Y 8534   4.924   5.026   9.003  0.1535  1.0617 -0.7909
   88SAPS  C316 8535   5.075   4.866   9.004 -0.2079  0.0899  0.0557
   88SAPS  H16X 8536   5.046   4.828   9.104 -1.4217  3.6487  1.1871
   88SAPS  H16Y 8537   5.186   4.868   9.005 -0.1878 -0.1796  1.8212
   88SAPS  C317 8538   5.026   4.786   8.884 -0.2594  0.2630  0.1009
   88SAPS  H17X 8539   4.917   4.805   8.881 -0.6104 -1.6733 -1.5186
   88SAPS  H17Y 8540   5.046   4.681   8.911 -1.0010 -0.4106 -1.8020
   88SAPS  C318 8541   5.101   4.818   8.749 -0.5126  0.1609 -0.3479
   88SAPS  H18X 8542   5.046   4.838   8.655 -0.4690  2.1192 -0.0084
   88SAPS  H18Y 8543   5.155   4.723   8.727 -0.0802  0.6440 -1.4175
   88SAPS  H18Z 8544   5.187   4.887   8.763  0.0650 -0.4444 -0.8439
   89SAPS     N 8545   6.141   1.542  11.136 -0.3615  0.0487  0.1869
   89SAPS   HN1 8546   6.133   1.439  11.127  0.3160  0.0473 -0.5255
   89SAPS   HN2 8547   6.197   1.572  11.054  0.0633  0.9352  0.7915
   89SAPS   HN3 8548   6.196   1.567  11.220  0.5187  0.6676 -0.5526
   89SAPS   C12 8549   6.002   1.608  11.135  0.1483  0.1168  0.7095
   89SAPS  H12A 8550   5.925   1.565  11.073 -0.4711  0.2807  1.3516
   89SAPS   C13 8551   5.955   1.617  11.284  0.2937  0.4993  0.0614
   89SAPS  O13A 8552   6.026   1.566  11.379  0.5146 -0.2107  0.5583
   89SAPS  O13B 8553   5.841   1.663  11.312  0.3220 -0.5911 -0.0382
   89SAPS   C11 8554   6.011   1.753  11.066  0.0834  0.2188  0.0316
   89SAPS  H11A 8555   6.104   1.799  11.107  1.3867 -1.7128 -0.6111
   89SAPS  H11B 8556   5.921   1.813  11.093  0.4668  0.2392  1.3312
   89SAPS     P 8557   6.177   1.762  10.861  0.3604 -0.1474  0.1941
   89SAPS   O13 8558   6.224   1.900  10.862 -0.5545  0.3820  0.2633
   89SAPS   O14 8559   6.265   1.658  10.918  0.9803 -0.0538  0.0636
   89SAPS   O12 8560   6.029   1.746  10.925 -0.3889 -0.2133  0.6620
   89SAPS   O11 8561   6.143   1.718  10.716  0.3209  0.0059 -0.6395
   89SAPS    C1 8562   6.057   1.797  10.635  0.1617  0.0489 -0.2532
   89SAPS    HA 8563   5.965   1.736  10.623 -0.3333  0.2483  2.0022
   89SAPS    HB 8564   6.027   1.896  10.674  1.8114 -0.0737  1.5094
   89SAPS    C2 8565   6.115   1.821  10.495 -0.5531 -0.2568  0.3524
   89SAPS    HS 8566   6.040   1.880  10.438 -0.4431  0.2283  0.7058
   89SAPS   O21 8567   6.143   1.695  10.433  0.7790  0.4426 -0.1952
   89SAPS   C21 8568   6.044   1.632  10.379  0.2055 -0.2226 -0.1412
   89SAPS   O22 8569   5.923   1.667  10.382 -0.2938  0.0085  0.0988
   89SAPS   C22 8570   6.098   1.515  10.299  0.2907 -0.9274 -0.2085
   89SAPS   H2R 8571   6.146   1.438  10.363  0.0861 -2.7633 -2.1554
   89SAPS   H2S 8572   6.011   1.462  10.255 -1.2858  2.3663 -1.4144
   89SAPS    C3 8573   6.245   1.902  10.493  0.2594  0.4299  0.6276
   89SAPS    HX 8574   6.321   1.841  10.546 -0.0223  0.7319  1.3945
   89SAPS    HY 8575   6.223   1.989  10.558  1.4229 -0.8001  2.7591
   89SAPS   O31 8576   6.291   1.929  10.357 -0.1908  1.3363 -0.4058
   89SAPS   C31 8577   6.265   2.042  10.306  0.0233 -0.4081 -0.5749
   89SAPS   O32 8578   6.213   2.139  10.361  0.4799  0.5924 -1.0370
   89SAPS   C32 8579   6.323   2.044  10.166 -0.4094 -0.4963  0.6821
   89SAPS   H2X 8580   6.315   1.941  10.124 -3.2633  0.2957 -1.0013
   89SAPS   H2Y 8581   6.433   2.062  10.172 -0.0150 -1.1813 -2.4274
   89SAPS   C23 8582   6.204   1.552  10.188  0.1186  0.3988 -0.8864
   89SAPS   H3R 8583   6.303   1.556  10.237 -0.5531 -0.6398  0.6669
   89SAPS   H3S 8584   6.181   1.645  10.132 -0.7246  0.2579 -0.7903
   89SAPS   C24 8585   6.212   1.438  10.088  0.0486 -0.0916 -0.2079
   89SAPS   H4R 8586   6.121   1.414  10.029  0.3639 -0.1790 -0.6604
   89SAPS   H4S 8587   6.247   1.345  10.137  0.9099  0.6065  0.5410
   89SAPS   C25 8588   6.307   1.466   9.982 -0.5835 -0.3000 -0.0741
   89SAPS   H5R 8589   6.408   1.431  10.006 -0.3625 -1.5831 -2.5207
   89SAPS   C26 8590   6.285   1.496   9.855  0.2152 -0.0726  0.2007
   89SAPS   H6R 8591   6.375   1.498   9.791 -0.0530  0.9213 -0.1664
   89SAPS   C27 8592   6.147   1.524   9.794  0.7583  0.2002  0.2803
   89SAPS   H7R 8593   6.087   1.595   9.854  0.1240  0.4832 -0.6656
   89SAPS   H7S 8594   6.093   1.426   9.793  1.7512 -0.4198 -3.1721
   89SAPS   C28 8595   6.149   1.595   9.660 -0.7977  0.3202 -0.1583
   89SAPS   H8R 8596   6.192   1.696   9.661  0.9280 -0.3729 -0.6086
   89SAPS   C29 8597   6.100   1.549   9.544 -0.1931  0.6556  0.7707
   89SAPS   H9R 8598   6.128   1.602   9.452 -1.6452  0.4578  0.1942
   89SAPS  C210 8599   6.031   1.415   9.524  0.1934  0.5368  0.0822
   89SAPS  H10R 8600   5.920   1.419   9.521  0.0240 -2.5293 -2.0344
   89SAPS  H10S 8601   6.053   1.349   9.610  1.0324  1.6280  0.7400
   89SAPS  C211 8602   6.079   1.345   9.398 -0.1032  0.1962  0.1893
   89SAPS  H11R 8603   6.089   1.407   9.307 -1.0250  1.4790  0.9435
   89SAPS  C212 8604   6.110   1.215   9.393  0.3753 -0.0672  0.3999
   89SAPS  H12R 8605   6.143   1.172   9.297 -0.6728  0.9054 -0.4187
   89SAPS  C213 8606   6.098   1.101   9.498 -0.0460  0.2689 -0.3415
   89SAPS  H13R 8607   5.998   1.054   9.487  1.0935 -2.1911 -0.8140
   89SAPS  H13S 8608   6.087   1.144   9.600 -0.3292 -1.6159  0.4522
   89SAPS  C214 8609   6.207   0.992   9.498  0.1139 -0.1716 -0.1236
   89SAPS  H14R 8610   6.199   0.914   9.420 -0.2218  1.9871 -2.3621
   89SAPS  C215 8611   6.321   0.995   9.569  1.0129 -0.2442  0.1551
   89SAPS  H15R 8612   6.390   0.910   9.561 -0.2372 -1.2571 -0.4088
   89SAPS  C216 8613   6.349   1.105   9.672  0.0448  0.2103 -0.2123
   89SAPS  H16R 8614   6.316   1.203   9.633 -1.1973 -0.1028  0.0139
   89SAPS  H16S 8615   6.460   1.102   9.677  0.0853  0.1030 -1.0993
   89SAPS  C217 8616   6.301   1.095   9.819  0.2057 -0.1274 -0.1426
   89SAPS  H17R 8617   6.198   1.131   9.839  0.0535 -0.7090  0.1458
   89SAPS  H17S 8618   6.380   1.154   9.869  0.7373 -1.0511  0.1216
   89SAPS  C218 8619   6.315   0.953   9.877 -0.1541  0.1761  0.5227
   89SAPS  H18R 8620   6.401   0.903   9.827 -2.3782 -0.2618 -3.2382
   89SAPS  H18S 8621   6.222   0.897   9.853  1.2152 -1.6217 -0.9603
   89SAPS  C219 8622   6.322   0.940  10.033 -0.0936  0.0550 -0.6945
   89SAPS  H19R 8623   6.408   1.003  10.063 -0.0071 -0.0551 -0.7134
   89SAPS  H19S 8624   6.324   0.839  10.079  2.8858 -0.6346 -2.1289
   89SAPS  C220 8625   6.190   1.005  10.081 -0.4711  0.2382  0.1149
   89SAPS  H20R 8626   6.185   1.102  10.027  0.2803  0.1154 -0.1912
   89SAPS  H20S 8627   6.184   1.027  10.190 -2.0987 -1.1652  0.3589
   89SAPS  H20T 8628   6.099   0.948  10.052 -0.3724  0.8369 -1.4457
   89SAPS   C33 8629   6.256   2.139  10.073  0.5978  0.0939  0.0159
   89SAPS   H3X 8630   6.231   2.236  10.121 -1.3535 -0.3686  0.0347
   89SAPS   H3Y 8631   6.155   2.102  10.045 -0.1704  1.9564  0.1780
   89SAPS   C34 8632   6.341   2.184   9.958 -0.3310 -0.4959 -0.3066
   89SAPS   H4X 8633   6.353   2.085   9.909 -0.4234 -1.4072  1.4372
   89SAPS   H4Y 8634   6.443   2.221   9.981 -0.3980  0.3900 -1.3453
   89SAPS   C35 8635   6.281   2.285   9.865  0.3468  0.2886 -0.4789
   89SAPS   H5X 8636   6.227   2.366   9.919 -0.9754 -0.6072 -0.4259
   89SAPS   H5Y 8637   6.195   2.237   9.815  0.8240 -0.1732 -0.8573
   89SAPS   C36 8638   6.386   2.334   9.764 -0.4550 -0.1177 -0.0335
   89SAPS   H6X 8639   6.434   2.253   9.704  2.5596  2.8662 -2.0350
   89SAPS   H6Y 8640   6.476   2.371   9.817  0.3357 -0.1863 -1.2847
   89SAPS   C37 8641   6.333   2.434   9.664 -0.0477 -0.3511  0.1798
   89SAPS   H7X 8642   6.326   2.534   9.712 -0.2933 -1.0543  1.6604
   89SAPS   H7Y 8643   6.232   2.397   9.633 -0.1613  1.1477 -1.4107
   89SAPS   C38 8644   6.418   2.432   9.544  0.2478  0.5169 -0.3732
   89SAPS   H8X 8645   6.399   2.336   9.493 -0.3543 -0.0702  0.9026
   89SAPS   H8Y 8646   6.527   2.420   9.559  0.2215 -2.0363 -1.6936
   89SAPS   C39 8647   6.383   2.547   9.441 -0.3125  0.3934  0.7753
   89SAPS   H9X 8648   6.401   2.647   9.487  0.0328 -0.2947  2.1883
   89SAPS   H9Y 8649   6.276   2.545   9.410 -0.2725  0.6022  0.6203
   89SAPS  C310 8650   6.476   2.532   9.317  0.4653  0.0120  0.1527
   89SAPS  H10X 8651   6.470   2.432   9.270 -0.5769 -0.2680  0.8604
   89SAPS  H10Y 8652   6.584   2.540   9.344  0.4526  0.0118  0.2036
   89SAPS  C311 8653   6.433   2.635   9.210 -0.1626  0.3063  0.4359
   89SAPS  H11X 8654   6.515   2.641   9.135  0.3886 -2.8664  0.6268
   89SAPS  H11Y 8655   6.409   2.733   9.254 -0.3997  1.0550 -1.2808
   89SAPS  C312 8656   6.309   2.598   9.125  0.3439  0.0336  0.2505
   89SAPS  H12X 8657   6.230   2.548   9.184  0.7899  0.6835  1.4285
   89SAPS  H12Y 8658   6.345   2.537   9.039  0.3273  0.2777  0.0674
   89SAPS  C313 8659   6.251   2.720   9.057  0.2628 -0.2399 -0.2197
   89SAPS  H13X 8660   6.337   2.778   9.017 -0.9535  1.4650 -0.4628
   89SAPS  H13Y 8661   6.207   2.772   9.145  4.3505  0.3513  1.6978
   89SAPS  C314 8662   6.147   2.685   8.950 -0.7021 -0.2252 -0.1948
   89SAPS  H14X 8663   6.092   2.591   8.971 -0.7238  0.0111  0.8165
   89SAPS  H14Y 8664   6.200   2.666   8.854  0.9929  2.2324  0.1849
   89SAPS  C315 8665   6.042   2.794   8.935 -0.2335  0.0677  0.2020
   89SAPS  H15X 8666   6.076   2.899   8.948  1.6141 -0.5981  1.2208
   89SAPS  H15Y 8667   5.965   2.783   9.014 -0.5682 -0.0007 -0.1324
   89SAPS  C316 8668   5.970   2.801   8.801  0.4062  0.3040  0.3697
   89SAPS  H16X 8669   5.945   2.700   8.762 -2.3585  1.3831 -0.9156
   89SAPS  H16Y 8670   6.032   2.860   8.730 -1.3538  2.2690  0.3833
   89SAPS  C317 8671   5.827   2.851   8.818  0.6885  0.8481 -0.2332
   89SAPS  H17X 8672   5.818   2.955   8.856 -1.6192  1.1547 -1.4284
   89SAPS  H17Y 8673   5.766   2.792   8.890 -0.7753  0.7600 -1.4905
   89SAPS  C318 8674   5.738   2.863   8.691 -0.0990  0.2741  0.3227
   89SAPS  H18X 8675   5.694   2.965   8.687  2.3396  1.3924  0.1609
   89SAPS  H18Y 8676   5.651   2.794   8.687 -1.2851  1.7559 -2.8616
   89SAPS  H18Z 8677   5.781   2.831   8.593 -3.6795  0.8103 -1.5957
   90SAPS     N 8678   0.134   2.224  10.901 -0.2614 -0.3562  0.4104
   90SAPS   HN1 8679   0.064   2.257  10.971  0.0569  0.9055  0.1558
   90SAPS   HN2 8680   0.181   2.306  10.856  1.6502 -1.8555 -0.4623
   90SAPS   HN3 8681   0.088   2.165  10.829  0.3441 -2.8250  1.9333
   90SAPS   C12 8682   0.230   2.143  10.976  0.0440 -0.6674  0.3203
   90SAPS  H12A 8683   0.266   2.215  11.048 -1.2038  0.7411 -0.4123
   90SAPS   C13 8684   0.170   2.018  11.048  0.4164 -0.3001  0.1959
   90SAPS  O13A 8685   0.042   2.011  11.059 -0.0910  0.1529  0.0047
   90SAPS  O13B 8686   0.239   1.941  11.110  0.0952  0.0011  0.2475
   90SAPS   C11 8687   0.343   2.094  10.875  0.1143  0.0624  0.1571
   90SAPS  H11A 8688   0.300   2.016  10.807 -1.9532  1.8929 -0.7658
   90SAPS  H11B 8689   0.425   2.049  10.935 -0.1637  1.3692  1.5733
   90SAPS     P 8690   0.529   2.195  10.716 -0.3752 -0.2242 -0.3717
   90SAPS   O13 8691   0.640   2.217  10.808 -0.2984 -0.0851  0.2413
   90SAPS   O14 8692   0.532   2.069  10.644 -0.0714 -0.1309 -0.1313
   90SAPS   O12 8693   0.394   2.211  10.793 -0.4019 -0.4335 -0.2643
   90SAPS   O11 8694   0.506   2.317  10.625 -0.1215 -0.1506  0.3734
   90SAPS    C1 8695   0.398   2.323  10.528 -0.4201  0.9551 -0.6503
   90SAPS    HA 8696   0.334   2.232  10.534  0.5165  0.2490 -1.0626
   90SAPS    HB 8697   0.316   2.392  10.560  0.9972  1.8966  1.1084
   90SAPS    C2 8698   0.447   2.366  10.391  0.0517  0.1896 -0.4240
   90SAPS    HS 8699   0.363   2.386  10.322 -0.1746 -2.8206 -1.1745
   90SAPS   O21 8700   0.526   2.259  10.336  0.0256  0.5073 -0.7799
   90SAPS   C21 8701   0.453   2.167  10.278  0.5499 -0.8053 -0.2297
   90SAPS   O22 8702   0.329   2.163  10.274 -0.2720 -0.0901  0.3729
   90SAPS   C22 8703   0.537   2.078  10.195 -0.2321 -0.2386  0.0627
   90SAPS   H2R 8704   0.543   2.128  10.097 -1.8025  0.1503  0.1481
   90SAPS   H2S 8705   0.637   2.056  10.239 -0.7825 -0.5031  1.2275
   90SAPS    C3 8706   0.523   2.500  10.399 -0.0994  0.3618 -0.0561
   90SAPS    HX 8707   0.612   2.483  10.464 -0.0635  0.4740 -0.0761
   90SAPS    HY 8708   0.466   2.578  10.454  0.6894  1.4041 -0.6882
   90SAPS   O31 8709   0.571   2.541  10.268  0.6535 -0.2522 -0.4904
   90SAPS   C31 8710   0.488   2.610  10.190 -0.0749 -0.4552 -0.1327
   90SAPS   O32 8711   0.369   2.623  10.199 -0.9023 -0.5011 -0.1146
   90SAPS   C32 8712   0.576   2.664  10.072  0.7652 -0.7201  0.9258
   90SAPS   H2X 8713   0.678   2.619  10.071  1.2248  0.2941 -0.5199
   90SAPS   H2Y 8714   0.593   2.771  10.096 -1.1283 -0.0294 -0.5113
   90SAPS   C23 8715   0.468   1.943  10.189  0.2970  0.1363  0.4290
   90SAPS   H3R 8716   0.387   1.946  10.114  0.8535  0.2361 -0.1830
   90SAPS   H3S 8717   0.420   1.905  10.282 -1.2255  1.5067  0.2298
   90SAPS   C24 8718   0.561   1.831  10.151 -0.7441  0.0066  0.4926
   90SAPS   H4R 8719   0.637   1.821  10.230 -0.9815 -1.8567  0.5083
   90SAPS   H4S 8720   0.617   1.844  10.056  1.2677 -0.3492  1.5822
   90SAPS   C25 8721   0.486   1.699  10.136  0.1620  0.0673 -0.1429
   90SAPS   H5R 8722   0.426   1.658  10.218 -1.3582  0.6013 -0.9501
   90SAPS   C26 8723   0.473   1.624  10.022  0.1220  0.6184 -0.3475
   90SAPS   H6R 8724   0.414   1.533  10.038  1.3543 -0.3940 -1.3340
   90SAPS   C27 8725   0.531   1.652   9.888 -0.1635  0.5095  0.6556
   90SAPS   H7R 8726   0.639   1.628   9.897 -0.2622 -0.1502  0.2034
   90SAPS   H7S 8727   0.513   1.754   9.848 -0.8800 -0.6393 -2.2964
   90SAPS   C28 8728   0.478   1.558   9.789  0.5076  0.7275 -0.1039
   90SAPS   H8R 8729   0.542   1.470   9.773 -0.9158 -0.3603  0.0687
   90SAPS   C29 8730   0.364   1.571   9.713  0.3937  0.0057 -0.4540
   90SAPS   H9R 8731   0.337   1.486   9.650 -0.8521 -0.4205  0.6065
   90SAPS  C210 8732   0.255   1.679   9.725 -0.0624  0.7839 -0.0145
   90SAPS  H10R 8733   0.266   1.744   9.815 -0.3496  1.2076 -0.2824
   90SAPS  H10S 8734   0.155   1.633   9.739 -0.2208  1.3351  0.7380
   90SAPS  C211 8735   0.255   1.761   9.598 -0.4560  0.0861 -0.7657
   90SAPS  H11R 8736   0.293   1.863   9.614 -3.7042  1.1996  0.6684
   90SAPS  C212 8737   0.223   1.732   9.471  0.3143 -0.1127  0.2290
   90SAPS  H12R 8738   0.242   1.812   9.397 -0.7442  0.1517  0.2208
   90SAPS  C213 8739   0.179   1.597   9.415 -0.2678  0.2737  0.0456
   90SAPS  H13R 8740   0.073   1.611   9.386 -0.4092 -1.3706 -0.3372
   90SAPS  H13S 8741   0.173   1.518   9.493  2.2828  0.4545  0.5214
   90SAPS  C214 8742   0.248   1.550   9.292 -0.6038  0.7667 -0.7650
   90SAPS  H14R 8743   0.331   1.478   9.301  0.4999  2.0047 -0.7049
   90SAPS  C215 8744   0.212   1.582   9.166  0.1862  0.0568 -0.0439
   90SAPS  H15R 8745   0.263   1.525   9.087 -0.4153 -0.7991  0.1677
   90SAPS  C216 8746   0.105   1.672   9.116  0.9272  0.5915  0.0141
   90SAPS  H16R 8747   0.092   1.756   9.188 -0.5903  0.8134 -0.5005
   90SAPS  H16S 8748   0.012   1.612   9.118  0.5917  1.0999 -0.0197
   90SAPS  C217 8749   0.132   1.717   8.973  0.3439 -0.3829 -0.7048
   90SAPS  H17R 8750   0.198   1.807   8.977 -1.7250  1.1916  0.3214
   90SAPS  H17S 8751   0.040   1.772   8.942 -0.8756 -1.1572  1.3125
   90SAPS  C218 8752   0.178   1.617   8.865  0.7442  0.1639 -0.3004
   90SAPS  H18R 8753   0.270   1.566   8.900  1.9921  2.5230  0.0654
   90SAPS  H18S 8754   0.215   1.678   8.780  0.4562 -0.0064 -0.5488
   90SAPS  C219 8755   0.077   1.508   8.818 -0.2522  0.9244 -0.4146
   90SAPS  H19R 8756  -0.014   1.559   8.780  0.4282  1.8116 -0.9093
   90SAPS  H19S 8757   0.042   1.439   8.898 -0.5358 -1.9671 -2.8701
   90SAPS  C220 8758   0.134   1.424   8.711 -0.4735  0.4826  0.2828
   90SAPS  H20R 8759   0.083   1.326   8.699 -0.3818  0.5248 -0.4961
   90SAPS  H20S 8760   0.241   1.401   8.731 -0.7095 -1.3235 -0.3576
   90SAPS  H20T 8761   0.119   1.478   8.615 -0.9316 -2.8233 -1.6730
   90SAPS   C33 8762   0.507   2.667   9.933  0.4095 -0.2972  0.3495
   90SAPS   H3X 8763   0.527   2.771   9.899  1.0830 -1.0085 -1.6144
   90SAPS   H3Y 8764   0.397   2.674   9.942  0.3617 -0.6530  0.0669
   90SAPS   C34 8765   0.557   2.565   9.829 -0.1173  0.2339  0.1781
   90SAPS   H4X 8766   0.542   2.467   9.880 -1.6424  1.3733  2.0304
   90SAPS   H4Y 8767   0.664   2.582   9.805 -0.4455  0.2166 -1.4549
   90SAPS   C35 8768   0.495   2.584   9.693 -1.1699  0.1435 -0.7241
   90SAPS   H5X 8769   0.523   2.683   9.650  0.9157 -0.5267 -1.0244
   90SAPS   H5Y 8770   0.384   2.593   9.698 -1.2566 -1.2547  1.7319
   90SAPS   C36 8771   0.528   2.466   9.608 -0.7511  0.5183  0.1532
   90SAPS   H6X 8772   0.486   2.370   9.644 -0.7908  0.5044  0.0683
   90SAPS   H6Y 8773   0.638   2.453   9.603 -0.6894 -1.2966  3.4806
   90SAPS   C37 8774   0.476   2.494   9.459  0.6041 -0.8508  0.6286
   90SAPS   H7X 8775   0.493   2.599   9.426 -2.5281 -0.8993 -1.5327
   90SAPS   H7Y 8776   0.368   2.472   9.450  0.5969  0.0655 -2.7864
   90SAPS   C38 8777   0.552   2.406   9.355 -0.5465 -0.3422 -1.0118
   90SAPS   H8X 8778   0.533   2.299   9.381 -0.2130 -0.5667 -1.6701
   90SAPS   H8Y 8779   0.658   2.431   9.374 -0.5211 -0.2172 -1.3166
   90SAPS   C39 8780   0.511   2.430   9.209  0.7563  0.4200 -0.0617
   90SAPS   H9X 8781   0.528   2.539   9.195  2.9367 -0.2464 -3.9895
   90SAPS   H9Y 8782   0.401   2.418   9.208  0.8087 -0.1970 -1.8718
   90SAPS  C310 8783   0.580   2.331   9.109  0.3206  0.1659  0.3375
   90SAPS  H10X 8784   0.547   2.232   9.147 -0.5440 -0.0080 -0.8220
   90SAPS  H10Y 8785   0.691   2.341   9.110  0.2948  0.7158  2.5829
   90SAPS  C311 8786   0.524   2.342   8.964 -0.1693 -0.7011 -0.2184
   90SAPS  H11X 8787   0.415   2.319   8.958 -0.8557  2.0767  0.2681
   90SAPS  H11Y 8788   0.578   2.267   8.902  2.2860  0.8340 -0.0742
   90SAPS  C312 8789   0.559   2.475   8.901  0.0833 -0.2575  0.2767
   90SAPS  H12X 8790   0.667   2.490   8.918 -0.0803 -0.6324  1.8173
   90SAPS  H12Y 8791   0.492   2.553   8.943  0.4397 -1.1897  2.7499
   90SAPS  C313 8792   0.542   2.475   8.748  0.0599 -0.1561 -0.0006
   90SAPS  H13X 8793   0.437   2.440   8.739 -0.0897  0.0522  0.8694
   90SAPS  H13Y 8794   0.613   2.404   8.701  2.2998  0.8163  1.7011
   90SAPS  C314 8795   0.562   2.609   8.693 -0.2920 -0.8838 -0.0605
   90SAPS  H14X 8796   0.652   2.653   8.742  0.8796 -0.9845 -1.9898
   90SAPS  H14Y 8797   0.494   2.690   8.728  0.2822  0.2081 -1.3642
   90SAPS  C315 8798   0.579   2.615   8.543 -0.7782  0.1249 -0.2314
   90SAPS  H15X 8799   0.666   2.548   8.524  1.2386  2.6763 -0.7239
   90SAPS  H15Y 8800   0.620   2.714   8.513  1.8711 -0.9525 -0.4763
   90SAPS  C316 8801   0.460   2.568   8.469 -0.8959 -0.0021  0.0522
   90SAPS  H16X 8802   0.432   2.464   8.493  0.1255 -0.4553 -0.6556
   90SAPS  H16Y 8803   0.495   2.566   8.364  0.0252 -2.7881  0.3424
   90SAPS  C317 8804   0.344   2.667   8.480  0.2930 -0.0411  0.8366
   90SAPS  H17X 8805   0.349   2.752   8.408  0.4903 -1.0693 -0.3867
   90SAPS  H17Y 8806   0.348   2.716   8.580 -0.2887 -2.3236  2.0462
   90SAPS  C318 8807   0.211   2.592   8.454  0.2003  0.1851 -0.5032
   90SAPS  H18X 8808   0.124   2.656   8.476  0.2998 -0.1518  0.9394
   90SAPS  H18Y 8809   0.206   2.515   8.534  0.0620 -0.4471 -1.1029
   90SAPS  H18Z 8810   0.194   2.550   8.352 -0.5080  1.9729 -1.1622
   91SAPS     N 8811   3.728   6.624   5.930 -0.1544  0.0994  0.1798
   91SAPS   HN1 8812   3.714   6.650   6.030  0.0834  0.8408  0.0289
   91SAPS   HN2 8813   3.825   6.588   5.919 -0.1196 -0.2798  1.5428
   91SAPS   HN3 8814   3.722   6.712   5.874  3.0481 -0.0965 -0.7056
   91SAPS   C12 8815   3.616   6.534   5.889  0.1080  0.0389 -0.2307
   91SAPS  H12A 8816   3.527   6.595   5.891  1.5188  2.2039  2.1295
   91SAPS   C13 8817   3.635   6.459   5.749 -0.1411 -0.0866  1.0394
   91SAPS  O13A 8818   3.730   6.502   5.678 -0.3365 -0.1989  0.0579
   91SAPS  O13B 8819   3.544   6.383   5.705  0.0217 -0.5428  0.4020
   91SAPS   C11 8820   3.598   6.422   5.994  0.1579  0.8062  0.3610
   91SAPS  H11A 8821   3.686   6.353   6.001 -2.2745 -2.5020  0.9234
   91SAPS  H11B 8822   3.512   6.363   5.957  1.7930 -2.5401  1.4517
   91SAPS     P 8823   3.486   6.418   6.232  0.1810  0.1979  0.1410
   91SAPS   O13 8824   3.384   6.524   6.252  0.0982  0.0369  0.1967
   91SAPS   O14 8825   3.439   6.285   6.189 -0.4643 -0.3637  0.1161
   91SAPS   O12 8826   3.586   6.472   6.125  0.4278  0.0282 -0.3134
   91SAPS   O11 8827   3.578   6.406   6.362 -0.2390 -0.7377 -0.1067
   91SAPS    C1 8828   3.683   6.304   6.353  0.3726  0.3023  0.3966
   91SAPS    HA 8829   3.638   6.202   6.354  0.1360  0.4063  1.4955
   91SAPS    HB 8830   3.751   6.321   6.266  0.0073  0.4346  0.1350
   91SAPS    C2 8831   3.763   6.305   6.483  0.2716  0.1868  0.5023
   91SAPS    HS 8832   3.683   6.294   6.559 -1.6178  2.7240 -0.9884
   91SAPS   O21 8833   3.841   6.422   6.493  0.4416  0.3286  0.0806
   91SAPS   C21 8834   3.847   6.475   6.614  0.0122  0.2160  0.1514
   91SAPS   O22 8835   3.794   6.434   6.717 -0.7724  0.1737  0.3659
   91SAPS   C22 8836   3.944   6.594   6.627  0.6939 -0.3011 -0.1206
   91SAPS   H2R 8837   3.964   6.637   6.526 -0.6402  1.3738  0.2870
   91SAPS   H2S 8838   3.876   6.666   6.676  1.0630 -1.0865  1.6407
   91SAPS    C3 8839   3.852   6.174   6.501  0.2943 -0.5867  0.4256
   91SAPS    HX 8840   3.919   6.176   6.412 -2.6644  1.0844 -1.9466
   91SAPS    HY 8841   3.779   6.092   6.482 -1.5393  1.0635  0.0835
   91SAPS   O31 8842   3.922   6.173   6.626 -0.0353 -0.2206 -0.4428
   91SAPS   C31 8843   3.873   6.105   6.728 -0.6006 -0.4260 -0.0192
   91SAPS   O32 8844   3.780   6.034   6.725  0.1865  0.4022  0.6728
   91SAPS   C32 8845   3.965   6.114   6.849  0.2298  0.1025 -0.1793
   91SAPS   H2X 8846   3.994   6.218   6.876 -0.4209  0.0545  0.7550
   91SAPS   H2Y 8847   4.055   6.055   6.820  0.3528  0.1448  0.1104
   91SAPS   C23 8848   4.068   6.566   6.716 -0.6136 -0.4715 -0.1930
   91SAPS   H3R 8849   4.138   6.496   6.666 -1.1424 -1.4894  0.4481
   91SAPS   H3S 8850   4.042   6.531   6.818  1.5131 -3.6914 -0.5947
   91SAPS   C24 8851   4.148   6.704   6.727 -0.1439 -0.7213 -0.2516
   91SAPS   H4R 8852   4.184   6.733   6.626  0.6499 -0.5185  0.0854
   91SAPS   H4S 8853   4.237   6.703   6.793  0.3492 -2.0721 -0.9085
   91SAPS   C25 8854   4.067   6.825   6.772 -0.4118 -0.2762 -0.3923
   91SAPS   H5R 8855   4.012   6.876   6.692  0.9915  0.3405 -0.9864
   91SAPS   C26 8856   4.081   6.884   6.893 -0.5458  0.3968 -0.3577
   91SAPS   H6R 8857   4.012   6.962   6.930 -2.6130 -1.6451  0.3446
   91SAPS   C27 8858   4.160   6.830   7.009  0.1226 -0.4546  0.6876
   91SAPS   H7R 8859   4.209   6.734   6.984  2.5897  0.6448  1.0673
   91SAPS   H7S 8860   4.087   6.818   7.093 -2.1545  2.1477 -0.7352
   91SAPS   C28 8861   4.276   6.926   7.040  0.7445  0.2343 -0.2036
   91SAPS   H8R 8862   4.316   6.984   6.955 -0.7077 -1.6890 -2.3170
   91SAPS   C29 8863   4.304   6.958   7.165 -0.2806  0.1619  0.5492
   91SAPS   H9R 8864   4.390   7.026   7.176  0.2531 -0.5617  1.0009
   91SAPS  C210 8865   4.254   6.913   7.301  0.1475  0.3674  0.0505
   91SAPS  H10R 8866   4.178   6.831   7.305  1.4170 -0.8440  3.8138
   91SAPS  H10S 8867   4.207   6.994   7.360  1.1336 -1.1199  3.0665
   91SAPS  C211 8868   4.358   6.847   7.388 -0.6078 -0.9623 -0.2042
   91SAPS  H11R 8869   4.459   6.840   7.346  0.5563  1.1688  2.0523
   91SAPS  C212 8870   4.337   6.811   7.513 -0.3381  0.3211  0.2381
   91SAPS  H12R 8871   4.426   6.774   7.565  1.1143  1.8306 -1.0959
   91SAPS  C213 8872   4.208   6.816   7.595 -0.1819 -0.5973 -0.0542
   91SAPS  H13R 8873   4.195   6.722   7.652  1.2046  0.1087  1.5345
   91SAPS  H13S 8874   4.124   6.822   7.523  1.3296 -3.1985 -2.2141
   91SAPS  C214 8875   4.201   6.931   7.698  0.7283  0.0695 -0.0709
   91SAPS  H14R 8876   4.140   7.016   7.665 -0.5600 -0.5898  0.5237
   91SAPS  C215 8877   4.254   6.928   7.822 -0.0111 -0.0252  0.8795
   91SAPS  H15R 8878   4.234   7.015   7.886 -1.2022 -0.7710  1.5643
   91SAPS  C216 8879   4.332   6.811   7.880 -0.5511  0.0517 -0.0018
   91SAPS  H16R 8880   4.321   6.720   7.817 -0.8055  0.4554 -0.5547
   91SAPS  H16S 8881   4.286   6.790   7.979  1.7300  0.7823  1.2880
   91SAPS  C217 8882   4.480   6.829   7.894 -0.2725 -0.9566  0.8138
   91SAPS  H17R 8883   4.525   6.864   7.798 -2.1868  3.3749  1.2504
   91SAPS  H17S 8884   4.525   6.733   7.927 -0.1191 -1.0979  0.2135
   91SAPS  C218 8885   4.526   6.941   7.994  0.6501 -0.1979 -0.4694
   91SAPS  H18R 8886   4.465   7.033   7.983  1.8652  0.3655 -3.3248
   91SAPS  H18S 8887   4.630   6.973   7.969  1.0782 -2.9243 -2.6388
   91SAPS  C219 8888   4.526   6.898   8.144  0.1189 -0.0842  0.4114
   91SAPS  H19R 8889   4.593   6.811   8.162  1.2648  0.2585 -1.8830
   91SAPS  H19S 8890   4.422   6.871   8.174  1.2717 -1.9575  3.1318
   91SAPS  C220 8891   4.573   7.006   8.239 -0.3691  0.5572  0.2545
   91SAPS  H20R 8892   4.674   7.049   8.222 -0.0170  0.1789  1.2947
   91SAPS  H20S 8893   4.591   6.947   8.332  1.6789 -2.2830 -1.7809
   91SAPS  H20T 8894   4.491   7.073   8.272 -2.0760 -1.7850  0.9987
   91SAPS   C33 8895   3.904   6.062   6.974  0.9002 -0.0500  0.3975
   91SAPS   H3X 8896   3.871   5.956   6.962 -1.0292  0.6164 -0.5635
   91SAPS   H3Y 8897   3.810   6.116   6.995  0.3127 -0.1282 -1.7800
   91SAPS   C34 8898   4.001   6.076   7.089  0.4559  0.1513  0.2309
   91SAPS   H4X 8899   4.010   6.185   7.107 -2.6664  0.3568  1.2825
   91SAPS   H4Y 8900   4.101   6.036   7.063  0.3686  1.6287 -2.8001
   91SAPS   C35 8901   3.932   6.011   7.213 -0.8269 -0.0257 -0.2066
   91SAPS   H5X 8902   3.888   5.915   7.180  1.7626 -1.5097  0.3548
   91SAPS   H5Y 8903   3.847   6.074   7.248  0.7230  1.6824  0.6925
   91SAPS   C36 8904   4.030   5.985   7.329 -0.3458 -0.2813  0.3980
   91SAPS   H6X 8905   4.120   6.049   7.323  0.3722 -1.1827  1.1367
   91SAPS   H6Y 8906   4.066   5.880   7.331  1.7624  0.3780  3.2246
   91SAPS   C37 8907   3.968   6.010   7.463 -0.2937 -0.1436 -0.3018
   91SAPS   H7X 8908   3.888   5.936   7.484 -0.1347  0.0425  1.0902
   91SAPS   H7Y 8909   3.919   6.110   7.468  1.3985  0.7073  0.2339
   91SAPS   C38 8910   4.077   6.007   7.571 -0.5105 -0.4600 -0.9495
   91SAPS   H8X 8911   4.164   6.070   7.544 -1.0878  0.1150 -1.4974
   91SAPS   H8Y 8912   4.110   5.901   7.575  1.0133  0.0171  1.1150
   91SAPS   C39 8913   4.019   6.048   7.712  0.0996  0.3331 -0.7508
   91SAPS   H9X 8914   3.925   5.991   7.726  1.9752 -3.1709 -1.2598
   91SAPS   H9Y 8915   3.997   6.157   7.713 -0.6167  0.2727 -3.3266
   91SAPS  C310 8916   4.118   6.015   7.821 -0.6568  1.2579  0.5541
   91SAPS  H10X 8917   4.215   6.052   7.782 -1.1383  0.5141 -1.4789
   91SAPS  H10Y 8918   4.133   5.905   7.819  1.1909  1.4808 -1.2782
   91SAPS  C311 8919   4.094   6.043   7.972  0.1658  0.0465  0.5108
   91SAPS  H11X 8920   3.996   5.993   7.987 -0.8127  2.0756  1.3406
   91SAPS  H11Y 8921   4.074   6.152   7.982 -0.8227  0.0793 -1.3049
   91SAPS  C312 8922   4.205   5.997   8.073  0.2122 -0.2455  0.1227
   91SAPS  H12X 8923   4.297   6.044   8.031 -0.0267  0.0684 -0.0497
   91SAPS  H12Y 8924   4.214   5.888   8.055 -0.2930 -0.0982 -1.0631
   91SAPS  C313 8925   4.162   6.022   8.221  0.2405 -0.0990 -0.1174
   91SAPS  H13X 8926   4.055   5.995   8.233 -0.2907  1.7520 -0.4814
   91SAPS  H13Y 8927   4.188   6.129   8.230  2.4066 -0.7611  2.9209
   91SAPS  C314 8928   4.262   5.962   8.320 -0.0364 -0.1205 -0.1393
   91SAPS  H14X 8929   4.362   5.995   8.284  0.4946 -1.4896  0.0472
   91SAPS  H14Y 8930   4.267   5.851   8.324  0.9561 -0.1734 -1.7177
   91SAPS  C315 8931   4.243   6.024   8.465 -0.5619 -0.0136  0.1932
   91SAPS  H15X 8932   4.141   6.002   8.502 -1.5511 -0.6819 -2.6500
   91SAPS  H15Y 8933   4.246   6.133   8.445 -0.4736 -0.0517 -0.0070
   91SAPS  C316 8934   4.367   6.001   8.552 -0.5518  0.4200  0.6409
   91SAPS  H16X 8935   4.397   5.895   8.537  1.1724  0.8816  0.6966
   91SAPS  H16Y 8936   4.318   6.013   8.651 -0.0608 -2.4307  1.3199
   91SAPS  C317 8937   4.492   6.085   8.534 -0.4029  0.1777 -0.1114
   91SAPS  H17X 8938   4.488   6.194   8.554  2.9573  0.7001 -1.5238
   91SAPS  H17Y 8939   4.519   6.070   8.427 -0.0367 -0.8253  0.1110
   91SAPS  C318 8940   4.611   6.027   8.619  0.5197  0.1745  0.0555
   91SAPS  H18X 8941   4.697   6.098   8.623  1.0181 -0.4559  0.7656
   91SAPS  H18Y 8942   4.626   5.924   8.581 -1.9239 -1.2056  2.4822
   91SAPS  H18Z 8943   4.569   6.018   8.722  2.1429 -3.6455  0.5513
   92SAPS     N 8944   4.578   4.693   6.145  0.2569  0.2045  0.1596
   92SAPS   HN1 8945   4.552   4.714   6.047  1.4833 -1.6928 -0.6314
   92SAPS   HN2 8946   4.506   4.623   6.172 -3.1438  3.6916  1.0825
   92SAPS   HN3 8947   4.571   4.782   6.200  1.8111  0.9696 -0.7980
   92SAPS   C12 8948   4.719   4.647   6.156  0.6262 -1.2977 -0.7047
   92SAPS  H12A 8949   4.719   4.577   6.239 -1.4945 -0.0128  0.4864
   92SAPS   C13 8950   4.778   4.571   6.038  1.0204  0.0384  0.1751
   92SAPS  O13A 8951   4.702   4.562   5.940  0.1101 -1.0989  0.3756
   92SAPS  O13B 8952   4.893   4.517   6.055  0.1852 -0.4627 -0.0078
   92SAPS   C11 8953   4.814   4.771   6.187 -0.1945 -0.0661  0.5313
   92SAPS  H11A 8954   4.823   4.842   6.102 -1.3523 -0.1617  0.3017
   92SAPS  H11B 8955   4.913   4.724   6.198  0.3761  0.7470 -0.8659
   92SAPS     P 8956   4.813   4.782   6.446 -0.3342 -0.0898  0.3290
   92SAPS   O13 8957   4.938   4.708   6.430 -0.4343 -0.9157  0.2276
   92SAPS   O14 8958   4.809   4.882   6.556 -0.2219 -0.1442  0.8443
   92SAPS   O12 8959   4.777   4.843   6.308 -0.0769 -0.0597 -0.0900
   92SAPS   O11 8960   4.702   4.669   6.473 -0.3900 -0.1272 -0.8776
   92SAPS    C1 8961   4.571   4.718   6.505 -0.5020  0.4293  0.3169
   92SAPS    HA 8962   4.542   4.811   6.452 -1.7108 -1.1231 -1.8814
   92SAPS    HB 8963   4.501   4.636   6.479  0.7090 -0.3354 -0.6552
   92SAPS    C2 8964   4.553   4.733   6.665  0.0027 -0.1425 -0.3685
   92SAPS    HS 8965   4.614   4.824   6.681 -1.0059  0.9049 -2.2382
   92SAPS   O21 8966   4.599   4.616   6.733  0.1819 -0.0156 -0.2675
   92SAPS   C21 8967   4.650   4.631   6.854 -0.4325 -0.5032  0.4026
   92SAPS   O22 8968   4.659   4.741   6.907 -0.0291  0.3349 -0.2192
   92SAPS   C22 8969   4.716   4.500   6.897  0.3190 -0.3252  0.0832
   92SAPS   H2R 8970   4.641   4.424   6.870  2.1282 -1.1513 -3.1250
   92SAPS   H2S 8971   4.807   4.485   6.834  1.8079  0.7285  1.8907
   92SAPS    C3 8972   4.401   4.766   6.707 -0.6351  0.1892 -0.1626
   92SAPS    HX 8973   4.346   4.678   6.667  0.3814 -0.3537 -0.3892
   92SAPS    HY 8974   4.359   4.848   6.645  1.3036 -0.0092 -1.8526
   92SAPS   O31 8975   4.376   4.805   6.846 -0.6751  0.2867 -0.2214
   92SAPS   C31 8976   4.348   4.698   6.919  0.2278 -0.3096  0.5587
   92SAPS   O32 8977   4.358   4.585   6.885  0.1835  0.5114  0.6554
   92SAPS   C32 8978   4.316   4.738   7.062  0.1029  0.9274 -0.0111
   92SAPS   H2X 8979   4.234   4.813   7.050  0.2867  1.1540  0.1355
   92SAPS   H2Y 8980   4.394   4.794   7.119  0.0058  2.0438 -0.9323
   92SAPS   C23 8981   4.756   4.500   7.045 -0.0280 -0.3906  0.3645
   92SAPS   H3R 8982   4.819   4.589   7.065 -2.1452  1.0893  0.7609
   92SAPS   H3S 8983   4.826   4.414   7.054 -0.4861 -0.9586 -1.1647
   92SAPS   C24 8984   4.641   4.495   7.150  0.5475  0.9311  0.2664
   92SAPS   H4R 8985   4.598   4.392   7.145  2.8870 -0.1492  0.7399
   92SAPS   H4S 8986   4.563   4.560   7.106  0.7410  0.5709 -0.6193
   92SAPS   C25 8987   4.665   4.539   7.293  0.2312 -0.8321 -0.1836
   92SAPS   H5R 8988   4.667   4.648   7.306 -2.7122 -0.3949 -2.3840
   92SAPS   C26 8989   4.712   4.465   7.392  0.4997 -0.5640 -0.1792
   92SAPS   H6R 8990   4.713   4.506   7.494  1.0233 -0.7116 -0.1245
   92SAPS   C27 8991   4.745   4.318   7.381  0.8836 -0.5238  0.4296
   92SAPS   H7R 8992   4.848   4.310   7.422  1.1444  2.8875  0.6963
   92SAPS   H7S 8993   4.764   4.274   7.281  2.3170 -5.0111  2.3855
   92SAPS   C28 8994   4.659   4.231   7.463 -0.0391 -0.0053  0.1521
   92SAPS   H8R 8995   4.607   4.156   7.402  1.6729 -2.1201  1.1719
   92SAPS   C29 8996   4.650   4.217   7.594 -0.0130 -0.8879 -0.5847
   92SAPS   H9R 8997   4.573   4.148   7.632  1.0448 -1.1147  1.2313
   92SAPS  C210 8998   4.717   4.290   7.706 -0.6213  0.3723  0.2850
   92SAPS  H10R 8999   4.800   4.341   7.653 -0.9025  1.6811  1.0644
   92SAPS  H10S 9000   4.755   4.218   7.781 -2.5286  0.5802  1.5216
   92SAPS  C211 9001   4.659   4.410   7.780 -0.1302 -0.2038 -0.1779
   92SAPS  H11R 9002   4.611   4.491   7.723 -2.0539 -0.5314  0.8965
   92SAPS  C212 9003   4.645   4.430   7.911 -0.3926 -0.4446  0.3508
   92SAPS  H12R 9004   4.604   4.530   7.932 -0.3615 -0.5447  0.9033
   92SAPS  C213 9005   4.677   4.344   8.030  0.0865 -0.8222  1.3443
   92SAPS  H13R 9006   4.744   4.261   8.003 -0.2751 -0.3975 -1.0165
   92SAPS  H13S 9007   4.587   4.295   8.073 -2.4524 -1.3035 -3.7754
   92SAPS  C214 9008   4.761   4.421   8.131  0.5016 -0.1934 -0.6527
   92SAPS  H14R 9009   4.865   4.439   8.100  0.7312 -0.3588  0.0087
   92SAPS  C215 9010   4.719   4.467   8.249 -0.1502  0.3396  0.4200
   92SAPS  H15R 9011   4.789   4.517   8.317  2.4228 -1.4508 -0.7669
   92SAPS  C216 9012   4.579   4.441   8.305  0.0387  0.1988 -1.6926
   92SAPS  H16R 9013   4.580   4.351   8.370 -4.6418  1.5993  0.8114
   92SAPS  H16S 9014   4.498   4.428   8.231 -0.2467  1.9096 -1.7304
   92SAPS  C217 9015   4.525   4.555   8.402 -0.0122 -0.0952  0.1470
   92SAPS  H17R 9016   4.604   4.558   8.480  1.9228 -0.1119 -1.7307
   92SAPS  H17S 9017   4.426   4.514   8.432 -0.3939  1.5699  1.2891
   92SAPS  C218 9018   4.494   4.687   8.336  0.5122 -0.0839  0.5617
   92SAPS  H18R 9019   4.410   4.671   8.265  0.5304 -1.3493  0.7989
   92SAPS  H18S 9020   4.578   4.709   8.266 -1.2415 -0.8422 -1.9227
   92SAPS  C219 9021   4.459   4.805   8.427  0.3525 -0.2910 -0.0080
   92SAPS  H19R 9022   4.389   4.880   8.384 -0.3720 -0.8803  0.1222
   92SAPS  H19S 9023   4.546   4.859   8.468 -1.4412  4.3913 -1.6373
   92SAPS  C220 9024   4.386   4.762   8.556  0.0561  0.6813 -0.3380
   92SAPS  H20R 9025   4.452   4.706   8.625  2.4321  0.1468 -2.8548
   92SAPS  H20S 9026   4.288   4.711   8.538  0.6486  0.0940 -2.1531
   92SAPS  H20T 9027   4.364   4.858   8.606  0.5279  0.5263  0.1658
   92SAPS   C33 9028   4.275   4.614   7.152  0.0052  0.2123 -0.5943
   92SAPS   H3X 9029   4.331   4.529   7.108  0.6364  2.0448 -3.6682
   92SAPS   H3Y 9030   4.170   4.582   7.135  0.1203 -0.7995  0.4892
   92SAPS   C34 9031   4.308   4.614   7.304  0.1000 -0.1402  0.8954
   92SAPS   H4X 9032   4.253   4.703   7.342 -1.3093 -0.6451  0.1111
   92SAPS   H4Y 9033   4.417   4.631   7.318 -0.1036  0.7028  1.5010
   92SAPS   C35 9034   4.270   4.496   7.382  0.3707  0.0412  0.0666
   92SAPS   H5X 9035   4.304   4.404   7.329  1.3891  1.4640 -1.8754
   92SAPS   H5Y 9036   4.160   4.497   7.394  0.0943  1.7313 -2.0176
   92SAPS   C36 9037   4.328   4.497   7.527 -0.0291 -0.5027  0.3692
   92SAPS   H6X 9038   4.305   4.598   7.566 -2.4282 -1.3514  1.2725
   92SAPS   H6Y 9039   4.439   4.489   7.529  0.1245 -1.0877 -3.1954
   92SAPS   C37 9040   4.266   4.378   7.611 -1.0393 -0.2931  0.0116
   92SAPS   H7X 9041   4.294   4.285   7.557 -0.3685 -0.2823  0.3304
   92SAPS   H7Y 9042   4.156   4.372   7.595 -0.8347 -1.2700 -1.1317
   92SAPS   C38 9043   4.301   4.376   7.765  0.1041 -0.2407 -0.4062
   92SAPS   H8X 9044   4.396   4.432   7.779  0.0130  1.2277 -4.4310
   92SAPS   H8Y 9045   4.323   4.270   7.788 -0.0058 -0.3592 -0.8359
   92SAPS   C39 9046   4.193   4.442   7.858 -0.1964  0.0179  0.1512
   92SAPS   H9X 9047   4.099   4.384   7.853 -0.3195  0.3409 -2.4853
   92SAPS   H9Y 9048   4.181   4.545   7.818 -0.3347  0.4159  1.1799
   92SAPS  C310 9049   4.248   4.444   8.000  0.2765  0.2272  0.2778
   92SAPS  H10X 9050   4.330   4.519   7.995  0.4939 -0.0527 -3.3491
   92SAPS  H10Y 9051   4.287   4.346   8.032  1.7895  0.6763 -0.1123
   92SAPS  C311 9052   4.134   4.487   8.100 -0.4384  0.0423 -0.0132
   92SAPS  H11X 9053   4.038   4.443   8.063 -0.7896 -1.0283  2.0508
   92SAPS  H11Y 9054   4.119   4.597   8.106  0.7880  0.1281  2.3750
   92SAPS  C312 9055   4.164   4.455   8.248 -0.2076  0.5037  0.0010
   92SAPS  H12X 9056   4.264   4.500   8.264  0.4808 -1.4725  1.5831
   92SAPS  H12Y 9057   4.174   4.345   8.240 -3.3739  0.1503 -0.6617
   92SAPS  C313 9058   4.062   4.504   8.356 -0.2947 -0.3378  0.4211
   92SAPS  H13X 9059   3.965   4.452   8.339  0.3378 -0.7422 -2.5906
   92SAPS  H13Y 9060   4.044   4.613   8.351  0.1596 -0.3088 -1.1463
   92SAPS  C314 9061   4.125   4.462   8.489  0.4837 -0.0803  0.0559
   92SAPS  H14X 9062   4.224   4.514   8.492 -0.2092  1.4484 -1.5218
   92SAPS  H14Y 9063   4.143   4.353   8.490  1.4437  0.0459 -1.1924
   92SAPS  C315 9064   4.045   4.503   8.616 -0.3531  0.1886 -0.2266
   92SAPS  H15X 9065   3.942   4.463   8.614 -0.1388 -0.3473 -1.7265
   92SAPS  H15Y 9066   4.028   4.613   8.604  1.1243  0.3009 -1.6522
   92SAPS  C316 9067   4.120   4.480   8.750  0.3044 -0.2971 -0.9149
   92SAPS  H16X 9068   4.040   4.517   8.818  0.1100 -2.2070 -0.0440
   92SAPS  H16Y 9069   4.205   4.551   8.749 -1.1026  1.4675 -1.5101
   92SAPS  C317 9070   4.160   4.346   8.790 -0.0661 -0.2464 -0.1337
   92SAPS  H17X 9071   4.227   4.299   8.715  1.0404  0.1450  0.5774
   92SAPS  H17Y 9072   4.070   4.282   8.789  0.0839 -0.5686 -3.4195
   92SAPS  C318 9073   4.226   4.341   8.933 -0.3687 -0.0852  0.0800
   92SAPS  H18X 9074   4.327   4.385   8.922 -1.3591  2.3945  0.1813
   92SAPS  H18Y 9075   4.236   4.235   8.966 -0.8333 -0.4735 -0.9809
   92SAPS  H18Z 9076   4.177   4.398   9.015  1.0446 -1.8487  2.2639
   93SAPS     N 9077   5.819   4.760   6.468 -0.3482 -0.5106 -0.0185
   93SAPS   HN1 9078   5.860   4.665   6.472  1.6402  0.2699 -0.3895
   93SAPS   HN2 9079   5.853   4.820   6.546 -1.8813 -0.9059  0.9956
   93SAPS   HN3 9080   5.716   4.751   6.474 -0.2468 -1.6022  0.2790
   93SAPS   C12 9081   5.862   4.828   6.340  0.4677  0.4408 -0.2208
   93SAPS  H12A 9082   5.970   4.834   6.350  0.3333  0.5024  1.5718
   93SAPS   C13 9083   5.838   4.751   6.209  0.2893 -0.7356  0.3759
   93SAPS  O13A 9084   5.822   4.627   6.204  0.2829  0.1615  0.1001
   93SAPS  O13B 9085   5.863   4.816   6.102 -0.2532 -0.1463  0.3383
   93SAPS   C11 9086   5.802   4.972   6.322 -0.2545  0.3178  0.1142
   93SAPS  H11A 9087   5.696   4.969   6.287  0.3682  0.9642 -1.9935
   93SAPS  H11B 9088   5.863   5.013   6.239 -1.6768  3.3728  0.4364
   93SAPS     P 9089   5.772   5.199   6.456  0.1003  0.1930 -0.1016
   93SAPS   O13 9090   5.904   5.256   6.468 -0.7240 -0.3334  0.7969
   93SAPS   O14 9091   5.692   5.238   6.339 -0.3987 -0.3054  0.2748
   93SAPS   O12 9092   5.802   5.044   6.444 -0.3342 -0.4099 -0.0991
   93SAPS   O11 9093   5.678   5.212   6.580  0.2826 -0.0035  0.4210
   93SAPS    C1 9094   5.559   5.128   6.591  0.1268  0.4878 -0.3546
   93SAPS    HA 9095   5.477   5.151   6.520  0.4837  1.1054 -0.5726
   93SAPS    HB 9096   5.590   5.023   6.567  0.3327  0.3006  0.6942
   93SAPS    C2 9097   5.487   5.136   6.723  0.0760  0.1945  0.0157
   93SAPS    HS 9098   5.393   5.078   6.712 -0.8112  1.9838 -2.8674
   93SAPS   O21 9099   5.468   5.271   6.766  0.1522 -0.5753  0.0629
   93SAPS   C21 9100   5.364   5.334   6.704 -0.8905  0.1123 -0.1365
   93SAPS   O22 9101   5.296   5.286   6.621  0.5090 -0.2620  0.1775
   93SAPS   C22 9102   5.362   5.479   6.752  0.3635  0.1510  0.5885
   93SAPS   H2R 9103   5.380   5.538   6.660  3.5005 -3.5885 -1.4501
   93SAPS   H2S 9104   5.259   5.498   6.790  0.5775  1.5127  0.5549
   93SAPS    C3 9105   5.562   5.057   6.831  0.0358 -0.4283 -0.7471
   93SAPS    HX 9106   5.664   5.100   6.842 -0.5154  0.7247  0.1120
   93SAPS    HY 9107   5.573   4.948   6.811  1.5690 -0.4024 -0.1924
   93SAPS   O31 9108   5.492   5.067   6.956  0.0396  0.2892 -0.0288
   93SAPS   C31 9109   5.530   5.162   7.039  0.7281 -0.6395  0.4477
   93SAPS   O32 9110   5.611   5.248   7.019  0.0090  0.2161 -0.1803
   93SAPS   C32 9111   5.458   5.143   7.170  0.7008  0.3171 -0.6142
   93SAPS   H2X 9112   5.462   5.032   7.181 -0.6140  0.4634  2.6011
   93SAPS   H2Y 9113   5.351   5.174   7.163  0.8116  1.3748  1.4760
   93SAPS   C23 9114   5.461   5.527   6.863 -0.0272  0.1104  0.3949
   93SAPS   H3R 9115   5.567   5.529   6.830  0.4873 -0.2170  1.9113
   93SAPS   H3S 9116   5.460   5.453   6.946  0.8169  1.1580  1.3867
   93SAPS   C24 9117   5.426   5.668   6.916  0.0486 -0.0826  0.6649
   93SAPS   H4R 9118   5.427   5.736   6.828 -1.0835 -0.8233  0.0591
   93SAPS   H4S 9119   5.518   5.694   6.973  0.2527 -0.5174  0.5364
   93SAPS   C25 9120   5.305   5.673   6.999 -0.0825 -0.1384 -0.4127
   93SAPS   H5R 9121   5.212   5.644   6.948 -0.5899  2.6604 -1.2668
   93SAPS   C26 9122   5.308   5.689   7.128 -0.5593 -0.3185 -0.3553
   93SAPS   H6R 9123   5.208   5.697   7.173 -1.4034  1.8307 -2.4206
   93SAPS   C27 9124   5.413   5.711   7.232  0.0130  0.0526 -0.2068
   93SAPS   H7R 9125   5.406   5.806   7.290 -0.6783  0.4426 -0.9027
   93SAPS   H7S 9126   5.509   5.700   7.179  1.4398  0.1905  2.2112
   93SAPS   C28 9127   5.421   5.595   7.320 -0.4111  0.1159 -0.4997
   93SAPS   H8R 9128   5.418   5.498   7.269 -0.5816 -0.8965  1.3325
   93SAPS   C29 9129   5.463   5.589   7.448  0.3436 -0.0502  0.4651
   93SAPS   H9R 9130   5.464   5.497   7.509 -0.3167  0.8915  1.9535
   93SAPS  C210 9131   5.510   5.701   7.532 -0.0461  0.0464 -0.1493
   93SAPS  H10R 9132   5.518   5.792   7.469  0.1016  0.4453  0.4306
   93SAPS  H10S 9133   5.613   5.690   7.572  0.4010 -0.7015 -1.4741
   93SAPS  C211 9134   5.412   5.738   7.644  0.3006 -0.0538  0.1847
   93SAPS  H11R 9135   5.347   5.824   7.621  0.1493 -0.1418  0.2799
   93SAPS  C212 9136   5.400   5.692   7.768  0.0345 -0.1048  0.4257
   93SAPS  H12R 9137   5.327   5.740   7.836  2.1010  1.3032  1.7766
   93SAPS  C213 9138   5.466   5.577   7.838  0.3734 -0.5945  0.0289
   93SAPS  H13R 9139   5.563   5.563   7.784 -1.1097 -0.2855 -2.9188
   93SAPS  H13S 9140   5.407   5.486   7.813  0.2860 -0.5827  0.1946
   93SAPS  C214 9141   5.491   5.614   7.985  0.4747  0.4634  0.1303
   93SAPS  H14R 9142   5.592   5.654   8.004  0.5734 -0.0859  0.8040
   93SAPS  C215 9143   5.403   5.609   8.086  0.7718 -0.1184 -0.3700
   93SAPS  H15R 9144   5.423   5.637   8.190 -1.9552 -1.0499  0.5021
   93SAPS  C216 9145   5.254   5.555   8.076  0.5815 -0.3163  0.0233
   93SAPS  H16R 9146   5.247   5.454   8.122  2.2910 -0.2979  0.4113
   93SAPS  H16S 9147   5.224   5.527   7.973 -0.0061 -1.2865  0.4387
   93SAPS  C217 9148   5.143   5.650   8.126  0.7211 -0.4137  0.0196
   93SAPS  H17R 9149   5.041   5.628   8.086  1.1740 -0.0173 -1.4120
   93SAPS  H17S 9150   5.178   5.750   8.092 -0.9618  1.2311  2.7844
   93SAPS  C218 9151   5.127   5.642   8.279 -0.5236 -0.1273  0.7122
   93SAPS  H18R 9152   5.077   5.739   8.299 -0.5797 -0.4101  2.0147
   93SAPS  H18S 9153   5.228   5.627   8.323 -0.0543 -1.7205 -0.7815
   93SAPS  C219 9154   5.034   5.533   8.320  0.4805 -0.0207  0.0221
   93SAPS  H19R 9155   5.069   5.430   8.299  1.9928  0.8119 -1.8639
   93SAPS  H19S 9156   4.945   5.538   8.254  2.2001  0.4556 -2.4013
   93SAPS  C220 9157   4.987   5.539   8.473  0.1820  0.0705 -0.1285
   93SAPS  H20R 9158   4.928   5.630   8.498  0.0422 -0.4116  1.3828
   93SAPS  H20S 9159   5.067   5.531   8.549 -0.5103 -2.0440  0.4623
   93SAPS  H20T 9160   4.917   5.452   8.471 -2.7508  2.2582 -2.3419
   93SAPS   C33 9161   5.527   5.203   7.290  0.2254  0.0162  0.7268
   93SAPS   H3X 9162   5.524   5.314   7.284 -0.7781 -0.0231  0.4476
   93SAPS   H3Y 9163   5.630   5.161   7.291 -0.6852 -2.5783 -1.5217
   93SAPS   C34 9164   5.467   5.166   7.430 -0.3832  0.1338 -0.6023
   93SAPS   H4X 9165   5.426   5.063   7.436  1.4450 -0.5393  2.7390
   93SAPS   H4Y 9166   5.387   5.243   7.439  0.4602  0.9989 -0.2503
   93SAPS   C35 9167   5.555   5.187   7.546 -0.2419 -0.8241 -0.0010
   93SAPS   H5X 9168   5.594   5.291   7.546 -0.2299 -0.8091 -1.4959
   93SAPS   H5Y 9169   5.639   5.114   7.553 -0.4563 -1.3452 -2.3299
   93SAPS   C36 9170   5.473   5.172   7.677 -0.3833  0.8559 -0.2778
   93SAPS   H6X 9171   5.437   5.067   7.686  1.8331  0.2507  4.0659
   93SAPS   H6Y 9172   5.392   5.247   7.663 -0.5551  0.5739 -0.8422
   93SAPS   C37 9173   5.547   5.214   7.800  0.3400  0.1237 -0.6752
   93SAPS   H7X 9174   5.576   5.320   7.784 -3.4773  1.2981 -0.7208
   93SAPS   H7Y 9175   5.643   5.157   7.804 -0.2634 -0.8356  1.0770
   93SAPS   C38 9176   5.466   5.199   7.926  0.0213  0.1547 -0.1310
   93SAPS   H8X 9177   5.437   5.092   7.927  0.0267  0.1595  0.6051
   93SAPS   H8Y 9178   5.379   5.266   7.909  1.7566  2.5417 -0.1909
   93SAPS   C39 9179   5.544   5.233   8.055  0.5141  0.0835 -0.0273
   93SAPS   H9X 9180   5.465   5.264   8.126  0.5778  0.1834  0.0007
   93SAPS   H9Y 9181   5.604   5.322   8.024  0.1081  0.3124 -0.1638
   93SAPS  C310 9182   5.630   5.118   8.101  0.0346 -0.3177  0.6478
   93SAPS  H10X 9183   5.707   5.098   8.023 -0.1152  0.9759  0.1575
   93SAPS  H10Y 9184   5.575   5.022   8.112  0.1043 -0.8558 -2.8376
   93SAPS  C311 9185   5.707   5.148   8.235  0.0554  0.1761  0.3778
   93SAPS  H11X 9186   5.625   5.187   8.299 -0.5292 -1.1938  0.5167
   93SAPS  H11Y 9187   5.781   5.229   8.220  0.1549 -0.0467 -0.3577
   93SAPS  C312 9188   5.755   5.031   8.302 -0.3842  0.0976  0.1362
   93SAPS  H12X 9189   5.688   4.950   8.266  0.8729 -1.3745  0.9908
   93SAPS  H12Y 9190   5.754   5.054   8.410  2.2695 -0.1994  0.2809
   93SAPS  C313 9191   5.896   4.978   8.265  0.3565 -0.1267 -0.6472
   93SAPS  H13X 9192   5.968   5.060   8.286  0.3248 -0.6593  1.8011
   93SAPS  H13Y 9193   5.905   4.960   8.155  1.6123 -2.1385 -0.2659
   93SAPS  C314 9194   5.933   4.847   8.343 -1.2334 -0.0109  0.0621
   93SAPS  H14X 9195   5.856   4.768   8.350 -2.3716  1.0122 -0.5169
   93SAPS  H14Y 9196   5.953   4.872   8.449 -0.9519 -0.2293  0.0624
   93SAPS  C315 9197   6.063   4.784   8.285  0.5569 -0.3173 -0.3404
   93SAPS  H15X 9198   6.115   4.860   8.224  0.4674 -1.6971 -2.2369
   93SAPS  H15Y 9199   6.027   4.712   8.209 -0.2866 -0.1809 -0.0829
   93SAPS  C316 9200   6.156   4.732   8.396 -0.0843 -0.1804  0.4660
   93SAPS  H16X 9201   6.091   4.682   8.471 -1.2486  0.7943  0.1354
   93SAPS  H16Y 9202   6.196   4.821   8.451  0.7210 -1.0967  1.4083
   93SAPS  C317 9203   6.261   4.637   8.343  0.2377 -0.4851 -0.7677
   93SAPS  H17X 9204   6.335   4.695   8.284  2.0428 -0.5776  1.2835
   93SAPS  H17Y 9205   6.207   4.562   8.280  1.1817  0.2517 -2.5187
   93SAPS  C318 9206   6.338   4.570   8.455  0.3805  0.8671 -0.4851
   93SAPS  H18X 9207   6.277   4.492   8.505 -1.3377  2.2900 -0.2587
   93SAPS  H18Y 9208   6.378   4.642   8.529 -0.7203 -0.6957  1.7354
   93SAPS  H18Z 9209   6.420   4.506   8.416  0.4617  0.9265 -0.4116
   94SAPS     N 9210   3.776   5.908   5.641 -0.2150 -0.4877  0.4342
   94SAPS   HN1 9211   3.779   5.992   5.702  2.6215  1.5395 -2.2352
   94SAPS   HN2 9212   3.736   5.939   5.550  0.6556  0.5534  0.3951
   94SAPS   HN3 9213   3.720   5.826   5.675 -1.5196  0.1385 -0.1239
   94SAPS   C12 9214   3.918   5.865   5.602  0.3539 -0.1191 -0.0968
   94SAPS  H12A 9215   3.909   5.789   5.526 -0.5805  0.2748 -0.3998
   94SAPS   C13 9216   3.998   5.983   5.541 -0.1554  0.3275  0.1529
   94SAPS  O13A 9217   3.963   6.101   5.557  0.3243  0.4580  0.0982
   94SAPS  O13B 9218   4.083   5.954   5.458 -0.2929  0.2354 -0.3439
   94SAPS   C11 9219   3.990   5.822   5.733 -0.2887 -0.2599  0.0077
   94SAPS  H11A 9220   3.997   5.903   5.809 -2.6522  0.6699 -0.6698
   94SAPS  H11B 9221   4.096   5.803   5.705  0.3733 -0.5158  2.3937
   94SAPS     P 9222   4.021   5.607   5.892 -0.2464  0.0879  0.1972
   94SAPS   O13 9223   3.940   5.482   5.904  0.0277 -0.0518 -0.4615
   94SAPS   O14 9224   4.156   5.594   5.841  0.3680 -0.0321  0.3143
   94SAPS   O12 9225   3.942   5.710   5.801  0.3437  0.1216  0.0953
   94SAPS   O11 9226   4.028   5.680   6.028  0.0273  0.4836  0.4242
   94SAPS    C1 9227   3.902   5.744   6.069 -1.0815 -0.0145  0.0992
   94SAPS    HA 9228   3.867   5.824   6.000 -1.3421  0.1520  0.4231
   94SAPS    HB 9229   3.823   5.668   6.087  1.9192 -2.9950  1.7499
   94SAPS    C2 9230   3.924   5.812   6.204  0.1954 -0.3415 -0.2796
   94SAPS    HS 9231   3.829   5.866   6.226  0.1908 -0.7368  0.7151
   94SAPS   O21 9232   4.033   5.905   6.190  0.1123 -0.2946 -1.2021
   94SAPS   C21 9233   4.024   6.011   6.108  1.3758 -0.0649 -0.2939
   94SAPS   O22 9234   3.921   6.052   6.057 -0.4500 -0.4856  0.4721
   94SAPS   C22 9235   4.154   6.071   6.091  0.0889  0.5654  0.2087
   94SAPS   H2R 9236   4.212   6.060   6.186 -1.2808 -1.1252  0.8935
   94SAPS   H2S 9237   4.211   6.019   6.011 -0.1703  1.7539 -0.7862
   94SAPS    C3 9238   3.955   5.703   6.316  0.0171 -0.7613 -0.1232
   94SAPS    HX 9239   4.025   5.628   6.274  0.9143  0.7657 -1.4773
   94SAPS    HY 9240   3.864   5.652   6.354  0.0658 -1.1499 -0.5271
   94SAPS   O31 9241   4.012   5.769   6.426  0.2858 -0.4157 -0.8184
   94SAPS   C31 9242   4.137   5.759   6.466  0.1005 -0.5314  0.1034
   94SAPS   O32 9243   4.228   5.695   6.412  0.1643  0.1665  0.2263
   94SAPS   C32 9244   4.145   5.821   6.604 -0.5266  0.5527  0.0035
   94SAPS   H2X 9245   4.046   5.817   6.653 -1.2758  0.2962 -1.4932
   94SAPS   H2Y 9246   4.163   5.928   6.580  4.1898 -0.1864 -0.7282
   94SAPS   C23 9247   4.151   6.220   6.046  0.7992 -0.5179  0.0365
   94SAPS   H3R 9248   4.091   6.233   5.953 -2.3409 -0.1580  1.9683
   94SAPS   H3S 9249   4.257   6.240   6.022  0.4589 -1.0574 -2.1435
   94SAPS   C24 9250   4.107   6.320   6.157  0.1917 -0.2302 -0.7641
   94SAPS   H4R 9251   3.997   6.314   6.165  0.2377 -2.8878 -1.2322
   94SAPS   H4S 9252   4.133   6.424   6.124  0.5251 -0.4042 -1.0647
   94SAPS   C25 9253   4.171   6.296   6.296 -0.1466 -0.1482 -0.6723
   94SAPS   H5R 9254   4.157   6.192   6.330 -1.3599  0.0332 -0.5976
   94SAPS   C26 9255   4.220   6.389   6.383  0.1456 -0.4405  0.7502
   94SAPS   H6R 9256   4.263   6.358   6.479 -0.8482 -2.4142  0.6206
   94SAPS   C27 9257   4.234   6.536   6.348 -0.0344 -0.4553 -0.0461
   94SAPS   H7R 9258   4.216   6.605   6.433  2.5692 -0.2208  0.3993
   94SAPS   H7S 9259   4.151   6.565   6.280  0.9295  1.5707 -0.4535
   94SAPS   C28 9260   4.374   6.580   6.306  0.6855  0.0407 -0.4510
   94SAPS   H8R 9261   4.388   6.585   6.197  1.9347 -1.4197 -0.3771
   94SAPS   C29 9262   4.479   6.612   6.394  0.5497  0.2284  0.0023
   94SAPS   H9R 9263   4.579   6.640   6.360  0.2251  0.9350 -0.3799
   94SAPS  C210 9264   4.470   6.615   6.551  0.2055 -0.0922 -0.4888
   94SAPS  H10R 9265   4.366   6.593   6.581  0.9558 -4.0234 -0.2646
   94SAPS  H10S 9266   4.490   6.715   6.594 -2.5914  0.1456  0.4500
   94SAPS  C211 9267   4.566   6.515   6.617  0.8977 -0.2273  0.2468
   94SAPS  H11R 9268   4.651   6.490   6.552  1.1364  0.2411  0.3714
   94SAPS  C212 9269   4.566   6.471   6.743  0.3017 -0.0346 -0.3480
   94SAPS  H12R 9270   4.638   6.395   6.775 -0.5942 -0.4314  0.8191
   94SAPS  C213 9271   4.468   6.525   6.851  1.2392  0.1624 -0.2376
   94SAPS  H13R 9272   4.438   6.626   6.815  2.9061 -0.0469 -2.4288
   94SAPS  H13S 9273   4.512   6.541   6.952 -1.0398  1.3993  0.6530
   94SAPS  C214 9274   4.342   6.441   6.862 -0.5350 -0.5532  0.4857
   94SAPS  H14R 9275   4.297   6.415   6.765 -0.7642  0.8289  0.1996
   94SAPS  C215 9276   4.282   6.390   6.969  0.5545 -0.1709  0.3085
   94SAPS  H15R 9277   4.188   6.337   6.948  0.1566  0.0285  1.5279
   94SAPS  C216 9278   4.320   6.409   7.115 -0.2398  0.2439  0.7485
   94SAPS  H16R 9279   4.403   6.480   7.135 -1.8736  2.0746  1.4248
   94SAPS  H16S 9280   4.341   6.305   7.147 -0.7278  0.3296  1.3655
   94SAPS  C217 9281   4.187   6.455   7.185 -0.6035 -0.1995  0.3014
   94SAPS  H17R 9282   4.107   6.382   7.160 -1.1364  0.6934 -0.6961
   94SAPS  H17S 9283   4.152   6.542   7.125 -0.5212 -0.5214 -0.2252
   94SAPS  C218 9284   4.216   6.486   7.333  1.5089  0.6670  0.0703
   94SAPS  H18R 9285   4.124   6.530   7.379  1.1851  0.1339 -0.0551
   94SAPS  H18S 9286   4.295   6.564   7.335  1.7582  0.4151  0.0046
   94SAPS  C219 9287   4.253   6.358   7.410  0.0783  0.4991  0.8298
   94SAPS  H19R 9288   4.348   6.319   7.369 -0.0790 -1.1545  1.9654
   94SAPS  H19S 9289   4.168   6.287   7.408 -1.5654  2.3635 -0.3672
   94SAPS  C220 9290   4.275   6.381   7.553 -0.3177  0.2282 -0.3382
   94SAPS  H20R 9291   4.359   6.453   7.562  1.1741 -1.2970 -1.2920
   94SAPS  H20S 9292   4.301   6.294   7.618 -0.7719  0.2642 -0.1062
   94SAPS  H20T 9293   4.180   6.428   7.586 -0.2680 -0.1640  0.3950
   94SAPS   C33 9294   4.256   5.768   6.687  0.4255  0.0589 -0.3921
   94SAPS   H3X 9295   4.358   5.794   6.652  1.2111 -0.4295  1.4084
   94SAPS   H3Y 9296   4.248   5.657   6.683 -0.8293  0.1063  0.2255
   94SAPS   C34 9297   4.245   5.826   6.832 -0.0665 -0.8546  0.3766
   94SAPS   H4X 9298   4.141   5.805   6.864 -0.0906 -2.0748 -0.4123
   94SAPS   H4Y 9299   4.260   5.935   6.820  0.8600 -1.2084 -2.5692
   94SAPS   C35 9300   4.346   5.789   6.936 -0.5900  0.1630 -0.0799
   94SAPS   H5X 9301   4.443   5.827   6.897 -1.6592  3.3268  0.0636
   94SAPS   H5Y 9302   4.348   5.678   6.949  0.8440 -0.2107 -2.8552
   94SAPS   C36 9303   4.330   5.871   7.066  0.9272  0.0726 -0.4977
   94SAPS   H6X 9304   4.223   5.859   7.090  1.2541 -2.2073  0.0441
   94SAPS   H6Y 9305   4.349   5.977   7.038 -1.4361  0.8154  0.4857
   94SAPS   C37 9306   4.429   5.818   7.177  0.8726  0.0560  0.0938
   94SAPS   H7X 9307   4.524   5.870   7.153  0.7408  0.3629  0.2275
   94SAPS   H7Y 9308   4.428   5.707   7.181 -2.1491 -0.0173 -0.4260
   94SAPS   C38 9309   4.370   5.867   7.314  0.2217  0.1327  0.3280
   94SAPS   H8X 9310   4.270   5.821   7.325 -1.4493  2.3417 -3.5703
   94SAPS   H8Y 9311   4.358   5.977   7.316  1.8813  0.3392  2.0682
   94SAPS   C39 9312   4.454   5.828   7.436  0.0994 -0.4916  0.7906
   94SAPS   H9X 9313   4.558   5.865   7.419  0.7378 -1.9592  1.3266
   94SAPS   H9Y 9314   4.463   5.717   7.442 -0.4105 -0.5439  0.5675
   94SAPS  C310 9315   4.397   5.864   7.571  0.0910 -0.0963 -0.5929
   94SAPS  H10X 9316   4.294   5.824   7.581  0.0201 -0.5464 -2.7641
   94SAPS  H10Y 9317   4.379   5.973   7.578  2.4716  0.3022  0.6772
   94SAPS  C311 9318   4.485   5.821   7.693  0.4508 -0.0667  0.2983
   94SAPS  H11X 9319   4.552   5.908   7.710 -0.5884  1.0963 -1.2972
   94SAPS  H11Y 9320   4.545   5.733   7.661 -0.5580 -0.2836 -1.0646
   94SAPS  C312 9321   4.402   5.795   7.818  0.1593 -0.2579  0.9990
   94SAPS  H12X 9322   4.318   5.728   7.792 -0.5094  0.7290  0.5431
   94SAPS  H12Y 9323   4.349   5.887   7.850 -0.9954 -0.1680 -1.0351
   94SAPS  C313 9324   4.484   5.726   7.923 -0.4192 -0.0473 -0.9696
   94SAPS  H13X 9325   4.555   5.656   7.874 -0.0598 -0.1238 -0.3552
   94SAPS  H13Y 9326   4.434   5.661   7.999  2.3627 -1.0780  0.0982
   94SAPS  C314 9327   4.565   5.828   8.003 -0.4195 -0.4542 -0.1321
   94SAPS  H14X 9328   4.504   5.915   8.034  0.0732 -0.3618  0.5958
   94SAPS  H14Y 9329   4.655   5.873   7.956 -0.5813  0.6310  0.5773
   94SAPS  C315 9330   4.613   5.760   8.121 -0.3066 -0.0924  0.6481
   94SAPS  H15X 9331   4.640   5.658   8.087 -1.5949 -0.3682  0.3862
   94SAPS  H15Y 9332   4.537   5.755   8.203 -0.9716  1.4720  0.1689
   94SAPS  C316 9333   4.739   5.830   8.178  0.2851  0.3813 -0.0554
   94SAPS  H16X 9334   4.820   5.815   8.104 -0.3092  0.3494 -0.7044
   94SAPS  H16Y 9335   4.766   5.771   8.268  1.3017 -2.5245 -2.1336
   94SAPS  C317 9336   4.721   5.977   8.213 -0.3015 -0.8469  0.1335
   94SAPS  H17X 9337   4.628   6.001   8.268  1.7529  2.9516  2.3469
   94SAPS  H17Y 9338   4.730   6.046   8.127  0.7350  1.4102  1.9483
   94SAPS  C318 9339   4.836   6.023   8.306 -0.0354 -0.0475 -0.7403
   94SAPS  H18X 9340   4.941   6.000   8.276  0.1469 -0.2726  0.0512
   94SAPS  H18Y 9341   4.826   5.966   8.401 -0.0673  1.0093 -0.0976
   94SAPS  H18Z 9342   4.824   6.128   8.340  1.3261  0.0774 -0.5956
   95SAPS     N 9343   6.702   4.406   6.406 -0.0469  0.3257  0.1760
   95SAPS   HN1 9344   6.630   4.366   6.470  0.5785  0.6331  1.0934
   95SAPS   HN2 9345   6.794   4.377   6.444 -0.4115 -0.8191  0.2295
   95SAPS   HN3 9346   6.685   4.508   6.391  0.4227  0.2129 -1.2020
   95SAPS   C12 9347   6.699   4.330   6.276 -0.1902  0.5134 -0.1912
   95SAPS  H12A 9348   6.608   4.358   6.224 -0.4201 -1.2451 -0.7938
   95SAPS   C13 9349   6.824   4.364   6.192 -0.4545 -0.3386  0.9132
   95SAPS  O13A 9350   6.889   4.469   6.219  0.0534  0.6543 -0.6916
   95SAPS  O13B 9351   6.817   4.320   6.074  0.3450 -0.2862  0.2262
   95SAPS   C11 9352   6.695   4.174   6.314  0.4807  0.5457 -0.2146
   95SAPS  H11A 9353   6.787   4.159   6.375  0.8966 -1.5182 -1.2618
   95SAPS  H11B 9354   6.703   4.107   6.226 -0.2337  0.6976 -0.4020
   95SAPS     P 9355   6.522   3.995   6.426  0.6664  0.1007  0.0572
   95SAPS   O13 9356   6.418   3.998   6.532  0.0380  0.3486 -0.2645
   95SAPS   O14 9357   6.491   3.940   6.294  0.9673 -0.3947 -0.0391
   95SAPS   O12 9358   6.586   4.134   6.402  0.3882 -0.1804  0.4427
   95SAPS   O11 9359   6.645   3.911   6.475 -0.2080  0.0574 -0.5256
   95SAPS    C1 9360   6.670   3.910   6.617  0.3867  0.0400 -0.5275
   95SAPS    HA 9361   6.773   3.942   6.645  0.4569 -1.3517  1.0002
   95SAPS    HB 9362   6.616   3.981   6.683  3.0818  0.0546  1.8607
   95SAPS    C2 9363   6.634   3.784   6.693  0.4654 -0.5966 -0.0869
   95SAPS    HS 9364   6.524   3.766   6.692  0.3813 -0.1167 -1.9043
   95SAPS   O21 9365   6.691   3.778   6.825  0.0182  0.1808  0.1545
   95SAPS   C21 9366   6.625   3.839   6.916 -0.1068 -0.3998 -0.5853
   95SAPS   O22 9367   6.519   3.899   6.906 -0.3353  0.2762 -0.2332
   95SAPS   C22 9368   6.691   3.822   7.053  0.5944  0.8029 -0.3745
   95SAPS   H2R 9369   6.627   3.747   7.104  1.1711 -0.3142 -1.2430
   95SAPS   H2S 9370   6.790   3.773   7.037  0.0096 -0.2344 -0.9137
   95SAPS    C3 9371   6.685   3.662   6.612  0.2332 -0.1190 -0.2045
   95SAPS    HX 9372   6.795   3.675   6.598 -0.1247  1.4283 -1.9622
   95SAPS    HY 9373   6.645   3.665   6.508  2.8501 -2.5621 -1.4397
   95SAPS   O31 9374   6.670   3.529   6.669 -0.1991  0.2414  0.2821
   95SAPS   C31 9375   6.545   3.481   6.681  0.7185 -0.0586  0.4560
   95SAPS   O32 9376   6.442   3.533   6.632 -0.0268 -0.0488  0.5299
   95SAPS   C32 9377   6.549   3.347   6.755 -0.4937 -0.6879  0.9192
   95SAPS   H2X 9378   6.643   3.337   6.812 -0.6147 -0.0682  1.2321
   95SAPS   H2Y 9379   6.553   3.263   6.682 -0.7940 -0.0454  0.1453
   95SAPS   C23 9380   6.701   3.956   7.131 -0.4044  0.2053  0.1255
   95SAPS   H3R 9381   6.609   4.017   7.151  0.1515  1.5640 -1.2743
   95SAPS   H3S 9382   6.763   4.023   7.068  0.4563 -0.8680 -0.1911
   95SAPS   C24 9383   6.783   3.934   7.259 -0.2256 -0.5193  0.1716
   95SAPS   H4R 9384   6.874   3.873   7.238 -0.6480 -0.7300 -1.0945
   95SAPS   H4S 9385   6.723   3.867   7.323 -0.2558  0.0995  0.8067
   95SAPS   C25 9386   6.810   4.060   7.334  0.9786 -0.2714 -0.0981
   95SAPS   H5R 9387   6.724   4.113   7.379  0.7635 -1.5060  1.0121
   95SAPS   C26 9388   6.929   4.109   7.357 -0.6443  1.0683 -0.0607
   95SAPS   H6R 9389   6.933   4.201   7.418  1.7066  1.2931 -0.4649
   95SAPS   C27 9390   7.064   4.037   7.322 -0.3512 -0.3952  0.5597
   95SAPS   H7R 9391   7.071   4.037   7.211  1.6008  3.0061  0.5282
   95SAPS   H7S 9392   7.080   3.939   7.370  1.6465 -0.0667  0.6277
   95SAPS   C28 9393   7.186   4.133   7.354  0.6414  0.5547 -0.1633
   95SAPS   H8R 9394   7.196   4.212   7.278 -0.4226 -0.8748 -1.8575
   95SAPS   C29 9395   7.254   4.145   7.474  0.1043  0.2506 -0.3998
   95SAPS   H9R 9396   7.321   4.232   7.483  0.9559 -0.4445  0.1224
   95SAPS  C210 9397   7.228   4.066   7.603  0.5190  0.2438 -0.1484
   95SAPS  H10R 9398   7.180   3.969   7.580  0.8325  0.4659 -1.9216
   95SAPS  H10S 9399   7.142   4.114   7.654 -1.6925 -1.8108 -1.7027
   95SAPS  C211 9400   7.350   4.047   7.694  0.3913 -0.0265 -0.2009
   95SAPS  H11R 9401   7.419   3.969   7.658  0.8885 -0.5599  1.7992
   95SAPS  C212 9402   7.376   4.104   7.812 -0.8471 -0.1189 -0.6833
   95SAPS  H12R 9403   7.475   4.086   7.857 -0.5399 -1.6891 -1.9142
   95SAPS  C213 9404   7.296   4.211   7.882  0.1980 -0.0407 -0.1631
   95SAPS  H13R 9405   7.224   4.256   7.810  1.4871 -0.0850 -1.5298
   95SAPS  H13S 9406   7.367   4.291   7.914 -0.4896  0.0290  1.2757
   95SAPS  C214 9407   7.221   4.166   7.998 -0.3803 -0.6433  0.3256
   95SAPS  H14R 9408   7.118   4.131   7.982 -0.2077 -0.1386 -2.2754
   95SAPS  C215 9409   7.267   4.173   8.125  0.8112  0.1025  0.2801
   95SAPS  H15R 9410   7.203   4.134   8.206 -1.0444 -3.4570 -2.6128
   95SAPS  C216 9411   7.409   4.219   8.162  0.1074 -0.6271  0.0680
   95SAPS  H16R 9412   7.468   4.219   8.068 -0.5658  1.6294 -0.4319
   95SAPS  H16S 9413   7.465   4.136   8.209  2.4002 -0.3067 -1.9443
   95SAPS  C217 9414   7.414   4.354   8.236 -0.5439 -0.2916 -0.0349
   95SAPS  H17R 9415   7.348   4.355   8.325  1.3853 -0.0161  1.4528
   95SAPS  H17S 9416   7.375   4.430   8.164 -2.8065 -0.6314  0.7610
   95SAPS  C218 9417   7.558   4.397   8.271  0.4540  0.0346 -0.2637
   95SAPS  H18R 9418   7.623   4.382   8.182 -2.5919  0.5849 -2.7808
   95SAPS  H18S 9419   7.587   4.321   8.347  1.6284  1.4830  0.7730
   95SAPS  C219 9420   7.572   4.544   8.318 -0.6955 -0.0889 -0.6944
   95SAPS  H19R 9421   7.671   4.544   8.369 -0.7500  3.0832 -0.3659
   95SAPS  H19S 9422   7.496   4.570   8.394  1.9144  0.4956  1.9146
   95SAPS  C220 9423   7.570   4.632   8.198  0.3912  0.6538  0.3751
   95SAPS  H20R 9424   7.585   4.735   8.236  0.1621 -0.3592  3.5618
   95SAPS  H20S 9425   7.476   4.614   8.142  0.6881 -3.2163  0.8413
   95SAPS  H20T 9426   7.659   4.609   8.136 -1.1391 -2.6989 -0.8271
   95SAPS   C33 9427   6.425   3.333   6.842 -0.0703  0.5598  0.3969
   95SAPS   H3X 9428   6.396   3.226   6.849  0.4458  0.4477  0.9740
   95SAPS   H3Y 9429   6.335   3.381   6.797 -1.0321 -0.4796  1.1667
   95SAPS   C34 9430   6.439   3.383   6.981 -0.2897  0.2549 -0.3087
   95SAPS   H4X 9431   6.544   3.375   7.016 -0.0746 -1.3984 -1.2212
   95SAPS   H4Y 9432   6.372   3.316   7.038 -0.2324  2.6071  2.7611
   95SAPS   C35 9433   6.389   3.529   6.996  0.3529  0.0575 -0.1256
   95SAPS   H5X 9434   6.287   3.525   6.953 -1.1009  0.4534  3.0610
   95SAPS   H5Y 9435   6.449   3.608   6.945 -0.8136  0.1535 -1.4212
   95SAPS   C36 9436   6.388   3.567   7.143  0.1432  0.2010 -0.5878
   95SAPS   H6X 9437   6.487   3.550   7.191  0.1467  2.5749  0.3858
   95SAPS   H6Y 9438   6.320   3.497   7.196  1.2762 -0.4223  0.1046
   95SAPS   C37 9439   6.341   3.713   7.149  0.5578  0.1620  1.0142
   95SAPS   H7X 9440   6.237   3.710   7.111  0.8955  0.1183  0.0699
   95SAPS   H7Y 9441   6.403   3.774   7.080 -1.9385  1.7128  0.0139
   95SAPS   C38 9442   6.361   3.768   7.287 -0.6274 -0.4406 -1.0512
   95SAPS   H8X 9443   6.327   3.874   7.290 -0.5622 -0.4506  1.5793
   95SAPS   H8Y 9444   6.468   3.761   7.316 -0.8364 -1.0786 -0.4152
   95SAPS   C39 9445   6.287   3.706   7.409 -0.1937 -0.2956  0.3999
   95SAPS   H9X 9446   6.290   3.595   7.410  3.3338 -0.3423 -1.3243
   95SAPS   H9Y 9447   6.179   3.733   7.413 -0.7272 -2.1979 -0.2434
   95SAPS  C310 9448   6.352   3.743   7.546  0.3434  0.2188 -0.7355
   95SAPS  H10X 9449   6.348   3.852   7.564 -1.5667  0.2108 -0.9075
   95SAPS  H10Y 9450   6.456   3.706   7.559  0.3544  0.7310  0.7644
   95SAPS  C311 9451   6.284   3.679   7.673 -0.2624 -0.6410  0.3099
   95SAPS  H11X 9452   6.287   3.568   7.673 -0.8622 -0.6597  1.0393
   95SAPS  H11Y 9453   6.177   3.707   7.686 -0.2868 -0.1454 -0.7865
   95SAPS  C312 9454   6.351   3.721   7.806  0.3171  0.5414 -0.2490
   95SAPS  H12X 9455   6.349   3.832   7.799  0.0904  0.4868 -1.2352
   95SAPS  H12Y 9456   6.457   3.688   7.811 -0.3725 -1.5704  2.2176
   95SAPS  C313 9457   6.281   3.674   7.931 -0.1603 -0.1827  0.2617
   95SAPS  H13X 9458   6.274   3.564   7.923 -3.5865 -0.0906  0.6909
   95SAPS  H13Y 9459   6.178   3.715   7.931  0.7606  2.3584  1.1727
   95SAPS  C314 9460   6.361   3.706   8.062 -0.4979 -0.1961  0.2123
   95SAPS  H14X 9461   6.370   3.817   8.067  2.2237 -0.2881 -0.7389
   95SAPS  H14Y 9462   6.460   3.655   8.060 -0.2131  0.3433  0.3243
   95SAPS  C315 9463   6.283   3.640   8.180  0.1766  0.3353  0.2440
   95SAPS  H15X 9464   6.294   3.530   8.169 -2.1629  0.1296 -0.4856
   95SAPS  H15Y 9465   6.176   3.668   8.176 -0.0625 -0.6654 -0.6356
   95SAPS  C316 9466   6.335   3.678   8.319 -0.3001  0.6003 -0.4274
   95SAPS  H16X 9467   6.305   3.606   8.398 -0.2796 -0.5399 -1.4320
   95SAPS  H16Y 9468   6.292   3.777   8.347  0.7121  0.7508  0.6889
   95SAPS  C317 9469   6.484   3.691   8.344  0.2599  0.0741  0.1313
   95SAPS  H17X 9470   6.516   3.780   8.286 -1.7854  0.4665 -0.4376
   95SAPS  H17Y 9471   6.542   3.604   8.304  1.0627 -1.0734  3.4478
   95SAPS  C318 9472   6.519   3.709   8.495 -0.4057 -0.0476  0.3456
   95SAPS  H18X 9473   6.475   3.808   8.519 -0.2444  0.1272 -0.0628
   95SAPS  H18Y 9474   6.624   3.733   8.524 -0.3002  0.3070 -0.3053
   95SAPS  H18Z 9475   6.481   3.626   8.558 -0.5175 -0.2881 -0.0339
   96SAPS     N 9476   0.902   6.656   6.329 -0.1587  0.2380 -0.1686
   96SAPS   HN1 9477   0.976   6.583   6.327  1.1296  1.4855 -1.3463
   96SAPS   HN2 9478   0.908   6.708   6.419  3.3623 -1.9876  1.0869
   96SAPS   HN3 9479   0.807   6.619   6.310  0.1942 -0.0008 -1.5735
   96SAPS   C12 9480   0.928   6.755   6.217 -0.2694 -0.4776 -0.2259
   96SAPS  H12A 9481   0.949   6.690   6.132  0.1224 -1.4362  0.5806
   96SAPS   C13 9482   0.809   6.842   6.180  0.0649  0.5922 -0.1701
   96SAPS  O13A 9483   0.703   6.823   6.253 -0.3983  0.1052  0.4198
   96SAPS  O13B 9484   0.801   6.898   6.067  0.5551  0.2621 -0.1089
   96SAPS   C11 9485   1.050   6.842   6.256  0.5301 -0.3227  0.1359
   96SAPS  H11A 9486   1.015   6.925   6.321 -2.7571 -0.7539 -0.8837
   96SAPS  H11B 9487   1.075   6.894   6.161  0.0311 -0.7499 -0.2394
   96SAPS     P 9488   1.290   6.870   6.337 -0.0868  0.5876  0.0564
   96SAPS   O13 9489   1.417   6.808   6.296 -0.6242 -0.2947 -0.0124
   96SAPS   O14 9490   1.260   7.002   6.279  0.0503  0.0599  0.2211
   96SAPS   O12 9491   1.168   6.769   6.306  0.6949 -0.5180 -0.3884
   96SAPS   O11 9492   1.301   6.886   6.492  0.6481 -0.0205 -0.3449
   96SAPS    C1 9493   1.246   6.983   6.573  0.1160 -0.0885  0.4072
   96SAPS    HA 9494   1.296   7.081   6.552 -1.2301  0.0019 -3.1887
   96SAPS    HB 9495   1.141   7.007   6.546 -0.1418 -2.0488 -0.4990
   96SAPS    C2 9496   1.271   6.956   6.730 -0.5628 -0.7495 -0.0683
   96SAPS    HS 9497   1.374   6.990   6.751 -0.3878 -1.0570 -0.3985
   96SAPS   O21 9498   1.242   6.815   6.765  0.0689  0.0274 -0.6979
   96SAPS   C21 9499   1.344   6.738   6.756  0.5196  0.3620 -0.2462
   96SAPS   O22 9500   1.454   6.774   6.713 -0.4658  0.3573  0.8136
   96SAPS   C22 9501   1.313   6.601   6.813 -0.2636  0.6254  0.9209
   96SAPS   H2R 9502   1.252   6.614   6.905  0.8591 -2.3498  2.2338
   96SAPS   H2S 9503   1.252   6.532   6.752  0.7056  0.8767 -0.3960
   96SAPS    C3 9504   1.188   7.056   6.819 -0.1922 -0.5917  0.1083
   96SAPS    HX 9505   1.080   7.034   6.803 -0.2354 -0.0670 -0.3408
   96SAPS    HY 9506   1.223   7.159   6.798  1.0677 -0.2872  3.1898
   96SAPS   O31 9507   1.214   7.026   6.951 -0.4332 -0.2242  0.2676
   96SAPS   C31 9508   1.311   7.099   7.016 -0.1187  0.3825  0.1436
   96SAPS   O32 9509   1.368   7.199   6.980 -0.0369  0.5601  0.2974
   96SAPS   C32 9510   1.318   7.050   7.159 -0.4695 -0.5408 -0.5527
   96SAPS   H2X 9511   1.373   6.954   7.153  0.6083  0.0647 -0.6400
   96SAPS   H2Y 9512   1.211   7.039   7.186 -1.8876  3.5076 -3.4707
   96SAPS   C23 9513   1.441   6.508   6.833  0.1942 -0.1297  0.8458
   96SAPS   H3R 9514   1.507   6.528   6.746 -0.1578  2.9332  1.1652
   96SAPS   H3S 9515   1.409   6.405   6.808  0.8684  0.1446 -1.3217
   96SAPS   C24 9516   1.508   6.513   6.971 -0.0898 -0.1396 -0.0858
   96SAPS   H4R 9517   1.448   6.450   7.040  2.2693 -2.1625  0.2771
   96SAPS   H4S 9518   1.497   6.617   7.007  1.4520 -0.1900  0.6087
   96SAPS   C25 9519   1.643   6.465   6.971 -0.0091 -0.0334 -0.1354
   96SAPS   H5R 9520   1.703   6.515   6.893  0.9320  0.9795  1.1961
   96SAPS   C26 9521   1.713   6.370   7.041  0.2857 -0.3579 -0.1961
   96SAPS   H6R 9522   1.821   6.355   7.025  0.1951 -1.6972  0.3419
   96SAPS   C27 9523   1.640   6.293   7.143 -0.2510  0.4217 -0.2447
   96SAPS   H7R 9524   1.554   6.246   7.090  0.2629 -1.0971  0.2249
   96SAPS   H7S 9525   1.598   6.372   7.209  0.0298  0.3014  0.0788
   96SAPS   C28 9526   1.724   6.194   7.222 -0.5919 -0.1405 -0.1985
   96SAPS   H8R 9527   1.789   6.130   7.161 -0.0169  0.1325  0.1185
   96SAPS   C29 9528   1.717   6.172   7.358  0.2212  0.2954  0.3222
   96SAPS   H9R 9529   1.792   6.097   7.385  1.5102  1.1949 -0.6189
   96SAPS  C210 9530   1.625   6.243   7.457 -0.6383 -0.1725 -0.1169
   96SAPS  H10R 9531   1.552   6.314   7.414  1.0385  1.4142 -0.4754
   96SAPS  H10S 9532   1.692   6.295   7.529  1.1108 -3.0025  0.4766
   96SAPS  C211 9533   1.551   6.129   7.529 -0.0274 -0.2332 -0.1275
   96SAPS  H11R 9534   1.512   6.044   7.471 -1.3919 -0.0517  0.5005
   96SAPS  C212 9535   1.532   6.126   7.664 -0.2665 -0.1776  0.1819
   96SAPS  H12R 9536   1.474   6.040   7.700  0.4887 -0.3808  0.9543
   96SAPS  C213 9537   1.590   6.227   7.759  0.8573 -0.2161 -0.1332
   96SAPS  H13R 9538   1.535   6.229   7.855 -2.8258  0.0738 -2.0511
   96SAPS  H13S 9539   1.567   6.327   7.715 -0.7278 -0.1694  0.7264
   96SAPS  C214 9540   1.741   6.218   7.774  0.0555 -0.4188  0.0459
   96SAPS  H14R 9541   1.790   6.159   7.696 -1.2461  1.6327 -2.4927
   96SAPS  C215 9542   1.805   6.287   7.872  0.6303  0.3304  0.3293
   96SAPS  H15R 9543   1.914   6.273   7.869  0.5244 -0.5452  0.2349
   96SAPS  C216 9544   1.749   6.391   7.962 -0.8012  0.3329  0.0767
   96SAPS  H16R 9545   1.644   6.421   7.945 -1.2177 -1.7762 -1.4986
   96SAPS  H16S 9546   1.807   6.483   7.939  1.4543 -1.1269 -0.4356
   96SAPS  C217 9547   1.748   6.366   8.109  1.0267 -0.1354  0.1675
   96SAPS  H17R 9548   1.697   6.268   8.124  0.5181 -0.2178 -1.8259
   96SAPS  H17S 9549   1.686   6.441   8.164 -3.0258 -1.9350 -1.5181
   96SAPS  C218 9550   1.888   6.357   8.167 -0.0949  0.2169 -0.1502
   96SAPS  H18R 9551   1.955   6.405   8.092 -0.0807  0.4846  0.0331
   96SAPS  H18S 9552   1.913   6.249   8.155  2.3288  0.6563  0.4417
   96SAPS  C219 9553   1.914   6.421   8.300 -0.9116  0.1645 -0.7232
   96SAPS  H19R 9554   1.850   6.368   8.373 -0.0556 -1.1719 -0.9094
   96SAPS  H19S 9555   1.875   6.525   8.292 -1.0723  0.1171 -0.5612
   96SAPS  C220 9556   2.065   6.439   8.343 -0.1896 -0.1226  0.0286
   96SAPS  H20R 9557   2.061   6.484   8.444 -2.0306 -1.2349  0.4824
   96SAPS  H20S 9558   2.117   6.504   8.269  0.4091 -1.5545 -0.8441
   96SAPS  H20T 9559   2.120   6.343   8.332  2.0526  1.2292 -1.2422
   96SAPS   C33 9560   1.376   7.157   7.255  0.0976  0.0567 -0.3864
   96SAPS   H3X 9561   1.324   7.255   7.255 -2.5128 -1.2145 -2.0147
   96SAPS   H3Y 9562   1.479   7.191   7.233 -0.5545  2.3457 -0.1310
   96SAPS   C34 9563   1.362   7.106   7.400 -0.4984  0.1169 -0.1099
   96SAPS   H4X 9564   1.367   6.995   7.408  0.3243  0.2188  0.9130
   96SAPS   H4Y 9565   1.259   7.122   7.440 -0.0837  0.6687  0.7527
   96SAPS   C35 9566   1.470   7.167   7.493  0.2033 -0.4333 -0.0251
   96SAPS   H5X 9567   1.461   7.276   7.475  1.6165 -0.6079 -2.0629
   96SAPS   H5Y 9568   1.571   7.130   7.466  1.6141  3.1325 -0.2084
   96SAPS   C36 9569   1.449   7.133   7.641  0.6331  0.8104 -0.6925
   96SAPS   H6X 9570   1.466   7.023   7.649  1.9984  0.9745 -1.0665
   96SAPS   H6Y 9571   1.347   7.147   7.684  1.6016 -0.9574  2.5825
   96SAPS   C37 9572   1.546   7.216   7.722 -0.1712  0.3191 -0.2849
   96SAPS   H7X 9573   1.532   7.326   7.710  1.1356  0.3126 -2.5293
   96SAPS   H7Y 9574   1.650   7.205   7.687 -0.0182  0.1723  0.2141
   96SAPS   C38 9575   1.534   7.184   7.868  0.0893 -0.3210  0.3511
   96SAPS   H8X 9576   1.548   7.074   7.877  0.2591 -0.2939  0.4273
   96SAPS   H8Y 9577   1.432   7.210   7.905  0.0898 -0.5959  0.5523
   96SAPS   C39 9578   1.643   7.243   7.959  0.3678 -0.2171  0.1151
   96SAPS   H9X 9579   1.652   7.350   7.932 -0.0002  0.2209  1.6083
   96SAPS   H9Y 9580   1.734   7.192   7.922  0.5911  1.4709 -1.7652
   96SAPS  C310 9581   1.614   7.225   8.105 -0.3530  0.4438  0.4219
   96SAPS  H10X 9582   1.576   7.122   8.120 -0.6879  0.8785  3.0045
   96SAPS  H10Y 9583   1.536   7.297   8.135  0.0391  1.6742 -1.3247
   96SAPS  C311 9584   1.743   7.236   8.185  0.1779 -0.2367  0.1257
   96SAPS  H11X 9585   1.783   7.339   8.167  0.9225 -0.4391  0.6128
   96SAPS  H11Y 9586   1.815   7.161   8.148 -1.3850 -0.9221 -1.7188
   96SAPS  C312 9587   1.714   7.218   8.333  0.6396 -0.2374  0.5378
   96SAPS  H12X 9588   1.696   7.110   8.352 -0.1744 -0.3975 -1.0191
   96SAPS  H12Y 9589   1.640   7.290   8.374  2.0266  2.2660 -1.1454
   96SAPS  C313 9590   1.841   7.237   8.422  0.6337  0.1941 -0.0011
   96SAPS  H13X 9591   1.877   7.340   8.406 -0.9246  1.0851  1.7265
   96SAPS  H13Y 9592   1.914   7.164   8.382 -0.7569 -0.1806 -1.9884
   96SAPS  C314 9593   1.828   7.219   8.568  0.3250 -0.0851 -0.7355
   96SAPS  H14X 9594   1.770   7.126   8.589 -0.3377  0.2267 -1.1685
   96SAPS  H14Y 9595   1.762   7.298   8.611 -0.9393 -1.1644 -0.6221
   96SAPS  C315 9596   1.968   7.213   8.643 -0.1449  0.6817  0.2325
   96SAPS  H15X 9597   2.032   7.294   8.601 -0.4138  1.0363  0.5075
   96SAPS  H15Y 9598   2.012   7.117   8.607  0.0833  1.1666 -0.8287
   96SAPS  C316 9599   1.970   7.222   8.796  0.4761 -0.3238 -0.1392
   96SAPS  H16X 9600   1.929   7.315   8.840 -1.9962 -2.3598  2.2107
   96SAPS  H16Y 9601   2.070   7.203   8.840  0.8745 -1.1999 -1.3674
   96SAPS  C317 9602   1.886   7.103   8.844 -0.9026  0.2248 -0.1106
   96SAPS  H17X 9603   1.915   7.015   8.783  0.8542  0.2166  0.6752
   96SAPS  H17Y 9604   1.782   7.130   8.814 -0.5608 -0.7986 -2.4670
   96SAPS  C318 9605   1.897   7.074   8.992  0.1257 -0.7600  0.8596
   96SAPS  H18X 9606   1.876   7.166   9.049 -1.3670  0.4851 -1.5190
   96SAPS  H18Y 9607   1.992   7.029   9.027  0.1531  0.4577  2.4514
   96SAPS  H18Z 9608   1.820   6.993   8.998 -0.0702 -0.7045 -0.4769
   97SAPS     N 9609   3.238   4.702   6.414 -0.2663  0.3033 -0.2115
   97SAPS   HN1 9610   3.241   4.639   6.496 -0.2499  0.4848 -0.0721
   97SAPS   HN2 9611   3.321   4.671   6.359 -0.0737 -1.9192  1.2096
   97SAPS   HN3 9612   3.249   4.797   6.454 -0.9194  0.3744 -0.1793
   97SAPS   C12 9613   3.107   4.700   6.341 -0.0879 -0.2145 -0.3264
   97SAPS  H12A 9614   3.116   4.774   6.263  0.7762 -2.1745 -2.1986
   97SAPS   C13 9615   3.071   4.565   6.270  0.5069 -0.5085  0.7148
   97SAPS  O13A 9616   3.149   4.469   6.256  0.1600 -0.1869 -0.6786
   97SAPS  O13B 9617   2.954   4.560   6.220 -0.5632  0.6964  0.1225
   97SAPS   C11 9618   2.994   4.741   6.438  0.3861 -0.0403 -0.4866
   97SAPS  H11A 9619   2.969   4.667   6.517  0.5000 -1.2855 -1.5723
   97SAPS  H11B 9620   2.903   4.757   6.375 -0.1608  1.4800  0.6186
   97SAPS     P 9621   2.910   4.943   6.579  0.1001  0.2870 -0.2944
   97SAPS   O13 9622   2.836   5.017   6.476 -0.0259  0.1953 -0.7329
   97SAPS   O14 9623   2.837   4.852   6.669 -0.5842 -0.3384 -0.8375
   97SAPS   O12 9624   3.024   4.863   6.504 -0.1573 -0.1521 -0.1285
   97SAPS   O11 9625   2.983   5.052   6.676  0.8480  0.4749  0.2077
   97SAPS    C1 9626   3.107   5.021   6.744  0.4998 -0.1775 -0.1090
   97SAPS    HA 9627   3.184   4.977   6.677 -0.5230  0.4575 -1.7516
   97SAPS    HB 9628   3.143   5.113   6.795  1.9569  0.8355 -2.7707
   97SAPS    C2 9629   3.083   4.923   6.866  1.0427 -0.4414  0.2827
   97SAPS    HS 9630   3.046   4.830   6.819  1.7009  0.2482 -1.7029
   97SAPS   O21 9631   2.986   4.980   6.952 -0.2302  0.0751  0.3432
   97SAPS   C21 9632   2.914   4.902   7.017  0.6144 -0.2301  0.0300
   97SAPS   O22 9633   2.912   4.780   7.010  0.0813  0.0993  0.0140
   97SAPS   C22 9634   2.817   4.976   7.117 -0.1081  0.5864  0.0441
   97SAPS   H2R 9635   2.816   5.087   7.108 -3.0653  0.6953  0.7028
   97SAPS   H2S 9636   2.713   4.939   7.108  0.5214 -1.2573 -0.1783
   97SAPS    C3 9637   3.218   4.888   6.932  0.4739 -0.1575  0.3294
   97SAPS    HX 9638   3.261   4.989   6.946  2.0081 -0.6685 -0.4426
   97SAPS    HY 9639   3.280   4.824   6.865 -0.5350 -0.2359 -0.5604
   97SAPS   O31 9640   3.203   4.826   7.064 -0.1314 -0.5167 -0.1571
   97SAPS   C31 9641   3.186   4.696   7.060 -0.3646  0.7764  0.2516
   97SAPS   O32 9642   3.189   4.636   6.956 -0.6146  0.5886  0.3880
   97SAPS   C32 9643   3.160   4.640   7.200 -0.3717 -0.0943  0.1328
   97SAPS   H2X 9644   3.208   4.540   7.207  1.6582  0.9271  1.6339
   97SAPS   H2Y 9645   3.050   4.631   7.211 -0.4629  1.3742  0.6738
   97SAPS   C23 9646   2.842   4.931   7.269 -0.3061 -0.2578  0.1426
   97SAPS   H3R 9647   2.952   4.940   7.281 -0.2596 -0.0598 -0.4062
   97SAPS   H3S 9648   2.815   4.823   7.267 -0.5627 -0.1849 -1.1933
   97SAPS   C24 9649   2.764   5.011   7.368  0.0454  1.0017  0.1072
   97SAPS   H4R 9650   2.775   5.117   7.337  2.7430  0.0129 -2.7727
   97SAPS   H4S 9651   2.810   5.007   7.469 -0.2600  0.7896  0.2410
   97SAPS   C25 9652   2.614   4.963   7.384 -0.0955 -1.0473  1.1651
   97SAPS   H5R 9653   2.543   4.985   7.303  0.2560 -0.4073  1.0216
   97SAPS   C26 9654   2.568   4.880   7.479  0.0425  0.6226 -0.6643
   97SAPS   H6R 9655   2.460   4.863   7.489 -0.1664  2.6349  1.2040
   97SAPS   C27 9656   2.648   4.809   7.586  0.5320  0.9403  0.3699
   97SAPS   H7R 9657   2.719   4.878   7.636  0.3128  0.4352  1.4077
   97SAPS   H7S 9658   2.728   4.754   7.533 -0.2297  0.8076 -0.6738
   97SAPS   C28 9659   2.576   4.714   7.685  0.5572  0.0131  0.4067
   97SAPS   H8R 9660   2.565   4.608   7.658 -1.0747  0.2081  0.1640
   97SAPS   C29 9661   2.540   4.763   7.807  0.2640  0.1871  0.0058
   97SAPS   H9R 9662   2.491   4.695   7.878  1.0101 -1.0413 -0.6170
   97SAPS  C210 9663   2.567   4.908   7.844 -0.2798 -0.3171  0.0694
   97SAPS  H10R 9664   2.482   4.942   7.907  0.4347  0.3924  0.6781
   97SAPS  H10S 9665   2.559   4.985   7.765 -0.0898 -0.6446 -0.2716
   97SAPS  C211 9666   2.705   4.927   7.915 -0.3461 -0.3885 -0.1433
   97SAPS  H11R 9667   2.769   4.839   7.905  1.4944  1.0345 -1.6211
   97SAPS  C212 9668   2.750   5.042   7.967 -0.2146 -0.6721 -0.0606
   97SAPS  H12R 9669   2.855   5.039   8.001  1.1300 -1.6641 -3.7987
   97SAPS  C213 9670   2.672   5.172   7.969  0.2083  0.8425 -0.2128
   97SAPS  H13R 9671   2.565   5.158   7.943 -0.1124 -2.2483  2.1835
   97SAPS  H13S 9672   2.713   5.234   7.886 -0.0010 -1.0140 -1.8034
   97SAPS  C214 9673   2.686   5.249   8.091  0.6559  0.3051 -0.0852
   97SAPS  H14R 9674   2.743   5.342   8.074  1.5493  0.0687  1.4718
   97SAPS  C215 9675   2.636   5.219   8.214 -0.0447 -0.5414 -0.6159
   97SAPS  H15R 9676   2.659   5.289   8.295 -0.7521 -0.6148 -0.3417
   97SAPS  C216 9677   2.558   5.094   8.252 -0.5466  0.0270  0.2038
   97SAPS  H16R 9678   2.504   5.055   8.164 -0.0670  1.0903 -0.5828
   97SAPS  H16S 9679   2.480   5.119   8.326 -1.7675  2.7114 -1.8425
   97SAPS  C217 9680   2.646   4.983   8.296 -0.2801 -0.4799 -0.1501
   97SAPS  H17R 9681   2.691   5.014   8.393 -2.4571  0.4080  0.6333
   97SAPS  H17S 9682   2.732   4.950   8.234  1.1241  0.0268  1.4300
   97SAPS  C218 9683   2.565   4.856   8.328  0.0826 -0.5388 -0.0740
   97SAPS  H18R 9684   2.496   4.835   8.242 -0.2064  1.6490 -0.4278
   97SAPS  H18S 9685   2.490   4.891   8.402  1.8776  2.2970  0.5530
   97SAPS  C219 9686   2.634   4.728   8.368 -0.3075 -0.0361  0.0409
   97SAPS  H19R 9687   2.703   4.746   8.453 -1.7236  2.9783  0.7104
   97SAPS  H19S 9688   2.687   4.697   8.275  0.0106  0.2751  0.1173
   97SAPS  C220 9689   2.536   4.613   8.390 -0.7344  0.4742 -0.4513
   97SAPS  H20R 9690   2.593   4.525   8.427 -0.9217  0.2161 -0.7737
   97SAPS  H20S 9691   2.482   4.591   8.295 -1.3891  2.5640 -0.5963
   97SAPS  H20T 9692   2.463   4.636   8.470 -1.3096 -1.2509 -0.4330
   97SAPS   C33 9693   3.225   4.717   7.313  0.2389  0.0106 -0.1121
   97SAPS   H3X 9694   3.204   4.826   7.317 -0.2583 -0.1039  3.3766
   97SAPS   H3Y 9695   3.335   4.728   7.315  0.2001  0.8884 -1.3946
   97SAPS   C34 9696   3.169   4.668   7.452 -0.2248 -0.3968  0.3625
   97SAPS   H4X 9697   3.225   4.704   7.541 -2.0693  0.9554  1.0450
   97SAPS   H4Y 9698   3.190   4.559   7.448  4.8800  0.3274  0.5775
   97SAPS   C35 9699   3.028   4.701   7.490  0.3893 -0.5665  0.5460
   97SAPS   H5X 9700   2.955   4.649   7.424 -2.2753  1.8890  1.3618
   97SAPS   H5Y 9701   3.012   4.808   7.467  0.8997 -0.7509 -0.7556
   97SAPS   C36 9702   2.982   4.641   7.625 -0.7537 -0.0931 -0.4226
   97SAPS   H6X 9703   3.010   4.534   7.638 -0.5144  0.2681  2.9831
   97SAPS   H6Y 9704   2.873   4.640   7.601 -0.2989  0.3215 -2.7988
   97SAPS   C37 9705   3.021   4.715   7.748 -0.6244  0.2820 -0.5019
   97SAPS   H7X 9706   2.971   4.814   7.748 -1.6797 -0.2079  1.2185
   97SAPS   H7Y 9707   3.131   4.731   7.750 -0.6874  0.7356 -0.4453
   97SAPS   C38 9708   2.990   4.655   7.891 -0.1806 -0.3413  0.2541
   97SAPS   H8X 9709   3.040   4.556   7.901  0.7050  0.1546  0.7978
   97SAPS   H8Y 9710   2.880   4.640   7.898 -1.1907  3.4423 -3.4861
   97SAPS   C39 9711   3.027   4.749   8.000 -0.7392 -0.0820 -0.0869
   97SAPS   H9X 9712   2.990   4.852   7.985 -2.0575 -0.4610  0.4622
   97SAPS   H9Y 9713   3.137   4.758   7.985 -0.4336 -1.9198  0.6682
   97SAPS  C310 9714   3.013   4.694   8.141 -0.0551 -0.3903  0.7200
   97SAPS  H10X 9715   3.040   4.586   8.135 -1.7277 -0.8396  0.6670
   97SAPS  H10Y 9716   2.907   4.694   8.175 -0.1333 -0.0629  0.4714
   97SAPS  C311 9717   3.083   4.779   8.238  0.4412  0.0280 -0.0624
   97SAPS  H11X 9718   3.072   4.888   8.218  1.4785  0.1637  0.0207
   97SAPS  H11Y 9719   3.194   4.772   8.232  0.3817 -0.3229 -0.9518
   97SAPS  C312 9720   3.042   4.756   8.385 -0.0607  0.0288 -0.0271
   97SAPS  H12X 9721   2.935   4.744   8.412  0.2233 -0.1173  1.0728
   97SAPS  H12Y 9722   3.067   4.848   8.444 -1.3994  0.3275  0.0926
   97SAPS  C313 9723   3.120   4.639   8.454 -0.5132 -0.0641  0.1169
   97SAPS  H13X 9724   3.228   4.657   8.437 -0.6349  1.1050  0.5132
   97SAPS  H13Y 9725   3.086   4.540   8.416 -1.4316  0.2999 -0.0301
   97SAPS  C314 9726   3.090   4.636   8.602 -0.3528 -0.4826  0.0183
   97SAPS  H14X 9727   2.980   4.628   8.616 -0.5626 -0.0235 -1.2599
   97SAPS  H14Y 9728   3.124   4.732   8.644 -0.1418 -0.5454 -0.0091
   97SAPS  C315 9729   3.151   4.514   8.674  0.3347 -0.2843  0.5707
   97SAPS  H15X 9730   3.261   4.513   8.659  0.3825 -0.2848  0.9102
   97SAPS  H15Y 9731   3.103   4.431   8.619  1.0300 -0.0153 -0.4667
   97SAPS  C316 9732   3.121   4.506   8.827  0.1029  0.1022  0.4599
   97SAPS  H16X 9733   3.015   4.477   8.845 -0.0286  0.1303 -0.2236
   97SAPS  H16Y 9734   3.143   4.607   8.868 -2.0773  0.7464  0.2153
   97SAPS  C317 9735   3.208   4.403   8.894 -1.0845 -0.2687 -0.0767
   97SAPS  H17X 9736   3.312   4.440   8.910 -1.6785  0.8514  1.4904
   97SAPS  H17Y 9737   3.204   4.309   8.836 -0.3463 -0.3010 -0.0855
   97SAPS  C318 9738   3.160   4.381   9.038  0.2509  0.0797 -0.1646
   97SAPS  H18X 9739   3.150   4.482   9.082  0.4395  0.2686 -0.5502
   97SAPS  H18Y 9740   3.223   4.310   9.095 -0.7881 -0.6063  0.1680
   97SAPS  H18Z 9741   3.059   4.334   9.037  1.3178 -2.3784 -0.0841
   98SAPS     N 9742   2.067   2.686   6.185 -0.5857  0.1388 -0.0647
   98SAPS   HN1 9743   1.980   2.630   6.190 -0.1716 -0.4652  0.6459
   98SAPS   HN2 9744   2.158   2.634   6.187  0.5244  1.9434  3.3466
   98SAPS   HN3 9745   2.068   2.741   6.273  0.6530  0.1272 -0.0476
   98SAPS   C12 9746   2.065   2.778   6.062 -0.2011 -0.3560 -0.7179
   98SAPS  H12A 9747   2.139   2.855   6.079 -1.6591  0.4874  2.5769
   98SAPS   C13 9748   2.116   2.710   5.930 -0.2026  0.3425 -0.1252
   98SAPS  O13A 9749   2.173   2.598   5.936  0.4117  0.0324 -0.0796
   98SAPS  O13B 9750   2.122   2.788   5.829  0.2029 -0.1807  0.3434
   98SAPS   C11 9751   1.912   2.834   6.039  0.1137  0.1110  0.0129
   98SAPS  H11A 9752   1.839   2.759   6.000 -0.1239  0.6773 -0.6300
   98SAPS  H11B 9753   1.923   2.916   5.966 -2.0913  1.8253  1.4724
   98SAPS     P 9754   1.763   3.000   6.176 -0.0034  0.1954 -0.4354
   98SAPS   O13 9755   1.807   3.117   6.095  0.9632 -0.1375 -0.7074
   98SAPS   O14 9756   1.639   2.930   6.148  0.4492  0.7208 -0.2132
   98SAPS   O12 9757   1.876   2.886   6.171  0.2647  0.4920  0.5252
   98SAPS   O11 9758   1.752   3.044   6.323 -0.1219  0.1809 -0.1366
   98SAPS    C1 9759   1.751   2.977   6.448  0.6887 -0.0591  0.2143
   98SAPS    HA 9760   1.707   3.046   6.522  0.1429  1.2756 -1.2992
   98SAPS    HB 9761   1.681   2.891   6.456 -0.7392  1.1398  0.9914
   98SAPS    C2 9762   1.891   2.937   6.500 -0.5075 -0.1514  0.4663
   98SAPS    HS 9763   1.919   2.835   6.467 -2.5579 -1.1273  1.5904
   98SAPS   O21 9764   1.898   2.952   6.643  0.6493 -0.8557 -0.3667
   98SAPS   C21 9765   1.832   2.867   6.717 -0.0552 -0.4586 -0.0043
   98SAPS   O22 9766   1.765   2.774   6.683  0.4031  0.1404 -0.2005
   98SAPS   C22 9767   1.866   2.893   6.867 -0.3876 -0.0287 -0.3571
   98SAPS   H2R 9768   1.863   2.797   6.923  4.0341  0.8644  1.8331
   98SAPS   H2S 9769   1.971   2.928   6.871 -0.4029  0.0797 -0.8729
   98SAPS    C3 9770   2.006   3.031   6.440  0.0420  0.1470 -0.0293
   98SAPS    HX 9771   1.984   3.138   6.456  0.1226  0.2381 -0.5331
   98SAPS    HY 9772   2.010   2.997   6.334 -0.7939 -1.8121  0.5106
   98SAPS   O31 9773   2.129   3.021   6.510 -0.3451  0.1543  0.1648
   98SAPS   C31 9774   2.204   2.924   6.476  0.2810 -0.5852 -0.0779
   98SAPS   O32 9775   2.172   2.833   6.397 -0.3295 -0.3152 -0.2469
   98SAPS   C32 9776   2.341   2.927   6.549 -0.8773 -0.2976 -0.2110
   98SAPS   H2X 9777   2.343   2.984   6.645  0.0969 -0.9174  0.1529
   98SAPS   H2Y 9778   2.408   2.972   6.472 -0.8129 -0.8131 -0.4563
   98SAPS   C23 9779   1.789   2.999   6.950  0.2598 -0.3722 -0.1499
   98SAPS   H3R 9780   1.697   2.956   6.996 -0.5429  1.1135 -0.2667
   98SAPS   H3S 9781   1.764   3.081   6.879 -1.2327 -0.8829 -0.2550
   98SAPS   C24 9782   1.868   3.067   7.061  0.5730 -0.1515 -0.3747
   98SAPS   H4R 9783   1.800   3.142   7.106 -0.8049 -1.0521 -0.8971
   98SAPS   H4S 9784   1.961   3.117   7.025  0.3542  0.8981  0.4911
   98SAPS   C25 9785   1.911   2.972   7.169 -0.6617 -0.4640 -0.9363
   98SAPS   H5R 9786   1.988   2.902   7.135 -0.5230 -1.6999  1.7382
   98SAPS   C26 9787   1.882   2.993   7.299  0.0211  0.7016 -0.9284
   98SAPS   H6R 9788   1.905   2.913   7.371 -0.8131 -0.0861 -1.5040
   98SAPS   C27 9789   1.795   3.104   7.358 -0.6234  0.0529  0.4480
   98SAPS   H7R 9790   1.821   3.200   7.309 -0.9260 -0.5507 -0.9714
   98SAPS   H7S 9791   1.824   3.135   7.460 -2.1963 -0.0576  0.9405
   98SAPS   C28 9792   1.648   3.103   7.338  0.4277  0.2610 -0.3387
   98SAPS   H8R 9793   1.614   3.022   7.272 -1.2706  1.2035 -0.6663
   98SAPS   C29 9794   1.554   3.173   7.398 -0.3036  0.0251 -0.9788
   98SAPS   H9R 9795   1.448   3.153   7.377 -0.3597 -0.7462  0.0095
   98SAPS  C210 9796   1.586   3.281   7.500  0.6964 -1.1156  0.4093
   98SAPS  H10R 9797   1.661   3.241   7.572 -0.2278  0.3421  2.3004
   98SAPS  H10S 9798   1.492   3.310   7.552  0.5757 -0.1516 -0.3122
   98SAPS  C211 9799   1.656   3.402   7.436  0.7612  0.1123  0.0426
   98SAPS  H11R 9800   1.687   3.388   7.331 -0.2847 -0.1942 -0.2452
   98SAPS  C212 9801   1.662   3.522   7.502 -0.1968  0.1761  0.4061
   98SAPS  H12R 9802   1.736   3.593   7.463  2.5446 -1.8494  1.5870
   98SAPS  C213 9803   1.627   3.563   7.642  0.1814 -0.6603  0.1117
   98SAPS  H13R 9804   1.652   3.669   7.662 -1.3257 -0.0813 -0.9306
   98SAPS  H13S 9805   1.687   3.504   7.715 -0.7866  0.0883  1.5814
   98SAPS  C214 9806   1.486   3.554   7.680  0.2438 -0.2945 -0.6372
   98SAPS  H14R 9807   1.418   3.577   7.597  2.4549  0.3073 -2.3653
   98SAPS  C215 9808   1.439   3.526   7.806  0.0260 -0.3449  0.1239
   98SAPS  H15R 9809   1.330   3.522   7.820  0.1528 -0.7219  1.1303
   98SAPS  C216 9810   1.514   3.503   7.933  0.0011  0.3597  0.5234
   98SAPS  H16R 9811   1.619   3.526   7.903  0.5894 -0.2456  2.0259
   98SAPS  H16S 9812   1.517   3.399   7.971  2.0500  0.2404  0.1812
   98SAPS  C217 9813   1.476   3.596   8.048  0.6514  0.5001  0.5742
   98SAPS  H17R 9814   1.492   3.556   8.151  1.4126 -0.1515  0.2134
   98SAPS  H17S 9815   1.368   3.621   8.048  0.3694 -0.6542  0.2899
   98SAPS  C218 9816   1.570   3.713   8.057 -0.2948  0.3772  0.1371
   98SAPS  H18R 9817   1.591   3.763   7.960  2.0871 -0.7122  0.0188
   98SAPS  H18S 9818   1.670   3.665   8.071  0.5074  2.0747  0.4216
   98SAPS  C219 9819   1.551   3.808   8.176  0.4195 -0.1132  0.4201
   98SAPS  H19R 9820   1.441   3.826   8.174  0.2300 -1.2553 -0.3647
   98SAPS  H19S 9821   1.590   3.909   8.152 -1.2058  1.0353  2.3329
   98SAPS  C220 9822   1.612   3.751   8.306 -0.0672 -0.2389 -0.1339
   98SAPS  H20R 9823   1.613   3.821   8.391  0.8631  0.5568 -0.7763
   98SAPS  H20S 9824   1.719   3.730   8.283 -0.2318 -2.3599  0.7615
   98SAPS  H20T 9825   1.557   3.658   8.332 -1.2912  0.0989 -1.3321
   98SAPS   C33 9826   2.396   2.785   6.575 -0.4878 -0.0679 -0.0415
   98SAPS   H3X 9827   2.493   2.801   6.625  0.3199  1.3006 -1.9285
   98SAPS   H3Y 9828   2.421   2.731   6.481 -2.0278 -3.3821  1.2823
   98SAPS   C34 9829   2.311   2.691   6.657  0.3498  0.0345 -0.7017
   98SAPS   H4X 9830   2.378   2.604   6.671  0.6786  0.5100  0.8959
   98SAPS   H4Y 9831   2.221   2.646   6.610  0.6681  0.7467 -2.0423
   98SAPS   C35 9832   2.285   2.741   6.809 -0.2273 -0.0871 -0.3254
   98SAPS   H5X 9833   2.214   2.826   6.799  0.4741  0.5763  0.1760
   98SAPS   H5Y 9834   2.379   2.771   6.860 -0.7077 -1.6838  1.6736
   98SAPS   C36 9835   2.223   2.632   6.896  0.4906 -0.2418 -0.2468
   98SAPS   H6X 9836   2.299   2.552   6.912 -0.1290 -0.6813  0.5866
   98SAPS   H6Y 9837   2.134   2.574   6.862  0.5614 -1.6760  1.8055
   98SAPS   C37 9838   2.194   2.687   7.042  0.6408 -0.5782  0.7912
   98SAPS   H7X 9839   2.123   2.770   7.024  2.6815  1.0778 -0.0262
   98SAPS   H7Y 9840   2.287   2.732   7.082  0.9474 -0.7788  0.3095
   98SAPS   C38 9841   2.145   2.578   7.136 -0.0240  0.4109 -0.3930
   98SAPS   H8X 9842   2.208   2.487   7.134 -0.6008 -0.0053 -0.0678
   98SAPS   H8Y 9843   2.041   2.553   7.105 -0.6321  0.4784  1.4669
   98SAPS   C39 9844   2.136   2.644   7.280  0.4665 -0.0056 -0.7589
   98SAPS   H9X 9845   2.070   2.732   7.265  1.1173  0.4880 -0.7895
   98SAPS   H9Y 9846   2.236   2.682   7.311  0.6563  0.0456 -1.4138
   98SAPS  C310 9847   2.070   2.552   7.386 -0.3550 -0.6902  0.4019
   98SAPS  H10X 9848   2.135   2.463   7.402 -1.0590 -1.1972  0.4847
   98SAPS  H10Y 9849   1.974   2.516   7.342 -0.9538  1.5414 -0.2592
   98SAPS  C311 9850   2.044   2.612   7.525 -0.4730 -0.0948  0.4732
   98SAPS  H11X 9851   1.992   2.710   7.538 -0.1707  0.0811  0.3654
   98SAPS  H11Y 9852   2.145   2.634   7.567 -0.7533 -1.6360  2.0528
   98SAPS  C312 9853   1.978   2.514   7.615 -0.7560  0.0556 -0.4634
   98SAPS  H12X 9854   1.998   2.408   7.589 -0.4490  0.3243 -1.3622
   98SAPS  H12Y 9855   1.869   2.529   7.604 -0.5863  1.6355 -0.1854
   98SAPS  C313 9856   2.010   2.544   7.768  0.1841 -0.1465  0.2942
   98SAPS  H13X 9857   1.982   2.650   7.787 -1.4282  0.1741 -3.0720
   98SAPS  H13Y 9858   2.117   2.525   7.791  0.3387 -0.3328 -0.5239
   98SAPS  C314 9859   1.939   2.434   7.851 -0.9200  0.0278  0.5292
   98SAPS  H14X 9860   2.011   2.351   7.870  0.5214  0.5649 -2.0491
   98SAPS  H14Y 9861   1.848   2.397   7.799 -0.5610  1.3320 -1.1417
   98SAPS  C315 9862   1.901   2.491   7.984 -0.1345 -0.2718  0.1175
   98SAPS  H15X 9863   1.822   2.569   7.971 -0.5089 -0.3756  1.5850
   98SAPS  H15Y 9864   1.997   2.525   8.028 -0.6168  2.1420 -0.5268
   98SAPS  C316 9865   1.840   2.395   8.082  0.2888  0.7304  0.2482
   98SAPS  H16X 9866   1.892   2.297   8.076 -1.7666 -0.3889 -0.5976
   98SAPS  H16Y 9867   1.735   2.374   8.053  0.6299  1.1921 -1.4011
   98SAPS  C317 9868   1.838   2.445   8.229  0.1598 -0.0771  0.5203
   98SAPS  H17X 9869   1.778   2.538   8.222 -0.6354 -0.6665 -1.4292
   98SAPS  H17Y 9870   1.941   2.468   8.265  0.7942  1.1424 -1.8890
   98SAPS  C318 9871   1.774   2.341   8.328 -0.0093 -0.4629  0.4520
   98SAPS  H18X 9872   1.831   2.246   8.338  1.2062  0.0054 -1.4006
   98SAPS  H18Y 9873   1.671   2.315   8.295  0.5833 -1.9117 -0.3597
   98SAPS  H18Z 9874   1.766   2.394   8.425 -0.4037  2.5710 -1.1113
   99SAPS     N 9875   0.558   2.154   6.440  0.3329  0.3434 -0.2487
   99SAPS   HN1 9876   0.468   2.135   6.487  1.3961 -2.1480  0.9855
   99SAPS   HN2 9877   0.617   2.069   6.427 -0.5596 -0.1107 -1.6203
   99SAPS   HN3 9878   0.618   2.210   6.504 -0.9326  2.1558 -0.5879
   99SAPS   C12 9879   0.537   2.251   6.323  0.1393  0.1311  0.0399
   99SAPS  H12A 9880   0.604   2.223   6.244 -0.4194  1.3706 -0.9033
   99SAPS   C13 9881   0.395   2.241   6.269  0.4969  0.2488  0.1203
   99SAPS  O13A 9882   0.320   2.147   6.307 -0.0589 -0.2109 -0.3688
   99SAPS  O13B 9883   0.365   2.308   6.166 -0.0043  0.4294  0.3321
   99SAPS   C11 9884   0.566   2.400   6.368  0.2451  0.1204  0.4253
   99SAPS  H11A 9885   0.556   2.463   6.277  2.4284 -0.9282 -0.6420
   99SAPS  H11B 9886   0.676   2.405   6.386  0.7670 -0.5915 -2.0603
   99SAPS     P 9887   0.522   2.563   6.557 -0.1198  0.0573 -0.1010
   99SAPS   O13 9888   0.592   2.656   6.472  0.0017  0.0860 -0.0592
   99SAPS   O14 9889   0.397   2.619   6.622 -0.6054  0.4323 -0.0189
   99SAPS   O12 9890   0.481   2.434   6.479  0.0540 -0.1722  0.0445
   99SAPS   O11 9891   0.611   2.503   6.665 -0.4329  0.6053  0.0288
   99SAPS    C1 9892   0.573   2.412   6.763  0.2112  0.4240 -0.2772
   99SAPS    HA 9893   0.468   2.377   6.756  1.0330 -1.8525 -2.4305
   99SAPS    HB 9894   0.644   2.327   6.770 -1.4540 -0.8964  2.0275
   99SAPS    C2 9895   0.576   2.478   6.907 -0.7829 -0.6318  0.6947
   99SAPS    HS 9896   0.579   2.395   6.981  1.1358  0.2525  1.6975
   99SAPS   O21 9897   0.465   2.566   6.925 -0.2066 -0.2576  0.0753
   99SAPS   C21 9898   0.343   2.499   6.952 -0.8722  0.3951 -1.0069
   99SAPS   O22 9899   0.340   2.380   6.965  0.2131  0.4417 -0.0682
   99SAPS   C22 9900   0.230   2.597   6.967  0.2617 -0.4742 -0.1751
   99SAPS   H2R 9901   0.257   2.670   7.047 -2.8812 -0.2185  0.7810
   99SAPS   H2S 9902   0.209   2.641   6.868 -0.2002 -0.9991 -0.3131
   99SAPS    C3 9903   0.714   2.548   6.940 -0.6901 -0.4335 -0.5510
   99SAPS    HX 9904   0.717   2.652   6.904 -0.9189 -1.0316 -2.4068
   99SAPS    HY 9905   0.784   2.490   6.876  0.5152  0.4659 -0.0789
   99SAPS   O31 9906   0.746   2.531   7.080  0.4796  0.0737  0.2987
   99SAPS   C31 9907   0.726   2.640   7.151 -0.4106 -0.1183  0.2118
   99SAPS   O32 9908   0.657   2.738   7.113  0.0677  0.3652 -0.0168
   99SAPS   C32 9909   0.798   2.616   7.282  0.5101  0.3478 -0.3343
   99SAPS   H2X 9910   0.907   2.630   7.266  0.7180  1.4473  1.6981
   99SAPS   H2Y 9911   0.796   2.506   7.294  1.6824  0.1104 -2.0000
   99SAPS   C23 9912   0.109   2.521   7.026  0.0050 -0.2398  0.9852
   99SAPS   H3R 9913   0.136   2.492   7.130 -1.4123  0.3754  1.5590
   99SAPS   H3S 9914   0.098   2.436   6.956 -0.8456  0.2348  0.5214
   99SAPS   C24 9915  -0.016   2.593   7.040  0.1150 -0.3785  0.5988
   99SAPS   H4R 9916  -0.038   2.663   6.956 -3.0446  1.5198  2.7770
   99SAPS   H4S 9917  -0.005   2.668   7.121  0.5497  0.5496 -0.2956
   99SAPS   C25 9918  -0.139   2.503   7.057 -0.2318  0.0468  0.2521
   99SAPS   H5R 9919  -0.137   2.410   6.998 -2.2335 -1.0054  1.7037
   99SAPS   C26 9920  -0.236   2.517   7.148  0.0392 -0.1583 -0.3076
   99SAPS   H6R 9921  -0.318   2.443   7.146  0.4067 -0.6347  1.2019
   99SAPS   C27 9922  -0.266   2.627   7.252 -0.1664  0.0415 -0.4186
   99SAPS   H7R 9923  -0.359   2.676   7.216 -0.1470 -0.1316 -0.7062
   99SAPS   H7S 9924  -0.194   2.711   7.241 -1.4028  0.8643 -2.8972
   99SAPS   C28 9925  -0.267   2.586   7.397  0.0723 -0.2293 -0.5344
   99SAPS   H8R 9926  -0.177   2.534   7.434  0.5003  0.5254 -0.4861
   99SAPS   C29 9927  -0.374   2.591   7.480 -0.4895  0.2926 -0.2024
   99SAPS   H9R 9928  -0.351   2.563   7.584  0.5101  1.9355  0.0530
   99SAPS  C210 9929  -0.513   2.640   7.446  1.3168  0.5696 -0.5123
   99SAPS  H10R 9930  -0.593   2.573   7.486  1.4678  1.1065  0.7328
   99SAPS  H10S 9931  -0.538   2.627   7.339 -0.8865  1.9375 -0.2336
   99SAPS  C211 9932  -0.531   2.784   7.484  0.4086 -0.4642  0.6319
   99SAPS  H11R 9933  -0.470   2.845   7.416 -0.8542 -2.0483 -2.0421
   99SAPS  C212 9934  -0.609   2.837   7.582  0.8289  0.2750  0.0364
   99SAPS  H12R 9935  -0.586   2.941   7.608  4.5105 -0.2627 -0.5541
   99SAPS  C213 9936  -0.693   2.746   7.681 -0.2279  0.6113  0.1006
   99SAPS  H13R 9937  -0.672   2.778   7.785  0.1103  0.3099  0.1258
   99SAPS  H13S 9938  -0.662   2.641   7.664  2.4281  1.1936  0.8962
   99SAPS  C214 9939  -0.843   2.748   7.668  1.0482  0.3599 -0.4561
   99SAPS  H14R 9940  -0.878   2.788   7.572 -0.0321  0.5548  0.0102
   99SAPS  C215 9941  -0.924   2.692   7.762 -0.6136  0.3651  0.0824
   99SAPS  H15R 9942  -1.033   2.690   7.745 -0.5753 -1.3987 -0.1214
   99SAPS  C216 9943  -0.887   2.620   7.892 -0.3468 -0.5108 -0.5106
   99SAPS  H16R 9944  -0.778   2.601   7.899  0.6707  3.5942 -2.1715
   99SAPS  H16S 9945  -0.944   2.525   7.899 -0.4670 -0.3256  1.3445
   99SAPS  C217 9946  -0.933   2.703   8.016 -0.6103  0.2169 -0.2387
   99SAPS  H17R 9947  -1.042   2.721   8.005 -0.5597  1.6302  1.2153
   99SAPS  H17S 9948  -0.888   2.803   8.025  2.3093 -1.0316 -0.0319
   99SAPS  C218 9949  -0.912   2.619   8.146 -0.3298  0.0404  0.5502
   99SAPS  H18R 9950  -0.806   2.624   8.180  0.3730  2.2383 -1.6076
   99SAPS  H18S 9951  -0.948   2.515   8.131 -0.4810  0.0168  1.0632
   99SAPS  C219 9952  -0.998   2.669   8.257 -0.3895 -0.2890 -0.3206
   99SAPS  H19R 9953  -1.106   2.654   8.237 -0.4011  1.2471 -1.6026
   99SAPS  H19S 9954  -0.974   2.777   8.255  1.9947 -0.7609 -1.3592
   99SAPS  C220 9955  -0.951   2.609   8.394  0.0203 -0.2557 -0.5009
   99SAPS  H20R 9956  -0.935   2.499   8.388 -1.6688 -0.4926 -1.2217
   99SAPS  H20S 9957  -1.027   2.632   8.472  0.2581 -2.3732  0.4419
   99SAPS  H20T 9958  -0.851   2.642   8.428 -0.8315  2.0645 -0.0537
   99SAPS   C33 9959   0.748   2.681   7.412 -0.5317 -0.5007  0.8620
   99SAPS   H3X 9960   0.647   2.727   7.402 -0.7945 -1.2780 -0.2518
   99SAPS   H3Y 9961   0.816   2.769   7.418  0.9936 -1.6184  0.4162
   99SAPS   C34 9962   0.750   2.605   7.539  0.3197  0.6383 -0.9082
   99SAPS   H4X 9963   0.856   2.573   7.550 -0.3856 -1.9291 -0.9250
   99SAPS   H4Y 9964   0.693   2.512   7.519  0.8691  0.2609 -0.7497
   99SAPS   C35 9965   0.692   2.659   7.671 -0.8224 -0.6357  0.4121
   99SAPS   H5X 9966   0.585   2.671   7.645 -0.4287  0.3358 -0.8517
   99SAPS   H5Y 9967   0.745   2.756   7.681 -4.1591  1.4458 -0.3659
   99SAPS   C36 9968   0.718   2.575   7.789 -0.2823  0.2886  0.0676
   99SAPS   H6X 9969   0.817   2.527   7.774 -0.3215 -0.2759  1.4729
   99SAPS   H6Y 9970   0.645   2.492   7.780  1.4415 -1.1932 -0.9379
   99SAPS   C37 9971   0.703   2.641   7.931  0.0097  0.3590  0.6060
   99SAPS   H7X 9972   0.724   2.571   8.015 -1.2488 -0.2366  0.4376
   99SAPS   H7Y 9973   0.593   2.655   7.928  0.2384  2.2791 -0.3987
   99SAPS   C38 9974   0.790   2.769   7.944 -0.3212  0.6387  0.5890
   99SAPS   H8X 9975   0.757   2.849   7.874 -2.9229 -0.0146  0.9875
   99SAPS   H8Y 9976   0.892   2.733   7.917 -0.8846 -0.9052  0.4222
   99SAPS   C39 9977   0.796   2.821   8.086 -0.9218  0.0193 -0.3752
   99SAPS   H9X 9978   0.694   2.837   8.127 -1.2407  1.5237 -1.6617
   99SAPS   H9Y 9979   0.863   2.910   8.079 -0.1431 -0.3078  1.9220
   99SAPS  C310 9980   0.868   2.723   8.190  0.2497 -0.0002  0.1509
   99SAPS  H10X 9981   0.969   2.684   8.166  0.8427  1.0316  0.8866
   99SAPS  H10Y 9982   0.814   2.626   8.190 -1.9291  1.1328 -0.6146
   99SAPS  C311 9983   0.872   2.771   8.333 -0.1244  0.0518 -0.7828
   99SAPS  H11X 9984   0.777   2.796   8.384  0.3275 -1.5848  0.9647
   99SAPS  H11Y 9985   0.932   2.864   8.322 -0.6622  0.3633 -1.1088
   99SAPS  C312 9986   0.965   2.676   8.420  0.0213 -0.0671 -0.9930
   99SAPS  H12X 9987   1.069   2.711   8.406 -0.5171  2.6068  0.9284
   99SAPS  H12Y 9988   0.967   2.574   8.376  1.5634 -0.0901 -0.9000
   99SAPS  C313 9989   0.943   2.675   8.569  0.5581 -0.7912  0.0733
   99SAPS  H13X 9990   0.841   2.642   8.598  0.1524  0.0217 -0.4081
   99SAPS  H13Y 9991   0.958   2.780   8.602 -1.1065 -0.4786 -0.1280
   99SAPS  C314 9992   1.054   2.599   8.644  0.5519  0.4136  0.2934
   99SAPS  H14X 9993   1.151   2.645   8.616  1.0720 -1.6662 -1.6565
   99SAPS  H14Y 9994   1.041   2.495   8.606 -1.5597  0.6219  0.3222
   99SAPS  C315 9995   1.040   2.618   8.793 -0.0959  0.4467  0.5681
   99SAPS  H15X 9996   0.936   2.580   8.800  0.7213 -2.2623 -0.5933
   99SAPS  H15Y 9997   1.038   2.723   8.827  0.7432  0.0071  2.0587
   99SAPS  C316 9998   1.149   2.536   8.865 -0.1178  0.1652 -0.0551
   99SAPS  H16X 9999   1.242   2.595   8.854 -0.3018  0.8323  1.6519
   99SAPS  H16Y10000   1.162   2.442   8.807 -1.0735 -0.1833  0.2743
   99SAPS  C31710001   1.115   2.482   9.004  0.6230 -0.8023  0.3954
   99SAPS  H17X10002   1.113   2.569   9.073 -0.8358 -0.8425  0.4286
   99SAPS  H17Y10003   1.200   2.427   9.050  0.8143 -1.0863 -0.2835
   99SAPS  C31810004   0.979   2.406   9.007  0.3521 -0.3949 -0.4686
   99SAPS  H18X10005   0.883   2.461   9.005  1.1384  1.0114 -0.9812
   99SAPS  H18Y10006   0.970   2.356   9.106 -1.2943 -0.2924 -0.5435
   99SAPS  H18Z10007   0.990   2.329   8.928  1.0361 -0.5431 -0.2349
  100SAPS     N10008   3.342   4.555   6.002  0.2791  0.5591 -0.1233
  100SAPS   HN110009   3.251   4.551   5.950 -0.2178  3.0966  0.4134
  100SAPS   HN210010   3.323   4.537   6.102 -0.9556 -0.2771 -0.4899
  100SAPS   HN310011   3.371   4.655   5.991  0.9691  0.5265  1.2488
  100SAPS   C1210012   3.444   4.468   5.942  0.0308 -0.8472  0.4822
  100SAPS  H12A10013   3.424   4.362   5.954  0.5510 -1.0360 -0.1975
  100SAPS   C1310014   3.451   4.482   5.787 -0.2806 -0.4186 -0.2053
  100SAPS  O13A10015   3.367   4.558   5.728 -0.6420  0.1836 -0.5065
  100SAPS  O13B10016   3.551   4.432   5.730  0.2351  0.1328 -0.0708
  100SAPS   C1110017   3.578   4.498   6.008 -0.2566 -0.0747 -0.0835
  100SAPS  H11A10018   3.604   4.606   5.996 -0.3084 -0.0737 -0.1921
  100SAPS  H11B10019   3.660   4.437   5.966 -0.3936 -2.4934  2.8839
  100SAPS     P10020   3.570   4.577   6.263  0.0258  0.1073  0.2524
  100SAPS   O1310021   3.694   4.658   6.260  0.0138 -0.6639 -0.0021
  100SAPS   O1410022   3.443   4.649   6.246 -0.1931  0.6096  0.2418
  100SAPS   O1210023   3.577   4.462   6.152  0.4779 -0.7967 -0.3455
  100SAPS   O1110024   3.561   4.494   6.401  0.3418 -0.1956  0.0621
  100SAPS    C110025   3.459   4.388   6.421  0.5575 -0.2008  0.2156
  100SAPS    HA10026   3.387   4.388   6.336 -0.9907 -1.7553  1.4497
  100SAPS    HB10027   3.516   4.294   6.406  0.1110 -0.5485  0.6866
  100SAPS    C210028   3.390   4.389   6.553  0.4815 -0.5050 -0.7719
  100SAPS    HS10029   3.309   4.466   6.552 -0.4596 -1.4278 -2.9609
  100SAPS   O2110030   3.492   4.417   6.643 -0.2810  0.0093 -0.8752
  100SAPS   C2110031   3.510   4.546   6.671 -0.2394 -0.0538 -0.2524
  100SAPS   O2210032   3.442   4.639   6.627 -0.1027 -0.2872  0.9661
  100SAPS   C2210033   3.616   4.573   6.781 -0.3297  0.1705  0.1283
  100SAPS   H2R10034   3.651   4.478   6.826 -0.2053  0.0688 -0.1805
  100SAPS   H2S10035   3.705   4.623   6.737  0.0503  0.8653  1.6158
  100SAPS    C310036   3.325   4.254   6.590  0.3303 -1.3200 -0.1960
  100SAPS    HX10037   3.402   4.174   6.594  3.6515  1.6702  3.1606
  100SAPS    HY10038   3.250   4.237   6.509 -1.1474  3.3970 -0.1599
  100SAPS   O3110039   3.253   4.284   6.711 -0.1417  0.0606  0.3801
  100SAPS   C3110040   3.173   4.189   6.752  0.2580 -0.0600  0.3630
  100SAPS   O3210041   3.163   4.082   6.698 -0.2823 -0.1226 -0.2712
  100SAPS   C3210042   3.089   4.238   6.876 -0.7200 -0.1710  0.2542
  100SAPS   H2X10043   3.004   4.299   6.839  0.6202  3.0174  1.9622
  100SAPS   H2Y10044   3.166   4.298   6.931  0.5818 -2.1208  0.6591
  100SAPS   C2310045   3.549   4.657   6.895  0.1711  0.0327 -0.0255
  100SAPS   H3R10046   3.455   4.607   6.927  0.5074  0.5365  1.8442
  100SAPS   H3S10047   3.520   4.755   6.852 -1.7784 -0.9273 -1.0635
  100SAPS   C2410048   3.640   4.664   7.017  0.1516  0.1679  0.1445
  100SAPS   H4R10049   3.738   4.704   6.986 -0.2260 -0.3409 -1.8176
  100SAPS   H4S10050   3.664   4.564   7.059  0.1608 -0.9181 -2.2795
  100SAPS   C2510051   3.584   4.763   7.112 -0.4959  0.1928  0.3088
  100SAPS   H5R10052   3.513   4.830   7.061  0.7356  1.3173  0.0123
  100SAPS   C2610053   3.611   4.765   7.241 -0.1395 -0.1060  0.6963
  100SAPS   H6R10054   3.568   4.841   7.307 -2.4051 -1.5239  0.9488
  100SAPS   C2710055   3.704   4.667   7.312 -0.3400  0.4169 -0.3090
  100SAPS   H7R10056   3.785   4.734   7.348 -1.2260  0.8636  0.9180
  100SAPS   H7S10057   3.745   4.592   7.241 -0.1685  0.5803 -0.3861
  100SAPS   C2810058   3.635   4.603   7.428 -0.4331  0.0828 -0.1841
  100SAPS   H8R10059   3.600   4.498   7.422  0.0988 -0.0927 -0.2971
  100SAPS   C2910060   3.595   4.656   7.543 -0.0408  0.4935 -0.4481
  100SAPS   H9R10061   3.567   4.586   7.622  3.6826  0.8074  1.3836
  100SAPS  C21010062   3.608   4.800   7.586  0.2172 -0.1257 -0.2544
  100SAPS  H10R10063   3.609   4.867   7.498 -1.7434 -0.5550 -0.6518
  100SAPS  H10S10064   3.702   4.818   7.642  0.6547  2.7864 -1.7607
  100SAPS  C21110065   3.484   4.849   7.667 -0.0622 -0.1399  0.1521
  100SAPS  H11R10066   3.412   4.905   7.605  0.0073  1.9993  1.9008
  100SAPS  C21210067   3.456   4.831   7.794  0.1982 -0.5223 -0.5142
  100SAPS  H12R10068   3.357   4.865   7.828  0.4360  1.5373 -1.7394
  100SAPS  C21310069   3.540   4.760   7.906  0.1722 -0.1753  0.0603
  100SAPS  H13R10070   3.578   4.833   7.981  0.7605 -1.5556  1.1531
  100SAPS  H13S10071   3.631   4.726   7.851 -0.4629  1.8936 -2.4607
  100SAPS  C21410072   3.473   4.647   7.973  0.0493 -0.4840  0.2585
  100SAPS  H14R10073   3.367   4.634   7.947 -0.0130 -0.6103  0.5678
  100SAPS  C21510074   3.511   4.575   8.081  0.4836  0.5132 -0.0919
  100SAPS  H15R10075   3.439   4.502   8.121 -0.0105  1.3180  0.5313
  100SAPS  C21610076   3.642   4.594   8.153  0.2216  0.3677  0.4586
  100SAPS  H16R10077   3.672   4.701   8.157 -0.1034  0.5056 -0.6020
  100SAPS  H16S10078   3.724   4.534   8.106  1.0616  1.6974  0.1784
  100SAPS  C21710079   3.629   4.554   8.308 -0.2156  0.7019  0.6595
  100SAPS  H17R10080   3.734   4.522   8.326 -0.8187 -2.8354 -1.0396
  100SAPS  H17S10081   3.575   4.458   8.325  3.4890 -1.5968  0.7020
  100SAPS  C21810082   3.584   4.660   8.410 -0.3300  0.7015  0.8624
  100SAPS  H18R10083   3.477   4.683   8.393 -0.0783  0.3716 -1.4947
  100SAPS  H18S10084   3.641   4.753   8.389  0.5104  0.1517  0.6462
  100SAPS  C21910085   3.605   4.607   8.550 -0.0320 -0.4040 -0.6326
  100SAPS  H19R10086   3.712   4.585   8.568  0.0710 -0.3103 -1.1142
  100SAPS  H19S10087   3.555   4.508   8.558  1.6748 -1.3346 -0.9187
  100SAPS  C22010088   3.542   4.698   8.658 -0.1574  0.3269 -0.0044
  100SAPS  H20R10089   3.601   4.792   8.664  0.0371  0.1561  0.9051
  100SAPS  H20S10090   3.552   4.653   8.759 -0.5690  1.0289  0.3618
  100SAPS  H20T10091   3.435   4.713   8.634 -0.2441  0.9072  0.7192
  100SAPS   C3310092   3.048   4.126   6.972  1.0059  0.2655  0.2146
  100SAPS   H3X10093   3.137   4.067   7.004 -0.0443 -1.8042 -0.5094
  100SAPS   H3Y10094   2.978   4.047   6.938  0.4062  1.0148 -0.3249
  100SAPS   C3410095   3.003   4.184   7.105  0.9584 -0.2417  0.3923
  100SAPS   H4X10096   3.086   4.244   7.148 -1.7402  2.7396  1.8649
  100SAPS   H4Y10097   2.983   4.100   7.176 -0.1902  1.1652  1.8064
  100SAPS   C3510098   2.872   4.266   7.096 -0.1492  0.3824 -0.7486
  100SAPS   H5X10099   2.781   4.206   7.072 -0.1004 -0.0629  0.1370
  100SAPS   H5Y10100   2.888   4.330   7.007  0.0741 -0.7686 -1.5603
  100SAPS   C3610101   2.842   4.352   7.218  0.6914  0.2203  0.3821
  100SAPS   H6X10102   2.745   4.403   7.199 -0.5870 -1.9716  0.6300
  100SAPS   H6Y10103   2.926   4.422   7.235  0.9769  0.3290 -1.2805
  100SAPS   C3710104   2.818   4.275   7.344 -0.6630 -0.6589 -0.6934
  100SAPS   H7X10105   2.896   4.196   7.352 -1.3794 -1.2746  0.4745
  100SAPS   H7Y10106   2.719   4.225   7.340 -0.6280 -0.8052  0.0466
  100SAPS   C3810107   2.821   4.357   7.472 -0.3801 -0.4500  0.2804
  100SAPS   H8X10108   2.750   4.441   7.453 -1.5106 -1.4242  0.0715
  100SAPS   H8Y10109   2.920   4.407   7.479  0.8148 -2.6946  0.1328
  100SAPS   C3910110   2.800   4.268   7.591  0.0601 -0.0113  0.2251
  100SAPS   H9X10111   2.885   4.197   7.598  0.0015  0.0698  2.6817
  100SAPS   H9Y10112   2.702   4.214   7.593  0.1236 -0.1121  0.8332
  100SAPS  C31010113   2.803   4.350   7.727 -0.8265 -0.6614  0.1516
  100SAPS  H10X10114   2.721   4.425   7.724 -2.1657 -2.1049 -0.4252
  100SAPS  H10Y10115   2.895   4.410   7.746 -1.7313  0.1951  2.1820
  100SAPS  C31110116   2.796   4.255   7.845  0.5758  0.7914  0.3141
  100SAPS  H11X10117   2.890   4.196   7.847  1.2241  1.5077 -2.9697
  100SAPS  H11Y10118   2.713   4.182   7.829 -0.6277  1.9064  1.2895
  100SAPS  C31210119   2.786   4.338   7.971  0.1210 -0.3165  0.3327
  100SAPS  H12X10120   2.688   4.389   7.987  0.1219 -0.4506  0.7826
  100SAPS  H12Y10121   2.867   4.415   7.973 -2.1928  2.3643 -1.4002
  100SAPS  C31310122   2.794   4.251   8.093 -0.6609  0.4772  0.4911
  100SAPS  H13X10123   2.893   4.200   8.090 -0.1817  1.3373 -3.8640
  100SAPS  H13Y10124   2.715   4.173   8.100 -0.7570  0.6749  2.1320
  100SAPS  C31410125   2.810   4.323   8.223  0.0095 -0.3303  0.2053
  100SAPS  H14X10126   2.731   4.400   8.233  1.0195  0.5176  2.2817
  100SAPS  H14Y10127   2.905   4.382   8.221 -0.0821 -0.1732 -2.2018
  100SAPS  C31510128   2.793   4.225   8.337  0.4282  0.0773 -0.5575
  100SAPS  H15X10129   2.857   4.137   8.313  1.0736 -0.3166  2.3286
  100SAPS  H15Y10130   2.686   4.196   8.336 -0.0226  1.6516 -0.9811
  100SAPS  C31610131   2.847   4.271   8.467 -0.0155  0.2290 -0.2694
  100SAPS  H16X10132   2.813   4.376   8.483 -1.3822 -0.0481 -1.1915
  100SAPS  H16Y10133   2.957   4.277   8.461  0.0616 -0.7852  0.0336
  100SAPS  C31710134   2.802   4.182   8.585 -0.3580  0.8461 -0.3548
  100SAPS  H17X10135   2.843   4.082   8.563 -0.6270  0.1703  1.9818
  100SAPS  H17Y10136   2.692   4.171   8.597  0.0117 -0.3384  2.6021
  100SAPS  C31810137   2.860   4.222   8.720  0.6637  0.4742 -0.4586
  100SAPS  H18X10138   2.872   4.137   8.791 -0.6691 -0.0621 -0.8439
  100SAPS  H18Y10139   2.801   4.300   8.773  0.1798 -1.1399  1.5142
  100SAPS  H18Z10140   2.964   4.260   8.723 -0.1774  2.9940  3.1244
  101OSM      N10141   1.383   3.778  11.199 -0.5179 -0.4380 -0.8272
  101OSM    C1510142   1.403   3.928  11.169  0.7032  0.0441  0.0864
  101OSM   H15A10143   1.330   3.991  11.218  0.2448  0.1817 -0.7549
  101OSM   H15B10144   1.378   3.949  11.066 -2.2001  1.2482  0.9214
  101OSM   H15C10145   1.507   3.955  11.180  1.1568 -0.8459 -1.6997
  101OSM    C1410146   1.403   3.756  11.347 -0.7438 -0.4076 -0.3533
  101OSM   H14A10147   1.331   3.814  11.403 -0.6725  0.6793 -1.3415
  101OSM   H14B10148   1.505   3.773  11.379 -1.4536 -1.4997  2.9459
  101OSM   H14C10149   1.375   3.657  11.381 -1.8838  0.4316  1.3031
  101OSM    C1310150   1.242   3.733  11.173  0.0985  0.8404  0.4895
  101OSM   H13A10151   1.237   3.632  11.209  1.5265  0.6276  0.1447
  101OSM   H13B10152   1.213   3.727  11.069  1.7440 -0.7515  0.0724
  101OSM   H13C10153   1.178   3.786  11.242  1.4575 -2.0440  4.2768
  101OSM    C1210154   1.480   3.689  11.126  0.0920  0.3645 -0.1079
  101OSM   H12A10155   1.471   3.587  11.161  1.1823  0.4100  0.3423
  101OSM   H12B10156   1.584   3.709  11.146  0.1894  0.2883 -0.5326
  101OSM    C1110157   1.470   3.677  10.971  0.2865  0.0618  0.0841
  101OSM   H11A10158   1.560   3.630  10.927  0.1062  2.2298 -2.9690
  101OSM   H11B10159   1.473   3.784  10.943 -1.4241  0.2093  0.3357
  101OSM      P10160   1.327   3.460  10.958  0.3199 -0.4486 -0.2240
  101OSM    O1310161   1.422   3.423  11.068  0.3996  0.0876  0.0743
  101OSM    O1410162   1.183   3.449  10.974 -0.0858  0.7620 -0.3092
  101OSM    O1110163   1.365   3.376  10.831  0.1972  0.0685  0.1427
  101OSM    O1210164   1.351   3.611  10.926  0.2677 -0.8370  0.2315
  101OSM    C1S10165   1.311   3.417  10.697 -0.4053  0.4760  0.4555
  101OSM    H1S10166   1.275   3.522  10.692  1.6684  1.1939 -0.5391
  101OSM    H1T10167   1.239   3.338  10.664  0.4634  0.3979 -1.4046
  101OSM     NF10168   1.365   3.454  10.450  0.2006 -0.2539  0.7818
  101OSM    HNF10169   1.376   3.394  10.371 -0.7846  0.1350  0.3424
  101OSM    C2S10170   1.415   3.402  10.576  0.4868 -0.2433  0.8117
  101OSM    H2S10171   1.501   3.468  10.599 -0.3338  0.0563  3.3932
  101OSM    C3S10172   1.471   3.260  10.565 -0.2572  0.1782  0.7923
  101OSM    H3S10173   1.390   3.197  10.524 -0.6734  1.2208 -0.0388
  101OSM     O310174   1.511   3.205  10.690  0.3186 -0.1461 -0.1063
  101OSM    HO310175   1.476   3.263  10.758 -2.1774 -0.8870 -0.6806
  101OSM    C4S10176   1.577   3.256  10.467 -0.8348  0.1745 -0.4650
  101OSM    H4S10177   1.534   3.230  10.369  0.9304 -1.9594 -0.7394
  101OSM    C5S10178   1.714   3.275  10.471  0.4224 -0.1042 -0.2745
  101OSM    H5S10179   1.757   3.329  10.556 -1.2986  2.8118 -1.0925
  101OSM    C6S10180   1.795   3.270  10.344  0.1001 -0.0376  0.0983
  101OSM    H6S10181   1.869   3.187  10.346  0.1999  0.0002 -1.1569
  101OSM    H6T10182   1.848   3.368  10.339  0.1506 -0.0506  0.3891
  101OSM    C7S10183   1.723   3.248  10.212 -0.3782 -0.3304  0.9928
  101OSM    H7S10184   1.639   3.320  10.199 -0.2739 -0.7791 -4.2013
  101OSM    H7T10185   1.675   3.147  10.211  1.9426 -1.4940 -0.3285
  101OSM    C8S10186   1.814   3.247  10.088 -0.0739  0.4208 -0.9761
  101OSM    H8S10187   1.905   3.187  10.109  1.5396  3.3432  1.1160
  101OSM    H8T10188   1.864   3.345  10.072  0.4897  0.1666 -0.7933
  101OSM    C9S10189   1.741   3.215   9.960 -0.1472 -0.3307 -0.0576
  101OSM    H9S10190   1.660   3.290   9.945  0.2849 -0.1247 -1.4800
  101OSM    H9T10191   1.687   3.117   9.966  2.7801 -2.0224  0.5015
  101OSM   C10S10192   1.836   3.221   9.840 -0.4489  0.3825 -0.4794
  101OSM   H10S10193   1.917   3.145   9.846 -0.4446  0.4869  2.0205
  101OSM   H10T10194   1.877   3.325   9.841  1.6388 -0.3125  2.6594
  101OSM   C11S10195   1.756   3.199   9.707 -0.0972  0.8604 -0.4703
  101OSM   H11S10196   1.686   3.285   9.696 -2.1992 -0.9238 -2.2174
  101OSM   H11T10197   1.703   3.102   9.722  0.6452  0.6074  0.6727
  101OSM   C12S10198   1.845   3.192   9.588  0.9386 -0.1620 -0.5165
  101OSM   H12S10199   1.911   3.103   9.595 -1.4646 -2.0739 -1.0043
  101OSM   H12T10200   1.915   3.277   9.576 -0.1627  0.6920 -1.1323
  101OSM   C13S10201   1.760   3.175   9.461  0.4547  0.0887 -0.3936
  101OSM   H13S10202   1.696   3.265   9.453  1.2046  0.8998  1.8836
  101OSM   H13T10203   1.698   3.084   9.470 -0.6759  0.7330 -1.4672
  101OSM   C14S10204   1.838   3.154   9.333  0.0943  0.4852  0.0469
  101OSM   H14S10205   1.909   3.072   9.358  1.4852  2.3591  2.7744
  101OSM   H14T10206   1.897   3.247   9.318 -1.1414  1.6360  1.8442
  101OSM   C15S10207   1.739   3.128   9.216 -0.1235  0.1907  0.0284
  101OSM   H15S10208   1.658   3.204   9.213 -0.2367  0.0642 -0.1186
  101OSM   H15T10209   1.690   3.031   9.234 -2.1115  0.7633 -1.8984
  101OSM   C16S10210   1.806   3.121   9.074 -0.3438  0.3350 -0.0381
  101OSM   H16S10211   1.814   3.224   9.033 -0.7472 -0.5663 -2.5274
  101OSM   H16T10212   1.730   3.077   9.007 -1.0240  2.1480 -0.5312
  101OSM   C17S10213   1.942   3.057   9.066  0.6515 -0.2863 -0.0849
  101OSM   H17S10214   1.934   2.964   9.126 -1.7056 -0.8748 -1.1682
  101OSM   H17T10215   2.020   3.122   9.111  0.0894  1.4449 -1.4956
  101OSM   C18S10216   1.972   2.999   8.931 -0.3111 -0.1696 -0.6005
  101OSM   H18S10217   1.992   3.079   8.857  1.4552 -0.9618 -1.0247
  101OSM   H18T10218   1.885   2.944   8.889  0.8792 -1.8519 -0.9940
  101OSM   H18U10219   2.058   2.929   8.935 -0.0164  0.0980 -1.8711
  101OSM    C1F10220   1.317   3.578  10.428 -0.6806  0.3445 -0.3427
  101OSM     OF10221   1.340   3.669  10.510 -0.0251  0.1642  0.2411
  101OSM    C2F10222   1.257   3.597  10.285  0.3734 -0.4127 -0.2972
  101OSM    H2F10223   1.216   3.500  10.251  0.2640 -1.1931  1.9217
  101OSM    H2G10224   1.333   3.627  10.210  1.3285  0.5909  1.0257
  101OSM    C3F10225   1.159   3.720  10.268  0.4771  0.2491 -0.1334
  101OSM    H3F10226   1.073   3.708  10.338  0.5123  1.3887  0.1219
  101OSM    H3G10227   1.111   3.712  10.168 -1.1041  1.9067  0.4384
  101OSM    C4F10228   1.215   3.860  10.293  1.0568 -0.5831  0.4779
  101OSM    H4F10229   1.306   3.865  10.229  1.3448  1.1847  0.9724
  101OSM    H4G10230   1.242   3.890  10.397 -0.6425  0.1144  0.7514
  101OSM    C5F10231   1.106   3.954  10.241 -0.3628  0.1473  0.0043
  101OSM    H5F10232   1.141   4.055  10.272 -0.4491  0.1701  0.0269
  101OSM    H5G10233   1.010   3.943  10.296  0.8522 -0.3843  2.1444
  101OSM    C6F10234   1.083   3.945  10.086 -0.2399  0.3992  0.1239
  101OSM    H6F10235   1.010   4.022  10.054 -1.6524 -0.4355  1.2017
  101OSM    H6G10236   1.039   3.846  10.060 -1.1641  0.4847  1.2931
  101OSM    C7F10237   1.200   3.976   9.992 -0.3305 -0.2873 -0.6419
  101OSM    H7F10238   1.254   3.880   9.984 -0.0801 -0.3179  0.9818
  101OSM    H7G10239   1.265   4.050  10.045 -0.5579  0.3570 -1.2513
  101OSM    C8F10240   1.164   4.054   9.868  0.1873 -0.6450  1.2220
  101OSM    H8F10241   1.254   4.102   9.822  0.9820  0.8303  4.0686
  101OSM    H8G10242   1.095   4.138   9.887 -1.7768 -1.9032  0.0111
  101OSM    C9F10243   1.094   3.952   9.776 -0.6802 -0.2707 -0.2100
  101OSM    H9F10244   0.988   3.929   9.796 -1.2055  1.5676 -0.6183
  101OSM   C10F10245   1.149   3.882   9.671 -1.1179 -0.3645  0.4647
  101OSM   H10F10246   1.091   3.805   9.618  0.1726 -0.4281 -0.9289
  101OSM   C11F10247   1.294   3.875   9.618  0.7165 -0.0139  0.4287
  101OSM   H11F10248   1.337   3.773   9.617 -3.0547 -1.7481 -0.1695
  101OSM   H11G10249   1.362   3.936   9.682  1.0690  0.3551 -0.2913
  101OSM   C12F10250   1.302   3.941   9.478  0.5631 -0.0841  0.3716
  101OSM   H12F10251   1.232   3.888   9.410 -0.6013 -0.8029  2.0375
  101OSM   H12G10252   1.397   3.912   9.428 -0.5445 -1.8488 -0.8032
  101OSM   C13F10253   1.294   4.091   9.473 -0.0176 -0.0756  0.0402
  101OSM   H13F10254   1.354   4.140   9.552 -0.6653 -0.0968  0.5579
  101OSM   H13G10255   1.188   4.122   9.490 -0.2119 -0.5366 -0.3186
  101OSM   C14F10256   1.318   4.154   9.332 -0.8251  0.1637  1.0456
  101OSM   H14F10257   1.426   4.143   9.306 -0.5453  2.3264  1.0644
  101OSM   H14G10258   1.322   4.265   9.332  1.9389  0.1693 -0.7505
  101OSM   C15F10259   1.229   4.099   9.215 -0.4080  0.4477 -0.0793
  101OSM   H15F10260   1.149   4.044   9.269 -2.2414  2.3151 -0.7504
  101OSM   H15G10261   1.296   4.027   9.165 -0.4641  2.0509 -2.6150
  101OSM   C16F10262   1.163   4.190   9.123 -0.3551 -0.1733  0.2102
  101OSM   H16F10263   1.126   4.275   9.183 -0.7273  0.6189 -1.1025
  101OSM   H16G10264   1.070   4.143   9.085  0.4017  0.4394 -2.6016
  101OSM   C17F10265   1.250   4.236   9.000  0.0938 -0.4825 -0.0026
  101OSM   H17F10266   1.333   4.298   9.039 -0.6111  1.8205 -1.8718
  101OSM   H17G10267   1.193   4.310   8.940 -1.3071  0.1082  1.9635
  101OSM   C18F10268   1.283   4.118   8.917  0.6990  0.2008  0.8993
  101OSM   H18F10269   1.333   4.147   8.822  0.0853 -0.0638  0.4866
  101OSM   H18G10270   1.193   4.058   8.893  0.0992  1.2786  0.4436
  101OSM   H18H10271   1.348   4.044   8.970  1.2713 -0.0993 -0.1916
  102OSM      N10272   2.060   4.154  11.084  0.4774 -0.4448  0.4995
  102OSM    C1510273   1.994   4.242  11.178 -0.3333  0.3012 -0.1935
  102OSM   H15A10274   2.017   4.214  11.280 -0.5646 -0.4028 -0.3353
  102OSM   H15B10275   1.887   4.244  11.169 -0.3816 -0.6397  0.0858
  102OSM   H15C10276   2.025   4.345  11.167 -0.0255  0.5729  2.4812
  102OSM    C1410277   2.203   4.172  11.115 -0.0063  0.3718  0.0583
  102OSM   H14A10278   2.236   4.272  11.091  1.0643  0.2849  1.0565
  102OSM   H14B10279   2.259   4.109  11.048 -2.1101  2.3034 -3.8361
  102OSM   H14C10280   2.228   4.158  11.220 -2.0630  1.7907  0.7934
  102OSM    C1310281   2.029   4.016  11.115 -0.2018 -0.2882 -0.3084
  102OSM   H13A10282   2.105   3.947  11.081 -0.3297 -1.9216  2.4357
  102OSM   H13B10283   1.929   3.983  11.089 -0.3395 -0.0205 -0.1186
  102OSM   H13C10284   2.037   4.006  11.222 -1.3684 -1.3962 -0.3044
  102OSM    C1210285   2.021   4.204  10.948  0.0032 -0.2386  0.9967
  102OSM   H12A10286   2.039   4.119  10.885  1.5955  0.6011  0.2455
  102OSM   H12B10287   2.093   4.281  10.924 -1.6622  0.9426 -0.4431
  102OSM    C1110288   1.881   4.261  10.903  0.1837  0.7784 -0.0593
  102OSM   H11A10289   1.816   4.171  10.912 -0.8749  1.6999  2.3311
  102OSM   H11B10290   1.898   4.287  10.797 -0.2331 -1.9270 -0.8573
  102OSM      P10291   1.699   4.448  10.953  0.0232 -0.0101  0.1860
  102OSM    O1310292   1.590   4.376  11.035  0.3226 -0.0158  0.0817
  102OSM    O1410293   1.723   4.593  10.986 -0.0188  0.4355 -0.4002
  102OSM    O1110294   1.676   4.427  10.801 -0.6105  0.2276 -0.0793
  102OSM    O1210295   1.838   4.373  10.969  0.3786  0.4543 -0.1122
  102OSM    C1S10296   1.550   4.444  10.730  0.6188  0.0435  0.3484
  102OSM    H1S10297   1.523   4.552  10.737 -3.0017 -0.6190 -1.1350
  102OSM    H1T10298   1.466   4.381  10.767  1.6185 -1.0315  0.8482
  102OSM     NF10299   1.472   4.481  10.493 -0.2549  0.6336 -0.0028
  102OSM    HNF10300   1.392   4.429  10.463 -0.0859  0.6446 -0.4747
  102OSM    C2S10301   1.568   4.410  10.575 -0.0946 -0.2902 -0.0493
  102OSM    H2S10302   1.668   4.450  10.550 -0.9541  0.5079 -2.5172
  102OSM    C3S10303   1.567   4.256  10.561 -0.3015  0.1436 -0.6651
  102OSM    H3S10304   1.471   4.215  10.599 -0.7079  2.9009  1.6080
  102OSM     O310305   1.668   4.199  10.638  0.2138  0.0634 -0.2290
  102OSM    HO310306   1.694   4.269  10.698  0.8949 -0.3094 -0.0802
  102OSM    C4S10307   1.597   4.231  10.420  0.2453 -0.0143  0.6826
  102OSM    H4S10308   1.701   4.260  10.397  0.1712  0.5357  1.0429
  102OSM    C5S10309   1.521   4.167  10.329  0.7327 -1.0454 -0.8701
  102OSM    H5S10310   1.419   4.134  10.355  0.8015  0.6615  2.0045
  102OSM    C6S10311   1.570   4.139  10.185  0.3231 -1.0922 -0.0117
  102OSM    H6S10312   1.489   4.175  10.118  0.1974 -2.1716 -0.4471
  102OSM    H6T10313   1.572   4.030  10.168 -0.7108 -1.3249  1.1897
  102OSM    C7S10314   1.701   4.191  10.128 -0.3979  0.0637 -0.2018
  102OSM    H7S10315   1.765   4.155  10.212  0.8689  0.1862 -1.0801
  102OSM    H7T10316   1.711   4.301  10.115 -0.8182  0.0943 -0.2637
  102OSM    C8S10317   1.754   4.121  10.005 -0.4019  0.1664  0.0491
  102OSM    H8S10318   1.739   4.013  10.025 -0.5611 -0.2236 -1.8984
  102OSM    H8T10319   1.865   4.128  10.001 -0.2062 -0.8207  2.4759
  102OSM    C9S10320   1.681   4.168   9.877  0.0031  0.3588 -0.2821
  102OSM    H9S10321   1.660   4.277   9.869 -0.8833  0.2655  0.5415
  102OSM    H9T10322   1.584   4.114   9.870  0.0341  0.0173  1.4990
  102OSM   C10S10323   1.753   4.120   9.744  0.3769 -0.0670  0.0719
  102OSM   H10S10324   1.756   4.011   9.766 -0.3079 -0.1756 -0.3530
  102OSM   H10T10325   1.849   4.175   9.734 -1.1893  3.0452  1.1305
  102OSM   C11S10326   1.682   4.133   9.606  0.4644 -0.0611 -0.2617
  102OSM   H11S10327   1.649   4.239   9.604 -0.9088 -0.4696 -2.5807
  102OSM   H11T10328   1.587   4.078   9.591  0.4710  0.3517 -2.0541
  102OSM   C12S10329   1.766   4.096   9.486  0.2985  0.0186 -0.4136
  102OSM   H12S10330   1.789   3.988   9.494 -1.1185 -0.2126  1.1637
  102OSM   H12T10331   1.857   4.158   9.500  0.0512 -0.0424  1.8595
  102OSM   C13S10332   1.709   4.108   9.343  0.7189 -0.9338  0.1246
  102OSM   H13S10333   1.635   4.191   9.351  0.3070 -1.3552  0.7228
  102OSM   H13T10334   1.649   4.017   9.327 -0.8868  0.5135 -3.0436
  102OSM   C14S10335   1.819   4.131   9.245 -0.3667 -0.6295  0.2158
  102OSM   H14S10336   1.895   4.050   9.249  0.6672  0.1071 -2.4852
  102OSM   H14T10337   1.872   4.227   9.259  0.9659 -1.0236 -1.7722
  102OSM   C15S10338   1.763   4.132   9.102  0.8934 -0.4913 -0.4461
  102OSM   H15S10339   1.808   4.210   9.037  0.1622 -1.7560 -2.5373
  102OSM   H15T10340   1.656   4.157   9.116  0.6496 -0.9510 -1.4592
  102OSM   C16S10341   1.764   3.998   9.037  0.3573 -0.2041 -0.5116
  102OSM   H16S10342   1.716   3.923   9.104 -1.2625  0.8194 -0.4842
  102OSM   H16T10343   1.867   3.956   9.027  0.2626 -0.0638 -2.6911
  102OSM   C17S10344   1.674   3.981   8.907 -0.3259 -0.0012 -0.1929
  102OSM   H17S10345   1.583   4.037   8.935 -1.8493 -1.0349 -2.7497
  102OSM   H17T10346   1.650   3.878   8.874 -1.2612  0.4813 -1.0718
  102OSM   C18S10347   1.735   4.053   8.790 -0.2680 -0.6177  0.1430
  102OSM   H18S10348   1.820   3.994   8.749  0.3170 -0.4206  1.0477
  102OSM   H18T10349   1.778   4.150   8.821  1.2235 -0.3187 -2.5124
  102OSM   H18U10350   1.671   4.063   8.699  1.1243  1.3997 -0.6975
  102OSM    C1F10351   1.474   4.612  10.467 -0.4271  0.2722  0.6986
  102OSM     OF10352   1.570   4.678  10.515  0.1323  0.3589 -0.2016
  102OSM    C2F10353   1.365   4.665  10.378 -0.8886 -0.3925 -0.0920
  102OSM    H2F10354   1.275   4.628  10.432 -0.4246  0.0679  1.0245
  102OSM    H2G10355   1.353   4.612  10.281  1.6224  0.6743 -1.0655
  102OSM    C3F10356   1.372   4.818  10.349 -0.3699 -0.8411  0.5927
  102OSM    H3F10357   1.480   4.839  10.338 -0.2462 -1.4780  0.5222
  102OSM    H3G10358   1.347   4.879  10.438  1.4065  0.7902  0.0229
  102OSM    C4F10359   1.292   4.869  10.226 -0.6163 -0.4154 -0.1746
  102OSM    H4F10360   1.192   4.822  10.217 -0.8110  0.0194 -0.3010
  102OSM    H4G10361   1.350   4.841  10.135  0.5870 -0.4967  0.5946
  102OSM    C5F10362   1.276   5.026  10.220 -0.0936  0.8611  0.2687
  102OSM    H5F10363   1.373   5.077  10.236  0.4318  0.0697 -0.3039
  102OSM    H5G10364   1.222   5.060  10.311  1.1224  0.2913  1.2275
  102OSM    C6F10365   1.200   5.084  10.095  0.1258 -0.9620 -0.0757
  102OSM    H6F10366   1.109   5.145  10.117 -0.6535 -2.1388  0.0762
  102OSM    H6G10367   1.171   4.998  10.032  4.3377 -0.7730 -2.5971
  102OSM    C7F10368   1.284   5.164  10.001 -0.7759 -0.5227 -0.2150
  102OSM    H7F10369   1.335   5.249  10.051 -1.3774 -0.4424  0.2780
  102OSM    H7G10370   1.216   5.214   9.929  0.7975  0.1924 -1.2688
  102OSM    C8F10371   1.380   5.082   9.916 -0.8888  0.6718 -0.7927
  102OSM    H8F10372   1.328   5.010   9.850 -0.7577  0.7591 -0.9932
  102OSM    H8G10373   1.447   5.040   9.995 -0.2487  3.5505  0.3177
  102OSM    C9F10374   1.458   5.174   9.826  0.5405 -0.0375  0.1139
  102OSM    H9F10375   1.533   5.225   9.887 -0.3553 -1.9196  2.9945
  102OSM   C10F10376   1.436   5.209   9.703 -0.3410  1.0566  0.2110
  102OSM   H10F10377   1.519   5.255   9.646  2.1908 -1.4388  1.6118
  102OSM   C11F10378   1.331   5.141   9.616 -0.0875  1.0891  0.2878
  102OSM   H11F10379   1.296   5.211   9.537  0.7637  0.0245 -1.0855
  102OSM   H11G10380   1.238   5.115   9.671 -0.6066  2.5779  0.1496
  102OSM   C12F10381   1.399   5.012   9.565 -0.0534  0.1913  0.1479
  102OSM   H12F10382   1.408   4.929   9.637 -1.1038 -1.9522 -2.0386
  102OSM   H12G10383   1.504   5.029   9.531 -0.9969  0.6457 -2.9169
  102OSM   C13F10384   1.324   4.938   9.447 -0.1231 -0.0213  0.0419
  102OSM   H13F10385   1.215   4.936   9.466  0.0950  0.4716  1.4191
  102OSM   H13G10386   1.354   4.831   9.449  1.0192  0.2796  2.0111
  102OSM   C14F10387   1.345   5.010   9.312  0.9755  0.5177 -0.7761
  102OSM   H14F10388   1.450   5.041   9.294  1.3308 -0.9355 -1.3395
  102OSM   H14G10389   1.284   5.103   9.316 -0.2079 -0.2648 -0.0812
  102OSM   C15F10390   1.299   4.924   9.195  0.2810  0.2479  0.1164
  102OSM   H15F10391   1.194   4.890   9.208 -0.1075  1.2990 -0.2087
  102OSM   H15G10392   1.366   4.835   9.184 -0.5894 -0.5575  1.1248
  102OSM   C16F10393   1.311   5.005   9.066  0.0776 -0.1464 -0.4739
  102OSM   H16F10394   1.417   5.018   9.036 -0.0646  0.6951 -0.6395
  102OSM   H16G10395   1.270   5.105   9.091 -0.7326 -0.4491 -0.5612
  102OSM   C17F10396   1.245   4.951   8.934  0.3878  0.2698  0.0918
  102OSM   H17F10397   1.269   5.018   8.848 -0.1392 -1.2944 -1.3261
  102OSM   H17G10398   1.135   4.934   8.940  0.6788 -3.3921 -2.0267
  102OSM   C18F10399   1.309   4.817   8.896  0.0383  0.0385  0.0907
  102OSM   H18F10400   1.244   4.759   8.826  1.1036 -1.7360  0.5013
  102OSM   H18G10401   1.319   4.761   8.992  3.6730 -0.3146 -0.3618
  102OSM   H18H10402   1.411   4.821   8.854 -0.0744 -2.9296 -0.6657
  103OSM      N10403   2.577   0.169  11.421  0.5548 -0.8484  0.3000
  103OSM    C1510404   2.621   0.025  11.445  0.7364  0.4588 -0.4957
  103OSM   H15A10405   2.697   0.024  11.521  0.4875  0.1687 -0.2488
  103OSM   H15B10406   2.646  -0.023  11.352 -2.1376  1.8606 -2.1407
  103OSM   H15C10407   2.549  -0.041  11.491  1.2223 -0.4772 -1.0405
  103OSM    C1410408   2.477   0.216  11.525 -0.1690 -0.3179 -0.3992
  103OSM   H14A10409   2.441   0.318  11.519  2.3095  0.6467 -0.1914
  103OSM   H14B10410   2.530   0.217  11.619 -0.4462 -1.9176 -0.2047
  103OSM   H14C10411   2.389   0.154  11.535  0.4824 -1.3687 -1.0130
  103OSM    C1310412   2.698   0.264  11.436 -0.2240  0.2034  0.5957
  103OSM   H13A10413   2.675   0.366  11.408  3.2191  0.9584  0.1242
  103OSM   H13B10414   2.766   0.231  11.360 -1.7082  1.1866 -1.2488
  103OSM   H13C10415   2.745   0.264  11.533  2.9569  0.3269 -0.8546
  103OSM    C1210416   2.512   0.181  11.285  0.8141 -0.2494 -0.0632
  103OSM   H12A10417   2.475   0.282  11.268 -1.6540 -0.8277  1.4486
  103OSM   H12B10418   2.419   0.128  11.286 -0.3883  1.7350  1.7987
  103OSM    C1110419   2.597   0.144  11.166 -0.0020 -0.0271 -0.2562
  103OSM   H11A10420   2.535   0.147  11.074 -3.5006 -1.6224  1.8583
  103OSM   H11B10421   2.627   0.038  11.184 -1.0354 -0.1875  0.6864
  103OSM      P10422   2.832   0.180  11.065  0.3589  0.8664  0.0289
  103OSM    O1310423   2.937   0.279  11.068 -0.5431 -0.5245 -0.8317
  103OSM    O1410424   2.858   0.049  11.123  0.0517  0.7111  0.3522
  103OSM    O1110425   2.782   0.155  10.920  0.1830  0.3881 -0.6518
  103OSM    O1210426   2.706   0.233  11.148 -0.5161  0.2929 -0.0355
  103OSM    C1S10427   2.725   0.273  10.871  0.3430  0.5043  0.0452
  103OSM    H1S10428   2.774   0.371  10.888 -0.2707  0.7165  0.6600
  103OSM    H1T10429   2.620   0.280  10.906  0.6568 -0.6460  1.2763
  103OSM     NF10430   2.710   0.406  10.657 -0.7660  0.0059  0.1375
  103OSM    HNF10431   2.621   0.428  10.620 -0.2416  0.3234 -0.9723
  103OSM    C2S10432   2.729   0.274  10.714  0.0989  0.1952 -0.2092
  103OSM    H2S10433   2.831   0.243  10.684  0.1159  0.2920 -0.2513
  103OSM    C3S10434   2.622   0.173  10.664  0.3847  0.4249 -0.1817
  103OSM    H3S10435   2.524   0.220  10.687  0.6390  0.6820  0.4043
  103OSM     O310436   2.610   0.050  10.740 -0.1578  0.4508  0.8061
  103OSM    HO310437   2.648   0.078  10.824 -0.0861  0.2879  0.8291
  103OSM    C4S10438   2.630   0.145  10.514 -0.2853  0.1466 -0.3363
  103OSM    H4S10439   2.543   0.192  10.465  1.5454 -0.0392 -4.1441
  103OSM    C5S10440   2.716   0.077  10.435  0.9717 -0.2572 -0.2273
  103OSM    H5S10441   2.800   0.031  10.489  0.0635 -0.6164  0.8998
  103OSM    C6S10442   2.719   0.058  10.286 -0.1100 -0.3579  0.1487
  103OSM    H6S10443   2.772  -0.037  10.265 -1.5896 -0.8567 -1.6027
  103OSM    H6T10444   2.769   0.145  10.239  0.0441 -1.6353 -2.1693
  103OSM    C7S10445   2.589   0.046  10.217  0.3579 -0.1616  0.1431
  103OSM    H7S10446   2.531   0.140  10.235 -0.1543 -0.1825 -1.3024
  103OSM    H7T10447   2.533  -0.037  10.266 -0.0743 -0.4744 -0.8488
  103OSM    C8S10448   2.605   0.014  10.077 -0.3532 -0.0776  0.2220
  103OSM    H8S10449   2.684  -0.064  10.072  0.0372  0.3457 -0.7015
  103OSM    H8T10450   2.636   0.095  10.007 -1.2854  1.1334  1.1628
  103OSM    C9S10451   2.477  -0.041  10.003  0.1022 -0.0883  0.6774
  103OSM    H9S10452   2.397   0.029  10.033 -1.0211 -1.7813  1.8396
  103OSM    H9T10453   2.453  -0.144  10.040  0.1540 -0.9074 -1.4342
  103OSM   C10S10454   2.478  -0.022   9.851 -0.7780 -0.6222  0.4574
  103OSM   H10S10455   2.570  -0.061   9.803 -1.6064 -0.0246 -1.7538
  103OSM   H10T10456   2.471   0.083   9.814  0.4110 -0.8163 -0.3636
  103OSM   C11S10457   2.365  -0.099   9.789 -0.2399 -0.6476  0.0159
  103OSM   H11S10458   2.276  -0.032   9.790  0.1173 -0.1581 -0.4984
  103OSM   H11T10459   2.339  -0.197   9.834  1.3104 -0.2797  1.7876
  103OSM   C12S10460   2.385  -0.136   9.641 -0.1217 -0.4040 -0.2987
  103OSM   H12S10461   2.476  -0.195   9.616 -0.0580 -0.8751  0.9616
  103OSM   H12T10462   2.384  -0.038   9.590 -3.2149 -0.6199 -0.8418
  103OSM   C13S10463   2.251  -0.211   9.584 -0.7046 -0.3593 -0.1122
  103OSM   H13S10464   2.171  -0.135   9.602  0.4494  1.0510 -0.7107
  103OSM   H13T10465   2.239  -0.308   9.635 -0.5700 -0.1981  0.2300
  103OSM   C14S10466   2.249  -0.239   9.432  0.6043 -0.4951 -0.1317
  103OSM   H14S10467   2.146  -0.277   9.419  0.5070 -0.7518  1.1856
  103OSM   H14T10468   2.331  -0.307   9.400  1.7169  0.7913 -0.1274
  103OSM   C15S10469   2.252  -0.112   9.351  0.4171 -0.5643 -0.1068
  103OSM   H15S10470   2.334  -0.045   9.385 -1.3237  1.9571 -0.5190
  103OSM   H15T10471   2.159  -0.061   9.383  0.7793 -0.6308  1.0884
  103OSM   C16S10472   2.264  -0.127   9.200 -0.8440  0.1688  0.6954
  103OSM   H16S10473   2.174  -0.174   9.156  0.0811  0.5667 -1.7811
  103OSM   H16T10474   2.349  -0.194   9.175 -1.7093 -1.3074  1.5399
  103OSM   C17S10475   2.287   0.011   9.133  0.4340  0.4818  0.1521
  103OSM   H17S10476   2.359   0.067   9.196  1.5504 -0.8474  0.1136
  103OSM   H17T10477   2.189   0.063   9.137 -0.7900 -1.2547 -3.2425
  103OSM   C18S10478   2.339   0.015   8.988  0.2435  0.1403 -0.1083
  103OSM   H18S10479   2.282  -0.052   8.920 -0.0034  0.8652 -0.6334
  103OSM   H18T10480   2.444  -0.022   8.988  0.1685 -0.0728  0.4145
  103OSM   H18U10481   2.346   0.120   8.952 -2.8478  0.9444  1.2978
  103OSM    C1F10482   2.796   0.510  10.667 -0.2628  0.1484  0.4219
  103OSM     OF10483   2.901   0.506  10.730 -0.0992 -0.0125 -0.6486
  103OSM    C2F10484   2.750   0.638  10.595  0.2466  0.4069 -0.0692
  103OSM    H2F10485   2.688   0.694  10.668  0.3740 -2.2523  2.2571
  103OSM    H2G10486   2.699   0.604  10.502  0.0605 -4.1746  1.4656
  103OSM    C3F10487   2.876   0.717  10.551 -0.5823  0.5437  0.4932
  103OSM    H3F10488   2.935   0.656  10.479  2.0349 -0.5994  3.3771
  103OSM    H3G10489   2.939   0.741  10.640  0.3369  1.5924 -0.4164
  103OSM    C4F10490   2.846   0.850  10.480 -0.2062  0.4991 -0.1539
  103OSM    H4F10491   2.939   0.888  10.434 -0.5278  1.3257 -0.1332
  103OSM    H4G10492   2.826   0.924  10.561  1.0671  2.3597 -1.4504
  103OSM    C5F10493   2.729   0.839  10.383 -0.0176  0.2192  0.8433
  103OSM    H5F10494   2.698   0.938  10.343 -0.3093 -0.1766  0.0778
  103OSM    H5G10495   2.638   0.798  10.432 -0.4402  0.2967  0.1259
  103OSM    C6F10496   2.756   0.753  10.254 -0.5821  0.4959  0.5847
  103OSM    H6F10497   2.794   0.657  10.293 -1.6163 -0.4471 -0.6192
  103OSM    H6G10498   2.849   0.789  10.204 -0.6238 -1.4127 -0.9953
  103OSM    C7F10499   2.644   0.754  10.151  0.1472  0.6676 -0.8609
  103OSM    H7F10500   2.612   0.860  10.141  0.2100  0.9218  1.2244
  103OSM    H7G10501   2.566   0.697  10.206  1.9926 -0.4956  0.6834
  103OSM    C8F10502   2.681   0.699  10.010 -0.4395 -0.6183  0.2755
  103OSM    H8F10503   2.782   0.740   9.988 -0.1994 -0.0168  2.2868
  103OSM    H8G10504   2.613   0.744   9.934  1.7220 -0.0659 -1.4238
  103OSM    C9F10505   2.671   0.548  10.001 -0.5670 -0.1272  0.6733
  103OSM    H9F10506   2.764   0.489   9.990 -1.4968 -1.3891 -0.7994
  103OSM   C10F10507   2.558   0.472  10.009 -0.9616  0.0744 -0.5635
  103OSM   H10F10508   2.569   0.363  10.007 -2.1387 -0.0884  0.5810
  103OSM   C11F10509   2.426   0.535  10.021  0.5721  0.1375  0.2659
  103OSM   H11F10510   2.432   0.629   9.963 -0.7091 -0.5209 -0.9753
  103OSM   H11G10511   2.401   0.546  10.129 -1.3108 -1.1580  0.0026
  103OSM   C12F10512   2.320   0.446   9.958 -0.3155  0.2329 -0.3534
  103OSM   H12F10513   2.222   0.484   9.993 -1.1339 -0.7543 -1.4649
  103OSM   H12G10514   2.332   0.343   9.998 -0.2128 -0.6317 -2.4598
  103OSM   C13F10515   2.321   0.452   9.805  0.0538 -0.1742 -1.0994
  103OSM   H13F10516   2.267   0.543   9.771  0.6580  0.5878 -0.0436
  103OSM   H13G10517   2.426   0.447   9.768  0.6437  1.0801  0.3274
  103OSM   C14F10518   2.246   0.326   9.749  0.1548 -0.0202  0.2091
  103OSM   H14F10519   2.141   0.349   9.779 -0.2092  1.1678 -1.7936
  103OSM   H14G10520   2.275   0.231   9.799  0.0008 -1.4874 -2.3478
  103OSM   C15F10521   2.258   0.317   9.602 -1.0236 -0.3795  0.0265
  103OSM   H15F10522   2.350   0.260   9.576 -0.0277  0.9649  0.4587
  103OSM   H15G10523   2.269   0.424   9.572  1.3847 -0.1104  1.5958
  103OSM   C16F10524   2.136   0.245   9.547  0.1649 -0.7353  0.8342
  103OSM   H16F10525   2.046   0.303   9.577  0.5080  0.7025 -0.7960
  103OSM   H16G10526   2.140   0.147   9.600  1.3516 -1.5672 -0.7054
  103OSM   C17F10527   2.146   0.237   9.397 -0.0055 -0.4305 -0.2003
  103OSM   H17F10528   2.236   0.178   9.369  0.4429  0.3576 -0.4520
  103OSM   H17G10529   2.163   0.343   9.368 -2.7159  0.0883 -0.1424
  103OSM   C18F10530   2.022   0.196   9.326 -0.0319 -1.2200  0.3838
  103OSM   H18F10531   2.026   0.215   9.217  0.4404 -0.2848  0.5549
  103OSM   H18G10532   1.939   0.255   9.370  1.6919 -0.5861  3.0451
  103OSM   H18H10533   1.993   0.091   9.351 -1.0445 -0.6324  1.8392
  104OSM      N10534   0.562   6.055  11.014 -0.0645 -0.2487  0.3374
  104OSM    C1510535   0.640   5.985  11.126 -0.0950  0.2547  0.8771
  104OSM   H15A10536   0.724   6.042  11.163 -0.5149  0.5966  1.3257
  104OSM   H15B10537   0.682   5.893  11.089  1.8671  1.8340 -1.0530
  104OSM   H15C10538   0.571   5.959  11.205 -0.7079 -3.4045 -0.6551
  104OSM    C1410539   0.531   6.195  11.065 -0.1978 -0.9025  0.4423
  104OSM   H14A10540   0.443   6.202  11.126 -0.4411 -3.2468  0.4327
  104OSM   H14B10541   0.515   6.271  10.989 -0.8274  0.3374  1.7640
  104OSM   H14C10542   0.619   6.236  11.113 -0.2752  0.5913 -0.6090
  104OSM    C1310543   0.656   6.070  10.898  0.1984 -1.0625 -0.5009
  104OSM   H13A10544   0.729   6.148  10.913  1.3662 -2.3772  1.0329
  104OSM   H13B10545   0.605   6.080  10.804  2.9852 -1.3647 -2.1631
  104OSM   H13C10546   0.715   5.980  10.890  1.1480 -0.6600  1.3819
  104OSM    C1210547   0.437   5.983  10.981  0.1742 -0.0188 -0.1172
  104OSM   H12A10548   0.390   5.962  11.076  2.9945 -1.7521  1.0100
  104OSM   H12B10549   0.478   5.889  10.946  0.3381  0.1099 -0.2736
  104OSM    C1110550   0.331   6.051  10.894  0.5264  0.4946  0.0095
  104OSM   H11A10551   0.259   5.979  10.849  0.7155  0.8409 -0.8700
  104OSM   H11B10552   0.388   6.103  10.814  0.3765 -1.2103 -1.2634
  104OSM      P10553   0.147   6.229  10.898 -0.0126 -0.3145  0.0025
  104OSM    O1310554   0.011   6.176  10.938 -0.3299  0.2459 -0.2560
  104OSM    O1410555   0.173   6.372  10.940  0.3792 -0.1683 -0.2271
  104OSM    O1110556   0.166   6.212  10.747  0.7077  0.3830  0.3256
  104OSM    O1210557   0.263   6.145  10.966 -0.5483 -0.6580 -0.0335
  104OSM    C1S10558   0.085   6.286  10.649 -0.3754  0.4728 -0.1756
  104OSM    H1S10559   0.142   6.377  10.619 -0.4008  0.5793  0.0956
  104OSM    H1T10560  -0.016   6.321  10.680 -1.2825 -1.7068 -0.5076
  104OSM     NF10561   0.086   6.301  10.401 -0.8052  0.2773  0.0402
  104OSM    HNF10562   0.001   6.315  10.352 -1.1086 -0.3624  0.3809
  104OSM    C2S10563   0.081   6.208  10.511 -0.3604 -0.2773 -0.1864
  104OSM    H2S10564   0.169   6.141  10.502 -0.4730 -0.4454 -0.0630
  104OSM    C3S10565  -0.046   6.107  10.513 -0.2239 -0.2908  0.1478
  104OSM    H3S10566  -0.144   6.160  10.511 -1.2061 -1.9857 -2.7289
  104OSM     O310567  -0.030   6.010  10.620  0.0369  0.5277  0.5160
  104OSM    HO310568   0.052   6.027  10.667 -0.5416  4.1164  0.5416
  104OSM    C4S10569  -0.045   6.036  10.387  0.8218  0.8068  0.8271
  104OSM    H4S10570   0.030   5.956  10.376  0.0016  0.1316 -0.0056
  104OSM    C5S10571  -0.128   6.048  10.283  0.2202  0.2196 -0.7231
  104OSM    H5S10572  -0.209   6.120  10.299  1.9210  2.0257  0.2515
  104OSM    C6S10573  -0.127   5.971  10.152 -0.3724 -0.0507  0.4205
  104OSM    H6S10574  -0.227   5.947  10.110  0.3236 -1.1607 -0.6749
  104OSM    H6T10575  -0.082   5.870  10.156 -2.4582 -1.1573 -1.4882
  104OSM    C7S10576  -0.062   6.053  10.036  0.3089 -0.3793  0.0627
  104OSM    H7S10577   0.033   6.102  10.067 -1.1638  1.2090  2.4075
  104OSM    H7T10578  -0.126   6.139  10.008 -1.0882 -0.8556  1.6189
  104OSM    C8S10579  -0.028   5.954   9.921  0.3671  0.5635  0.2530
  104OSM    H8S10580  -0.130   5.920   9.890 -0.4591  1.8519  1.4159
  104OSM    H8T10581   0.043   5.875   9.953  1.1465  0.3492 -1.8528
  104OSM    C9S10582   0.021   6.023   9.789  0.0500 -0.2758 -0.3170
  104OSM    H9S10583   0.124   6.062   9.802 -0.2901  0.7480 -0.6247
  104OSM    H9T10584  -0.053   6.102   9.763 -0.6850 -0.6542  0.5567
  104OSM   C10S10585   0.042   5.920   9.673  0.5083 -0.1419  0.9226
  104OSM   H10S10586  -0.061   5.892   9.640  1.5638 -0.6340 -2.4110
  104OSM   H10T10587   0.094   5.825   9.695  0.6591 -0.1678  0.4637
  104OSM   C11S10588   0.116   5.993   9.554  0.4856 -0.3301 -0.5044
  104OSM   H11S10589   0.205   6.043   9.598  0.5049 -0.0934 -0.8127
  104OSM   H11T10590   0.045   6.076   9.533 -1.6594 -1.5653  1.3573
  104OSM   C12S10591   0.159   5.917   9.431 -0.0523  0.3442 -0.1977
  104OSM   H12S10592   0.102   5.827   9.402 -0.2355  1.0678 -2.1948
  104OSM   H12T10593   0.256   5.875   9.466  0.7061  1.8610 -0.3809
  104OSM   C13S10594   0.186   6.010   9.313 -0.8329  0.0507  0.0414
  104OSM   H13S10595   0.247   6.096   9.346 -2.0802  1.2210 -0.6243
  104OSM   H13T10596   0.089   6.057   9.286 -0.8190 -1.1931 -2.4970
  104OSM   C14S10597   0.250   5.943   9.193  0.1866  0.0312 -0.6482
  104OSM   H14S10598   0.196   5.850   9.166 -1.1471  1.6744 -4.3095
  104OSM   H14T10599   0.348   5.903   9.227  0.0436 -1.7102 -2.1436
  104OSM   C15S10600   0.254   6.031   9.065 -0.3623  0.2232 -0.1200
  104OSM   H15S10601   0.292   6.129   9.103  1.4570 -0.1058 -0.9682
  104OSM   H15T10602   0.157   6.034   9.013 -0.7885 -0.8573  0.5782
  104OSM   C16S10603   0.365   5.984   8.971  1.2106  0.9481 -0.1372
  104OSM   H16S10604   0.335   5.883   8.936  0.6464  0.9326  0.3742
  104OSM   H16T10605   0.455   5.965   9.034  0.7456 -0.8857  0.0333
  104OSM   C17S10606   0.395   6.066   8.849  0.4296 -0.2050 -0.2222
  104OSM   H17S10607   0.460   6.007   8.781 -0.3826 -2.2844  0.7216
  104OSM   H17T10608   0.455   6.152   8.886  0.8266 -0.7243  0.3642
  104OSM   C18S10609   0.270   6.123   8.776  0.6053 -0.1026  0.4744
  104OSM   H18S10610   0.230   6.207   8.837 -0.7542 -0.3857  0.0168
  104OSM   H18T10611   0.181   6.057   8.771  0.1402  0.5388  0.1985
  104OSM   H18U10612   0.284   6.169   8.676 -1.8892  0.7339  0.4438
  104OSM    C1F10613   0.190   6.368  10.352 -0.0668 -0.2283  0.2612
  104OSM     OF10614   0.286   6.400  10.425 -0.4651  0.0606 -0.0918
  104OSM    C2F10615   0.164   6.418  10.209  0.7355  0.1463 -0.7384
  104OSM    H2F10616   0.124   6.522  10.216 -0.7023 -0.4947  1.8263
  104OSM    H2G10617   0.084   6.361  10.158  1.0187  1.1429 -2.3927
  104OSM    C3F10618   0.296   6.421  10.127 -0.0189  0.5776 -0.3773
  104OSM    H3F10619   0.347   6.323  10.134 -0.1229  0.5927  0.7258
  104OSM    H3G10620   0.368   6.490  10.174 -0.2665  0.3157  0.4142
  104OSM    C4F10621   0.269   6.472   9.983 -0.1115 -0.1845 -0.1783
  104OSM    H4F10622   0.369   6.506   9.948  0.5104 -0.6267  1.1142
  104OSM    H4G10623   0.209   6.562  10.005 -1.1614 -1.6211  3.5097
  104OSM    C5F10624   0.210   6.379   9.881 -0.0906  0.3282  0.1364
  104OSM    H5F10625   0.130   6.311   9.915  1.2184 -0.7020  1.3108
  104OSM    H5G10626   0.290   6.312   9.842 -0.0977  1.0077 -1.0842
  104OSM    C6F10627   0.153   6.463   9.760 -0.3968  0.1341 -0.1703
  104OSM    H6F10628   0.239   6.530   9.739  0.1765  0.0568  1.7929
  104OSM    H6G10629   0.065   6.525   9.786 -1.0159 -0.1261 -1.5597
  104OSM    C7F10630   0.139   6.383   9.629  0.3425  0.1792 -0.2348
  104OSM    H7F10631   0.050   6.317   9.641 -1.7491  1.9794 -4.1763
  104OSM    H7G10632   0.224   6.311   9.625  0.2336 -0.0803  1.3733
  104OSM    C8F10633   0.125   6.464   9.501  0.1835 -0.4589 -0.1104
  104OSM    H8F10634   0.197   6.549   9.502 -1.1241  0.7062 -1.1957
  104OSM    H8G10635   0.027   6.515   9.489  0.6682  0.1684 -1.7721
  104OSM    C9F10636   0.122   6.382   9.375 -0.5156 -0.4539  0.3248
  104OSM    H9F10637   0.043   6.306   9.366 -1.8256  0.9704 -0.7964
  104OSM   C10F10638   0.216   6.366   9.276 -0.1634 -0.7981 -0.1103
  104OSM   H10F10639   0.181   6.309   9.188  0.7893  0.1170 -1.1214
  104OSM   C11F10640   0.355   6.433   9.262 -0.1100 -0.5375 -0.1752
  104OSM   H11F10641   0.440   6.362   9.256  1.9112  1.8520 -1.8052
  104OSM   H11G10642   0.383   6.501   9.345 -1.0710  0.1393 -0.3914
  104OSM   C12F10643   0.345   6.515   9.134 -0.9365 -0.3052 -0.0754
  104OSM   H12F10644   0.442   6.568   9.125 -0.0538 -1.6672  1.0022
  104OSM   H12G10645   0.259   6.586   9.130 -0.4706  0.2563 -0.1824
  104OSM   C13F10646   0.353   6.439   8.994 -0.6793  0.4482  0.2945
  104OSM   H13F10647   0.262   6.376   8.986 -0.4031  0.2284 -1.5515
  104OSM   H13G10648   0.442   6.372   8.994  0.2778  1.6732  0.8178
  104OSM   C14F10649   0.369   6.523   8.862  0.3646 -1.0124 -0.3910
  104OSM   H14F10650   0.458   6.589   8.874 -1.6350  2.1085 -1.2956
  104OSM   H14G10651   0.288   6.599   8.868 -0.8704 -2.2819 -0.5140
  104OSM   C15F10652   0.380   6.450   8.725 -0.1298  0.0633 -0.3360
  104OSM   H15F10653   0.277   6.413   8.703 -0.4678 -1.1228  2.7595
  104OSM   H15G10654   0.454   6.367   8.729 -2.1449 -1.7906  1.2676
  104OSM   C16F10655   0.420   6.550   8.611 -0.0051 -0.0821  0.1949
  104OSM   H16F10656   0.513   6.602   8.642  0.6816 -1.5161  0.6574
  104OSM   H16G10657   0.333   6.616   8.589 -2.0235 -2.1804  1.3679
  104OSM   C17F10658   0.454   6.480   8.474  0.2661  1.2827 -0.2030
  104OSM   H17F10659   0.364   6.427   8.438  1.5447 -0.4424 -1.0145
  104OSM   H17G10660   0.519   6.391   8.491 -0.0785  1.1634  0.5223
  104OSM   C18F10661   0.518   6.567   8.368 -0.3374 -0.0186  0.1448
  104OSM   H18F10662   0.451   6.651   8.342 -0.5203  0.3653  1.7654
  104OSM   H18G10663   0.545   6.509   8.277  1.1566  0.2058  0.4128
  104OSM   H18H10664   0.616   6.607   8.403  1.0301 -0.2155 -3.0776
  105OSM      N10665   6.239   5.332  11.145  0.2453  0.0510 -0.1157
  105OSM    C1510666   6.205   5.187  11.180  0.3789  0.1804  0.1721
  105OSM   H15A10667   6.121   5.158  11.119  2.0122  1.4858 -2.8873
  105OSM   H15B10668   6.177   5.176  11.284  0.9361  2.4320  0.6221
  105OSM   H15C10669   6.294   5.131  11.155  0.5439  0.2831  0.5219
  105OSM    C1410670   6.107   5.410  11.146  0.2252 -0.4711 -0.5304
  105OSM   H14A10671   6.098   5.444  11.248  1.8775  1.2453 -0.9206
  105OSM   H14B10672   6.025   5.356  11.101 -0.0173  0.8128 -1.7018
  105OSM   H14C10673   6.113   5.495  11.080 -2.8089  1.8032  1.8028
  105OSM    C1310674   6.327   5.393  11.247  0.6297 -0.5708 -0.0304
  105OSM   H13A10675   6.267   5.402  11.336  1.1821  2.6432  0.1239
  105OSM   H13B10676   6.349   5.494  11.216 -2.6804  1.1771  2.6658
  105OSM   H13C10677   6.413   5.341  11.287  0.3841  1.1083  2.9547
  105OSM    C1210678   6.320   5.311  11.014 -0.0015 -0.3504 -0.1796
  105OSM   H12A10679   6.255   5.259  10.946 -1.6794  0.4613  0.7186
  105OSM   H12B10680   6.406   5.253  11.045 -0.5269 -0.2413  1.6103
  105OSM    C1110681   6.360   5.445  10.951 -0.0675  0.1519 -0.6097
  105OSM   H11A10682   6.439   5.420  10.877  2.1355  0.6625  1.4711
  105OSM   H11B10683   6.409   5.505  11.030 -4.0751  3.0268  0.0344
  105OSM      P10684   6.286   5.676  10.867 -0.7161  0.0155 -0.0226
  105OSM    O1310685   6.181   5.737  10.782 -0.1328 -0.3044 -0.1653
  105OSM    O1410686   6.300   5.722  11.004  0.0841  0.7981 -0.1168
  105OSM    O1110687   6.431   5.689  10.793  0.4080 -0.2785 -0.0528
  105OSM    O1210688   6.254   5.522  10.890 -0.2412  0.2639  0.1044
  105OSM    C1S10689   6.435   5.630  10.658 -0.2847 -0.0985  0.2474
  105OSM    H1S10690   6.338   5.642  10.606 -0.9735 -2.0392  1.0379
  105OSM    H1T10691   6.438   5.520  10.666 -4.2433 -0.2584  1.8088
  105OSM     NF10692   6.548   5.594  10.446 -0.4820  0.2558 -0.3235
  105OSM    HNF10693   6.606   5.513  10.440 -1.2835 -0.3074 -0.5279
  105OSM    C2S10694   6.559   5.667  10.570 -0.5149  0.0177 -0.7807
  105OSM    H2S10695   6.560   5.776  10.544 -2.7253  0.3382  0.2629
  105OSM    C3S10696   6.692   5.618  10.650 -0.2553 -0.5860 -0.1040
  105OSM    H3S10697   6.678   5.510  10.673 -0.2344 -1.2457 -2.8357
  105OSM     O310698   6.703   5.672  10.780  0.4792 -0.4984  0.2208
  105OSM    HO310699   6.611   5.694  10.798  0.9144  1.0136  0.7949
  105OSM    C4S10700   6.818   5.651  10.578 -0.2478  0.2021 -0.2691
  105OSM    H4S10701   6.829   5.757  10.551 -0.3765  0.1175 -0.6623
  105OSM    C5S10702   6.906   5.565  10.528 -0.4763 -0.0111  0.6819
  105OSM    H5S10703   6.872   5.460  10.527  1.7150 -0.7726 -0.7324
  105OSM    C6S10704   7.023   5.610  10.442 -0.4983 -0.1033 -0.3506
  105OSM    H6S10705   7.113   5.570  10.493 -0.0489  1.2216 -0.0671
  105OSM    H6T10706   7.041   5.720  10.451  2.4338 -0.6374  2.2015
  105OSM    C7S10707   7.021   5.568  10.296  0.6981 -0.2673 -0.3223
  105OSM    H7S10708   6.988   5.462  10.296 -0.0193 -0.0566  0.2019
  105OSM    H7T10709   7.122   5.564  10.250 -0.5504  0.0986 -3.3158
  105OSM    C8S10710   6.922   5.642  10.202  0.3582 -0.4841 -0.0630
  105OSM    H8S10711   6.946   5.750  10.194  0.0549 -0.4634 -0.8415
  105OSM    H8T10712   6.818   5.632  10.240  0.5875 -1.2286  0.3968
  105OSM    C9S10713   6.917   5.593  10.053 -0.1458  0.7303 -0.3857
  105OSM    H9S10714   6.822   5.634  10.013 -2.7519 -2.6620  1.7120
  105OSM    H9T10715   6.903   5.483  10.052  0.1204  0.6024  2.0022
  105OSM   C10S10716   7.032   5.640   9.964  0.0859 -1.0137 -0.4343
  105OSM   H10S10717   7.130   5.621  10.013 -0.8234  0.2888  2.0497
  105OSM   H10T10718   7.026   5.751   9.966 -0.3987 -1.0131 -1.5352
  105OSM   C11S10719   7.026   5.579   9.829  0.2781 -0.2445 -0.4489
  105OSM   H11S10720   6.922   5.600   9.799 -0.3934 -2.6620 -0.0138
  105OSM   H11T10721   7.034   5.470   9.852  0.0384 -0.2397 -0.3398
  105OSM   C12S10722   7.127   5.639   9.736 -0.2328  1.0034  1.0989
  105OSM   H12S10723   7.226   5.598   9.766 -0.8595 -1.9273 -0.3764
  105OSM   H12T10724   7.127   5.750   9.737  3.6609  1.1843 -0.7125
  105OSM   C13S10725   7.103   5.596   9.586  0.2832  0.8072  0.7543
  105OSM   H13S10726   7.002   5.619   9.547  0.4313 -1.3689 -1.1133
  105OSM   H13T10727   7.120   5.488   9.568 -0.4058  0.9728 -1.1368
  105OSM   C14S10728   7.206   5.679   9.497  0.1110 -0.4358 -0.0721
  105OSM   H14S10729   7.306   5.661   9.542  1.5206  0.0217 -2.8044
  105OSM   H14T10730   7.198   5.790   9.506 -1.7720 -0.5483  0.0211
  105OSM   C15S10731   7.236   5.641   9.351 -0.4128 -0.4093 -0.1084
  105OSM   H15S10732   7.140   5.658   9.298 -0.1917 -1.1194 -0.7368
  105OSM   H15T10733   7.239   5.530   9.345  0.4672 -0.3360 -1.3960
  105OSM   C16S10734   7.354   5.707   9.279  0.2094  0.2794 -0.0873
  105OSM   H16S10735   7.433   5.648   9.329  0.3817 -0.0580 -0.7481
  105OSM   H16T10736   7.363   5.816   9.299  0.5366  0.5038 -1.3299
  105OSM   C17S10737   7.342   5.673   9.125 -0.4913  0.3370  0.1767
  105OSM   H17S10738   7.254   5.737   9.102 -0.4694  1.0718  1.9979
  105OSM   H17T10739   7.330   5.563   9.127 -2.1507  0.5032  0.8538
  105OSM   C18S10740   7.464   5.715   9.041 -0.6973 -0.0355 -0.2993
  105OSM   H18S10741   7.494   5.822   9.041 -0.7576  0.0000  1.5636
  105OSM   H18T10742   7.450   5.686   8.934  2.1181  0.7601 -0.9909
  105OSM   H18U10743   7.549   5.658   9.084 -0.6927 -1.7468 -2.3971
  105OSM    C1F10744   6.463   5.630  10.349 -0.2636  0.1132  0.4278
  105OSM     OF10745   6.375   5.717  10.360 -0.0475  0.4206 -0.2496
  105OSM    C2F10746   6.485   5.548  10.224 -0.0366  0.1277  0.0139
  105OSM    H2F10747   6.474   5.440  10.247 -2.2417 -0.8328 -4.3935
  105OSM    H2G10748   6.586   5.569  10.185 -0.3685  2.2281  0.1375
  105OSM    C3F10749   6.380   5.594  10.118  0.1309 -0.2265 -0.4174
  105OSM    H3F10750   6.400   5.701  10.094  1.1265 -0.3097 -0.0063
  105OSM    H3G10751   6.277   5.584  10.158 -0.3164  1.9085 -0.9356
  105OSM    C4F10752   6.383   5.541   9.972  0.5644 -0.3830 -0.3526
  105OSM    H4F10753   6.336   5.608   9.897  0.4812 -0.1081 -0.0573
  105OSM    H4G10754   6.330   5.443   9.968  1.8831 -1.0997 -2.1671
  105OSM    C5F10755   6.531   5.522   9.928  0.4905 -0.1563 -0.3205
  105OSM    H5F10756   6.579   5.447   9.995 -0.7012 -0.5939  0.0701
  105OSM    H5G10757   6.580   5.621   9.932  1.4081 -0.3563 -3.6141
  105OSM    C6F10758   6.545   5.480   9.785 -0.2448  0.0883  0.0715
  105OSM    H6F10759   6.476   5.395   9.767  0.7884 -1.0314  1.2139
  105OSM    H6G10760   6.640   5.423   9.777  0.4563  1.0087  1.5644
  105OSM    C7F10761   6.548   5.591   9.680  0.7990  0.0372 -0.5744
  105OSM    H7F10762   6.609   5.676   9.719  1.9037  1.0776 -4.1910
  105OSM    H7G10763   6.442   5.624   9.668  1.1117  1.3088 -0.0171
  105OSM    C8F10764   6.609   5.546   9.547  0.8741  0.5234  0.3642
  105OSM    H8F10765   6.611   5.638   9.484 -0.9407  0.3270 -0.0410
  105OSM    H8G10766   6.531   5.487   9.496  1.4586  1.2603 -1.4477
  105OSM    C9F10767   6.746   5.487   9.550  0.0268 -0.3250 -0.0826
  105OSM    H9F10768   6.800   5.474   9.645 -0.6604  0.2949  0.4053
  105OSM   C10F10769   6.801   5.444   9.433 -0.1904 -0.5489 -0.2734
  105OSM   H10F10770   6.909   5.427   9.441  0.3903  2.3459 -0.6018
  105OSM   C11F10771   6.760   5.444   9.290  0.0075  0.0641 -0.4973
  105OSM   H11F10772   6.653   5.469   9.277 -0.3854 -0.7920  0.8236
  105OSM   H11G10773   6.780   5.343   9.247  0.0327  0.3695 -1.2015
  105OSM   C12F10774   6.848   5.543   9.203  0.1249  0.4985 -0.6882
  105OSM   H12F10775   6.957   5.523   9.208  0.2121  1.1223  0.0769
  105OSM   H12G10776   6.834   5.647   9.238  2.7791  0.1141  1.9463
  105OSM   C13F10777   6.828   5.532   9.047 -0.0631  0.6431 -0.3432
  105OSM   H13F10778   6.726   5.558   9.010 -0.0722  0.0070 -0.7823
  105OSM   H13G10779   6.858   5.428   9.023  0.1750  0.6951 -0.2658
  105OSM   C14F10780   6.928   5.616   8.967  0.4026 -0.7503 -0.6513
  105OSM   H14F10781   7.032   5.607   9.006  0.3176  2.0907  0.4920
  105OSM   H14G10782   6.898   5.723   8.975  0.0235 -0.7415 -1.9876
  105OSM   C15F10783   6.938   5.586   8.814 -0.2016  0.0846  0.3721
  105OSM   H15F10784   6.837   5.590   8.766  0.1547  2.5491 -0.3362
  105OSM   H15G10785   6.964   5.479   8.815 -1.3546 -0.2124  0.0787
  105OSM   C16F10786   7.033   5.673   8.736 -0.6988  0.3389 -0.1089
  105OSM   H16F10787   7.011   5.781   8.738  0.2008  0.5235  0.2405
  105OSM   H16G10788   7.017   5.647   8.629 -1.2876 -1.6770  0.4251
  105OSM   C17F10789   7.182   5.631   8.764  0.0301 -0.1029  0.6438
  105OSM   H17F10790   7.184   5.524   8.733 -1.2421 -0.2702  1.0569
  105OSM   H17G10791   7.214   5.637   8.870  0.1922  0.1593  0.5812
  105OSM   C18F10792   7.288   5.713   8.676 -1.0783  0.5970  0.8327
  105OSM   H18F10793   7.291   5.816   8.718 -0.8123  1.6091 -1.5439
  105OSM   H18G10794   7.255   5.718   8.570  1.3102 -1.6952 -0.1295
  105OSM   H18H10795   7.389   5.668   8.686 -0.2093  1.5300 -2.5900
  106OSM      N10796   1.045   3.794  10.795 -0.0297  0.2487  0.1952
  106OSM    C1510797   1.024   3.866  10.925  0.5433  0.3371  0.4919
  106OSM   H15A10798   1.022   3.970  10.899  0.1273  0.6194  1.5993
  106OSM   H15B10799   1.108   3.837  10.987  0.7167 -0.6996 -0.1948
  106OSM   H15C10800   0.928   3.839  10.965 -1.4370  2.5089 -2.4233
  106OSM    C1410801   1.181   3.816  10.739  0.0188 -0.0655 -0.1428
  106OSM   H14A10802   1.194   3.923  10.740 -0.7482  0.0826  2.9489
  106OSM   H14B10803   1.196   3.786  10.636 -2.1050  3.8120 -1.7626
  106OSM   H14C10804   1.264   3.776  10.797  0.8423 -1.2104 -2.0016
  106OSM    C1310805   1.026   3.655  10.846 -0.3865  0.2291 -0.3287
  106OSM   H13A10806   0.922   3.640  10.872 -0.6642  0.8591 -1.0161
  106OSM   H13B10807   1.092   3.636  10.929 -1.0278 -2.6082 -0.3890
  106OSM   H13C10808   1.044   3.583  10.767 -0.9485 -1.3047  0.8918
  106OSM    C1210809   0.939   3.833  10.700 -0.0263 -0.4487  0.5858
  106OSM   H12A10810   0.848   3.854  10.754 -0.7838  0.3566 -0.9349
  106OSM   H12B10811   0.906   3.748  10.643 -2.9894  0.6664  0.4452
  106OSM    C1110812   0.949   3.955  10.602  0.1156 -0.1376 -0.3023
  106OSM   H11A10813   0.873   3.953  10.520  0.4940 -1.6715 -0.6368
  106OSM   H11B10814   1.044   3.945  10.546 -0.9211  2.5075 -2.7810
  106OSM      P10815   0.805   4.128  10.723  0.3736  0.2800  0.4481
  106OSM    O1310816   0.732   4.024  10.806 -0.0732 -0.0023  0.3436
  106OSM    O1410817   0.815   4.259  10.786  0.4934 -0.4912  0.2601
  106OSM    O1110818   0.732   4.148  10.582  0.0779  0.0333 -0.1113
  106OSM    O1210819   0.947   4.075  10.677 -0.3763 -0.2884 -0.1461
  106OSM    C1S10820   0.747   4.262  10.497 -0.0305 -0.1221 -0.5579
  106OSM    H1S10821   0.847   4.308  10.511 -1.0043  2.0657 -0.3392
  106OSM    H1T10822   0.669   4.336  10.526  0.8635  0.2491  0.9650
  106OSM     NF10823   0.785   4.365  10.273 -0.3034  0.2251  0.1795
  106OSM    HNF10824   0.712   4.412  10.224 -1.8467 -2.0948  0.0785
  106OSM    C2S10825   0.749   4.241  10.341  1.2385 -0.2501 -0.7829
  106OSM    H2S10826   0.815   4.155  10.318 -0.1235 -1.9813  1.3230
  106OSM    C3S10827   0.603   4.199  10.310  0.0778  0.1762  0.6030
  106OSM    H3S10828   0.527   4.277  10.332 -1.9322 -0.9136 -1.8341
  106OSM     O310829   0.554   4.092  10.393  0.2770 -0.6023 -0.2030
  106OSM    HO310830   0.633   4.068  10.441  0.4102 -1.8239 -1.0097
  106OSM    C4S10831   0.583   4.160  10.165  1.0160  0.1159 -0.5732
  106OSM    H4S10832   0.506   4.220  10.114 -1.0129 -0.1578  1.9899
  106OSM    C5S10833   0.640   4.053  10.114 -0.7573 -0.1354  0.7125
  106OSM    H5S10834   0.704   3.993  10.180  2.2176  0.0331 -1.8516
  106OSM    C6S10835   0.628   3.995   9.973  0.1839  0.6551 -0.2918
  106OSM    H6S10836   0.581   3.894   9.982  1.1171  0.3111  0.8763
  106OSM    H6T10837   0.726   3.993   9.920  0.2307  0.7176 -0.2056
  106OSM    C7S10838   0.542   4.066   9.873 -0.6685  0.0062  0.3060
  106OSM    H7S10839   0.581   4.167   9.847 -0.0968 -0.8651 -2.6586
  106OSM    H7T10840   0.445   4.079   9.925 -0.0799  0.7960  1.2325
  106OSM    C8S10841   0.511   3.987   9.747  0.6677  0.3981 -0.0419
  106OSM    H8S10842   0.445   3.902   9.775  0.8231  1.5859  4.7135
  106OSM    H8T10843   0.605   3.940   9.710 -0.2106 -0.5623 -1.1642
  106OSM    C9S10844   0.451   4.073   9.637  0.5663 -0.0093  0.2655
  106OSM    H9S10845   0.527   4.151   9.615 -0.1910  0.2477 -1.5940
  106OSM    H9T10846   0.354   4.110   9.678  0.1431 -0.6232 -0.1716
  106OSM   C10S10847   0.424   4.000   9.503 -0.2593  0.6382 -0.6761
  106OSM   H10S10848   0.367   3.907   9.523 -0.6560  0.8458 -0.8162
  106OSM   H10T10849   0.523   3.968   9.464  0.0656  1.1482 -0.2736
  106OSM   C11S10850   0.359   4.088   9.394 -0.0300  0.7358 -1.0612
  106OSM   H11S10851   0.418   4.182   9.388  1.2154 -0.0942 -2.6393
  106OSM   H11T10852   0.251   4.103   9.414  0.3209  0.0394  1.7896
  106OSM   C12S10853   0.359   4.027   9.251 -0.5408  1.1265  0.1919
  106OSM   H12S10854   0.294   3.937   9.255 -0.9503  1.3880 -0.4571
  106OSM   H12T10855   0.457   3.986   9.219 -1.2145  0.2933 -0.9005
  106OSM   C13S10856   0.319   4.133   9.153 -0.7084  0.9749  0.0252
  106OSM   H13S10857   0.401   4.207   9.164  1.5407 -1.4548  0.3800
  106OSM   H13T10858   0.218   4.168   9.183 -0.3489  1.5801  0.5536
  106OSM   C14S10859   0.323   4.079   9.009 -1.2061 -0.2326  0.3880
  106OSM   H14S10860   0.271   3.981   9.008  2.0913 -2.1494 -0.4405
  106OSM   H14T10861   0.428   4.056   8.979 -2.0324 -0.7261 -2.3859
  106OSM   C15S10862   0.237   4.164   8.910 -0.2938  0.4103 -0.3751
  106OSM   H15S10863   0.292   4.246   8.857 -0.0358 -0.1044 -0.9181
  106OSM   H15T10864   0.164   4.217   8.975 -0.5603  1.4711 -1.4836
  106OSM   C16S10865   0.159   4.090   8.804 -0.2739 -0.5826 -0.0238
  106OSM   H16S10866   0.079   4.028   8.849 -1.7944  1.6247  0.4491
  106OSM   H16T10867   0.221   4.022   8.740  1.2853  0.0651  0.7487
  106OSM   C17S10868   0.080   4.188   8.717 -0.0393 -0.0944 -0.2750
  106OSM   H17S10869   0.154   4.244   8.656  2.2234 -1.0886  1.3661
  106OSM   H17T10870   0.026   4.263   8.779  2.4343  1.8297 -0.3026
  106OSM   C18S10871   0.007   4.101   8.612  0.4276 -0.6792  0.3642
  106OSM   H18S10872  -0.042   4.164   8.534  2.4437 -0.5766 -0.8877
  106OSM   H18T10873  -0.074   4.049   8.667  1.4115 -2.6808  0.0033
  106OSM   H18U10874   0.076   4.032   8.560  1.1763  0.6366 -0.4665
  106OSM    C1F10875   0.909   4.399  10.251 -0.6379  0.2366  0.4846
  106OSM     OF10876   1.005   4.334  10.291  0.0986 -0.1088  0.0437
  106OSM    C2F10877   0.949   4.524  10.182  0.0363 -0.4924  0.4980
  106OSM    H2F10878   1.041   4.561  10.234  0.5979  1.4642 -1.7198
  106OSM    H2G10879   0.865   4.594  10.195  0.3241  0.2862 -1.5282
  106OSM    C3F10880   0.974   4.513  10.029  0.5212  0.8982 -0.4604
  106OSM    H3F10881   1.063   4.446  10.025 -1.8187 -2.5258  0.8084
  106OSM    H3G10882   1.015   4.607   9.986 -0.2458  0.7999 -1.4307
  106OSM    C4F10883   0.854   4.460   9.943  0.3686 -0.4359  0.0561
  106OSM    H4F10884   0.837   4.544   9.872  0.4831 -0.5021 -0.0500
  106OSM    H4G10885   0.763   4.441  10.003  0.7956 -1.0447  0.5127
  106OSM    C5F10886   0.891   4.334   9.860  0.6068 -0.1477 -0.7186
  106OSM    H5F10887   0.875   4.255   9.936  1.8304  0.6464  0.3938
  106OSM    H5G10888   1.001   4.322   9.851  0.9155  0.5300  1.6235
  106OSM    C6F10889   0.827   4.312   9.719  0.1401 -0.8906  0.3097
  106OSM    H6F10890   0.856   4.402   9.661 -2.0510 -0.0523  0.4156
  106OSM    H6G10891   0.717   4.307   9.709  0.3882 -2.4155 -2.9387
  106OSM    C7F10892   0.866   4.189   9.635 -0.3703  0.1198 -0.1812
  106OSM    H7F10893   0.815   4.101   9.679  0.4752 -1.7941 -2.7799
  106OSM    H7G10894   0.975   4.168   9.632 -0.4488 -0.3033 -0.2176
  106OSM    C8F10895   0.823   4.204   9.488 -0.2446 -0.3799 -0.3012
  106OSM    H8F10896   0.890   4.285   9.452  1.0164 -0.5078  1.6110
  106OSM    H8G10897   0.717   4.230   9.470 -0.4811 -2.4744 -2.4528
  106OSM    C9F10898   0.846   4.079   9.409  0.0331 -0.4974 -0.0406
  106OSM    H9F10899   0.890   3.993   9.462  0.3262 -0.2121  0.1828
  106OSM   C10F10900   0.795   4.061   9.285 -0.1885 -0.5144 -0.0477
  106OSM   H10F10901   0.836   3.975   9.229  0.5742  0.6143 -1.2914
  106OSM   C11F10902   0.730   4.176   9.207  0.4016 -0.5475  0.5497
  106OSM   H11F10903   0.774   4.273   9.238  0.9855 -0.1947 -1.2978
  106OSM   H11G10904   0.619   4.170   9.212  0.3813 -0.9768 -0.3283
  106OSM   C12F10905   0.767   4.171   9.059 -0.2097 -0.6142 -0.1423
  106OSM   H12F10906   0.735   4.069   9.030  0.3073 -0.8499  0.1013
  106OSM   H12G10907   0.876   4.190   9.054 -0.3249  0.5402  1.0824
  106OSM   C13F10908   0.695   4.281   8.976  0.4015  0.0826 -0.3818
  106OSM   H13F10909   0.697   4.381   9.024 -0.0513  1.2847 -2.7003
  106OSM   H13G10910   0.590   4.247   8.961  1.2689 -2.0705 -2.2709
  106OSM   C14F10911   0.762   4.294   8.834  0.1622  0.0657 -0.2178
  106OSM   H14F10912   0.867   4.259   8.841 -0.4395 -1.7308  0.3862
  106OSM   H14G10913   0.760   4.403   8.814  0.5201  0.6160  2.3741
  106OSM   C15F10914   0.687   4.236   8.712 -0.3882 -0.2501  0.4831
  106OSM   H15F10915   0.753   4.259   8.625 -3.3296  0.1116 -1.8434
  106OSM   H15G10916   0.597   4.301   8.697  0.3264  0.2435 -2.3216
  106OSM   C16F10917   0.657   4.088   8.719  0.4475  0.8415  0.3568
  106OSM   H16F10918   0.593   4.084   8.810  0.5368  3.6778  0.6332
  106OSM   H16G10919   0.753   4.037   8.740  0.8107  2.1165  2.0355
  106OSM   C17F10920   0.588   4.030   8.595  0.5024 -0.4829 -1.2028
  106OSM   H17F10921   0.609   4.098   8.510 -0.3854  0.4618 -0.6818
  106OSM   H17G10922   0.479   4.033   8.615  0.7054 -0.2320 -0.0637
  106OSM   C18F10923   0.625   3.885   8.546 -0.4560 -0.8191 -0.2214
  106OSM   H18F10924   0.632   3.820   8.636  0.9709  0.5335  0.6964
  106OSM   H18G10925   0.722   3.877   8.491 -0.5449 -0.0996 -0.4861
  106OSM   H18H10926   0.540   3.852   8.482 -1.4973 -0.2301  0.8272
  107OSM      N10927   2.170   1.829  11.468  0.3371 -0.0005  0.4634
  107OSM    C1510928   2.196   1.912  11.591 -0.4578 -1.2156  0.0737
  107OSM   H15A10929   2.200   1.842  11.674 -2.9582  0.3744  1.6760
  107OSM   H15B10930   2.120   1.985  11.616  0.8741  0.3455 -0.3165
  107OSM   H15C10931   2.290   1.964  11.579 -1.5662  0.9077  0.0899
  107OSM    C1410932   2.278   1.732  11.455 -0.4911  0.5101  0.0554
  107OSM   H14A10933   2.378   1.774  11.452 -0.9467  2.0395  2.6876
  107OSM   H14B10934   2.254   1.679  11.364 -1.1738  0.5980  0.1765
  107OSM   H14C10935   2.252   1.660  11.531 -2.3459  1.2946  0.2322
  107OSM    C1310936   2.052   1.755  11.495  0.4331 -0.3093  0.2204
  107OSM   H13A10937   2.037   1.678  11.422 -0.2450 -0.2114  0.2513
  107OSM   H13B10938   1.965   1.817  11.481  0.7646  0.6139  1.9199
  107OSM   H13C10939   2.059   1.719  11.597  2.1004  0.9607  0.6029
  107OSM    C1210940   2.160   1.918  11.345 -0.0085 -0.5217 -0.0726
  107OSM   H12A10941   2.254   1.970  11.335 -1.1166  1.6110 -0.0149
  107OSM   H12B10942   2.099   2.004  11.370  1.9518  1.5504 -1.9462
  107OSM    C1110943   2.096   1.868  11.210  1.0726 -0.6549 -0.4848
  107OSM   H11A10944   2.094   1.956  11.143  2.7069  0.4924  0.8911
  107OSM   H11B10945   1.994   1.833  11.235  0.5370  2.1845  1.7022
  107OSM      P10946   2.321   1.781  11.108  0.3396 -0.2775 -0.3374
  107OSM    O1310947   2.386   1.906  11.159  0.0170 -0.1832  0.6455
  107OSM    O1410948   2.376   1.653  11.154  0.2444 -0.1834  0.0636
  107OSM    O1110949   2.325   1.783  10.946  0.4303 -0.1914  0.3512
  107OSM    O1210950   2.166   1.763  11.145 -0.1679 -0.5136 -0.1403
  107OSM    C1S10951   2.214   1.721  10.877  0.0162  0.0054 -0.4611
  107OSM    H1S10952   2.123   1.783  10.895 -0.6864 -1.4472  1.3939
  107OSM    H1T10953   2.186   1.622  10.920  0.1023  0.4402  0.6277
  107OSM     NF10954   2.109   1.655  10.657 -0.0243  0.5138  0.1056
  107OSM    HNF10955   2.093   1.563  10.621 -0.3584  0.2539  0.8735
  107OSM    C2S10956   2.235   1.693  10.730  0.3166  0.6411  0.4856
  107OSM    H2S10957   2.261   1.792  10.687 -0.2990  0.2571 -0.8307
  107OSM    C3S10958   2.350   1.585  10.705  0.6917  0.9039 -1.0285
  107OSM    H3S10959   2.320   1.488  10.750  2.5289  0.5543 -0.4584
  107OSM     O310960   2.466   1.615  10.783  0.0854 -0.0765 -0.6575
  107OSM    HO310961   2.441   1.699  10.822  1.4578 -0.2013  0.5700
  107OSM    C4S10962   2.372   1.567  10.561  1.0932  0.2603 -0.1371
  107OSM    H4S10963   2.320   1.479  10.522  1.4256 -0.0988  0.2184
  107OSM    C5S10964   2.461   1.637  10.483  0.2744 -0.1058  0.4853
  107OSM    H5S10965   2.514   1.721  10.529  0.7911 -1.2820  2.1082
  107OSM    C6S10966   2.485   1.622  10.332 -0.4603  0.0008 -0.0169
  107OSM    H6S10967   2.552   1.538  10.306  2.4328  2.2864 -0.4301
  107OSM    H6T10968   2.545   1.710  10.303 -0.1287  0.2247  1.2654
  107OSM    C7S10969   2.358   1.612  10.235  0.0891 -0.5393 -0.1725
  107OSM    H7S10970   2.312   1.713  10.236 -0.2365 -0.6912  1.0824
  107OSM    H7T10971   2.287   1.537  10.276  1.1492 -1.2253  0.4557
  107OSM    C8S10972   2.401   1.583  10.095 -0.2976 -0.5494 -1.0119
  107OSM    H8S10973   2.481   1.506  10.094  0.0966 -0.1542 -0.3366
  107OSM    H8T10974   2.450   1.678  10.065 -0.0228 -0.3038  0.1677
  107OSM    C9S10975   2.289   1.540  10.002 -0.3491 -0.4738 -0.3991
  107OSM    H9S10976   2.205   1.613  10.003  1.9747  2.4057  1.5933
  107OSM    H9T10977   2.244   1.441  10.023 -0.0519 -0.2477  1.4133
  107OSM   C10S10978   2.339   1.526   9.851  0.1174  0.3774 -1.5211
  107OSM   H10S10979   2.294   1.434   9.806 -0.8536 -0.1539  0.4113
  107OSM   H10T10980   2.449   1.515   9.852  0.2883  0.8049  2.4815
  107OSM   C11S10981   2.307   1.657   9.774  0.2438  0.2612 -0.4093
  107OSM   H11S10982   2.357   1.745   9.820 -1.1374  1.0034 -0.2990
  107OSM   H11T10983   2.197   1.670   9.773  0.4475  2.3000  0.4553
  107OSM   C12S10984   2.344   1.662   9.626 -0.0743  0.5220 -0.0250
  107OSM   H12S10985   2.454   1.673   9.617  0.1493 -0.7719  0.7986
  107OSM   H12T10986   2.304   1.755   9.582  0.3932  0.1582 -1.2582
  107OSM   C13S10987   2.297   1.544   9.552 -0.0068  0.4390  0.0976
  107OSM   H13S10988   2.204   1.501   9.596 -0.7788  2.5565  0.6857
  107OSM   H13T10989   2.366   1.457   9.556 -2.6049 -1.7164  1.2321
  107OSM   C14S10990   2.268   1.579   9.404  0.3242  0.0147 -0.7585
  107OSM   H14S10991   2.366   1.606   9.359  0.6866  0.7873  0.4395
  107OSM   H14T10992   2.208   1.672   9.392 -2.3888 -1.5450  0.0854
  107OSM   C15S10993   2.200   1.459   9.336 -0.1717 -0.0445  0.8206
  107OSM   H15S10994   2.093   1.458   9.367 -0.3430  1.4759  0.4019
  107OSM   H15T10995   2.245   1.364   9.370  1.6195  0.3271 -0.3922
  107OSM   C16S10996   2.202   1.474   9.182  0.1210  0.0735 -0.4324
  107OSM   H16S10997   2.304   1.509   9.155 -0.4469  0.9028 -1.6040
  107OSM   H16T10998   2.137   1.556   9.146 -0.2035  1.2134  2.5060
  107OSM   C17S10999   2.178   1.339   9.113  0.2551 -0.0890  0.3393
  107OSM   H17S11000   2.070   1.314   9.122  0.3888 -0.6270  0.5155
  107OSM   H17T11001   2.225   1.247   9.156 -0.5243 -0.3545  0.6369
  107OSM   C18S11002   2.219   1.328   8.968  0.6060  0.3390 -0.5647
  107OSM   H18S11003   2.236   1.221   8.943  0.5983  0.8574 -3.0487
  107OSM   H18T11004   2.309   1.386   8.941  0.1826  0.3409 -2.0831
  107OSM   H18U11005   2.129   1.358   8.911  0.4238  0.0465 -0.4354
  107OSM    C1F11006   2.016   1.747  10.630 -0.1557  0.1302  0.2885
  107OSM     OF11007   2.032   1.865  10.654  0.1754 -0.3572  0.1778
  107OSM    C2F11008   1.893   1.697  10.564 -0.0300  0.3262 -0.5284
  107OSM    H2F11009   1.801   1.735  10.614 -0.5844 -3.0081  1.2991
  107OSM    H2G11010   1.899   1.586  10.576  4.8893  0.2916 -1.2442
  107OSM    C3F11011   1.881   1.734  10.413 -0.0400 -0.6391  0.1263
  107OSM    H3F11012   1.850   1.840  10.396  0.3060 -0.4656  0.5439
  107OSM    H3G11013   1.800   1.666  10.380  0.4210 -0.9200 -0.4585
  107OSM    C4F11014   2.009   1.714  10.330 -1.0146  0.4315  0.6464
  107OSM    H4F11015   2.042   1.608  10.331 -3.4764 -0.4184 -0.4403
  107OSM    H4G11016   2.089   1.778  10.372  0.1879 -1.9004  2.1162
  107OSM    C5F11017   1.993   1.766  10.183  0.2371  0.6291  0.5617
  107OSM    H5F11018   2.090   1.737  10.137 -0.1382 -1.1080  0.7728
  107OSM    H5G11019   1.982   1.876  10.181  2.0246  0.9025  2.4320
  107OSM    C6F11020   1.886   1.686  10.101 -0.6480 -0.6506 -1.2415
  107OSM    H6F11021   1.786   1.721  10.133 -1.6832 -2.8967 -1.7468
  107OSM    H6G11022   1.912   1.581  10.127  0.5197  0.2083  1.2677
  107OSM    C7F11023   1.903   1.710   9.955  0.1925 -0.2988 -0.2888
  107OSM    H7F11024   1.856   1.629   9.894  1.0800 -0.6257 -0.5541
  107OSM    H7G11025   2.008   1.695   9.921  0.1486 -1.7498  0.1407
  107OSM    C8F11026   1.873   1.848   9.901  0.7012  0.0425 -0.0782
  107OSM    H8F11027   1.907   1.924   9.974  0.5638  0.3604 -0.3418
  107OSM    H8G11028   1.762   1.846   9.907  0.6473 -0.7612 -1.1348
  107OSM    C9F11029   1.922   1.877   9.760 -0.3142 -1.0654  0.7348
  107OSM    H9F11030   2.017   1.825   9.738 -0.6542 -1.6099  0.5231
  107OSM   C10F11031   1.852   1.955   9.668 -0.5724  0.2592 -0.1907
  107OSM   H10F11032   1.881   1.981   9.565 -1.0431  2.3689  0.1597
  107OSM   C11F11033   1.718   2.013   9.693  0.5245 -0.0065 -0.2005
  107OSM   H11F11034   1.676   1.997   9.795 -2.1977  2.5811 -0.7731
  107OSM   H11G11035   1.647   1.966   9.623  0.0733  0.3973 -0.0157
  107OSM   C12F11036   1.713   2.162   9.679 -0.6051 -0.6210  1.2794
  107OSM   H12F11037   1.757   2.192   9.581  0.5815  0.2989  2.0642
  107OSM   H12G11038   1.779   2.200   9.760 -0.1184 -0.9962  1.0666
  107OSM   C13F11039   1.573   2.216   9.700 -0.0234  0.7397 -0.3698
  107OSM   H13F11040   1.523   2.180   9.793  0.3719 -0.9414 -0.7740
  107OSM   H13G11041   1.513   2.177   9.615 -0.7141  0.4146  0.2583
  107OSM   C14F11042   1.559   2.366   9.702 -0.0267  0.2562 -0.1139
  107OSM   H14F11043   1.628   2.400   9.622  3.0920  1.2078  2.7220
  107OSM   H14G11044   1.598   2.401   9.800 -0.6083 -2.0167  0.9980
  107OSM   C15F11045   1.413   2.420   9.694  0.2098 -0.4269 -0.4774
  107OSM   H15F11046   1.411   2.531   9.689 -3.4245 -0.4496 -2.5039
  107OSM   H15G11047   1.346   2.387   9.776  1.3700 -2.3445 -0.2554
  107OSM   C16F11048   1.342   2.379   9.563  0.2830  0.5812  0.9455
  107OSM   H16F11049   1.294   2.280   9.573 -1.8944  1.4177 -0.5024
  107OSM   H16G11050   1.420   2.370   9.485  1.0356  1.5730  1.5528
  107OSM   C17F11051   1.227   2.481   9.530  0.2942 -0.1337 -0.3591
  107OSM   H17F11052   1.273   2.576   9.496 -0.8887  0.9955  1.0642
  107OSM   H17G11053   1.179   2.504   9.627 -1.2638  1.0007 -1.3515
  107OSM   C18F11054   1.103   2.442   9.441  0.1620  0.4507 -0.6555
  107OSM   H18F11055   1.075   2.340   9.476 -1.1106  1.4010  1.2686
  107OSM   H18G11056   1.121   2.454   9.332 -1.3947 -1.9156 -1.2461
  107OSM   H18H11057   1.022   2.513   9.469  0.6770  0.6550  0.3835
  108OSM      N11058   3.994   5.130  11.409 -0.7973  0.1119  0.4166
  108OSM    C1511059   3.876   5.107  11.501 -0.3197 -0.0623 -0.5053
  108OSM   H15A11060   3.886   5.173  11.585  2.7032 -0.2120 -0.6351
  108OSM   H15B11061   3.871   5.008  11.544  0.9768 -0.1398 -0.4793
  108OSM   H15C11062   3.776   5.129  11.467 -2.0910 -0.3452  3.9230
  108OSM    C1411063   4.009   5.277  11.378 -0.2141 -0.3631 -0.4995
  108OSM   H14A11064   4.102   5.275  11.322  0.7275  1.4693  0.8887
  108OSM   H14B11065   4.029   5.339  11.464 -1.5838 -0.2654 -0.2265
  108OSM   H14C11066   3.926   5.316  11.322  0.1614 -0.6058 -1.2398
  108OSM    C1311067   4.111   5.088  11.497  0.6673  0.0963  0.3732
  108OSM   H13A11068   4.105   4.990  11.543 -1.4072  0.3954  0.8172
  108OSM   H13B11069   4.132   5.147  11.585  1.5707 -1.1542  1.0253
  108OSM   H13C11070   4.204   5.098  11.443 -1.1791 -0.3234 -3.1351
  108OSM    C1211071   3.985   5.053  11.277 -0.3862  0.0088  0.1332
  108OSM   H12A11072   3.891   5.076  11.231  0.1563 -0.8884 -1.5234
  108OSM   H12B11073   3.973   4.949  11.306  1.0494 -0.2999 -0.2650
  108OSM    C1111074   4.100   5.054  11.167  0.1144 -0.0984 -0.4957
  108OSM   H11A11075   4.085   4.973  11.093  0.3026 -1.6353  1.0672
  108OSM   H11B11076   4.197   5.044  11.221  0.6022  0.0208 -1.3385
  108OSM      P11077   4.224   5.255  11.046  0.8060 -0.4458 -0.4540
  108OSM    O1311078   4.180   5.399  11.014 -0.5169  0.7431 -0.3223
  108OSM    O1411079   4.343   5.242  11.136 -0.0276 -0.1336 -0.0707
  108OSM    O1111080   4.258   5.187  10.905  0.7825 -0.6700 -0.3483
  108OSM    O1211081   4.095   5.181  11.096 -0.4906 -0.7476  0.5015
  108OSM    C1S11082   4.159   5.143  10.815  0.6979  0.2457 -0.2018
  108OSM    H1S11083   4.059   5.161  10.859  0.6978 -0.1199 -0.0464
  108OSM    H1T11084   4.165   5.034  10.800  2.2299  0.1173  1.0472
  108OSM     NF11085   4.050   5.175  10.596  0.0812 -0.6826 -0.2709
  108OSM    HNF11086   4.056   5.090  10.545  0.6635 -0.7079 -0.1640
  108OSM    C2S11087   4.165   5.213  10.676  0.1312  0.5858  0.1154
  108OSM    H2S11088   4.173   5.322  10.696  1.9711  1.0414 -2.5914
  108OSM    C3S11089   4.297   5.177  10.603  1.1251  1.0045  0.3469
  108OSM    H3S11090   4.295   5.066  10.596 -0.3701  1.1436 -3.0422
  108OSM     O311091   4.418   5.205  10.671  0.4995 -0.3450 -0.2036
  108OSM    HO311092   4.380   5.217  10.758 -0.3175  0.0252 -0.5981
  108OSM    C4S11093   4.296   5.228  10.461  0.3905 -0.2768 -0.4610
  108OSM    H4S11094   4.260   5.153  10.389  0.7906 -0.5511 -0.3772
  108OSM    C5S11095   4.327   5.351  10.425 -0.8127  0.4757 -0.0438
  108OSM    H5S11096   4.364   5.423  10.500  0.4718 -0.4420  0.2403
  108OSM    C6S11097   4.321   5.403  10.279  0.0147  0.0142  0.3543
  108OSM    H6S11098   4.417   5.456  10.260  0.5590 -1.2846 -0.6104
  108OSM    H6T11099   4.252   5.488  10.261  2.1454  1.6689 -0.4582
  108OSM    C7S11100   4.286   5.312  10.157  0.5823 -0.0780 -0.7619
  108OSM    H7S11101   4.178   5.287  10.165  0.1513  1.7716 -0.4097
  108OSM    H7T11102   4.330   5.210  10.166  0.9100  0.2543  2.9045
  108OSM    C8S11103   4.317   5.378  10.023 -0.5330 -0.0293  0.4858
  108OSM    H8S11104   4.423   5.412  10.024 -0.6913  0.5022 -0.3213
  108OSM    H8T11105   4.270   5.478  10.028 -1.1408 -0.3552  1.8782
  108OSM    C9S11106   4.274   5.302   9.894  0.2395  0.8418  0.1883
  108OSM    H9S11107   4.163   5.302   9.896  0.0792 -3.2486  1.7097
  108OSM    H9T11108   4.312   5.198   9.890 -3.5088 -0.6476 -0.3087
  108OSM   C10S11109   4.323   5.367   9.766 -0.1078  1.1307  0.2076
  108OSM   H10S11110   4.433   5.360   9.752 -0.4446 -1.9023 -1.8795
  108OSM   H10T11111   4.299   5.475   9.757  0.0659  1.0829 -1.0064
  108OSM   C11S11112   4.265   5.302   9.640 -0.0219  0.2918  0.1878
  108OSM   H11S11113   4.157   5.323   9.651  0.2317  3.3875 -2.0402
  108OSM   H11T11114   4.280   5.192   9.644  0.4694  0.3506  0.0069
  108OSM   C12S11115   4.315   5.350   9.505  0.1638 -0.3046  0.2468
  108OSM   H12S11116   4.415   5.306   9.485  0.0194 -0.7565  0.4893
  108OSM   H12T11117   4.325   5.460   9.498 -0.5557 -0.3621 -3.2816
  108OSM   C13S11118   4.224   5.277   9.401 -0.2865  0.1264  0.3406
  108OSM   H13S11119   4.118   5.311   9.397 -0.1258  0.6317  0.3254
  108OSM   H13T11120   4.231   5.171   9.432 -1.9837 -0.8441 -2.1814
  108OSM   C14S11121   4.286   5.299   9.262 -0.2083 -0.1402  0.5624
  108OSM   H14S11122   4.388   5.257   9.252  0.1561  0.8978 -0.3868
  108OSM   H14T11123   4.288   5.404   9.225 -0.1681 -0.4278 -0.2792
  108OSM   C15S11124   4.224   5.216   9.148 -0.2781 -0.6770  0.1242
  108OSM   H15S11125   4.118   5.248   9.134  0.1429  0.5855 -0.3278
  108OSM   H15T11126   4.215   5.108   9.173 -0.6617 -0.6705  0.0211
  108OSM   C16S11127   4.300   5.238   9.020 -0.0124  0.6695 -0.2535
  108OSM   H16S11128   4.407   5.212   9.030  0.3115  1.2098 -1.9356
  108OSM   H16T11129   4.298   5.346   8.990  2.5479  1.1457  1.0835
  108OSM   C17S11130   4.250   5.144   8.898 -0.1550  0.1479 -0.0570
  108OSM   H17S11131   4.218   5.049   8.946 -0.7594  0.4408  0.1392
  108OSM   H17T11132   4.336   5.114   8.834 -1.0084 -2.5260 -0.0913
  108OSM   C18S11133   4.125   5.190   8.832  0.1773 -0.7347 -0.1575
  108OSM   H18S11134   4.143   5.280   8.770 -1.4347 -0.5749 -0.4236
  108OSM   H18T11135   4.046   5.218   8.904 -0.4906  0.2609 -1.2360
  108OSM   H18U11136   4.092   5.109   8.763  0.9413 -0.5993 -0.6913
  108OSM    C1F11137   3.927   5.213  10.631 -0.3223  0.1102  0.0172
  108OSM     OF11138   3.914   5.322  10.688 -0.1521 -0.0915 -0.1470
  108OSM    C2F11139   3.811   5.120  10.616 -0.4421 -0.0186 -0.0230
  108OSM    H2F11140   3.758   5.120  10.714  0.3998 -1.0290  0.4597
  108OSM    H2G11141   3.848   5.016  10.605  0.9469  0.4739 -0.1808
  108OSM    C3F11142   3.719   5.162  10.505 -0.6975 -0.7573  0.1432
  108OSM    H3F11143   3.700   5.271  10.509 -2.7367 -1.1025  1.8388
  108OSM    H3G11144   3.618   5.116  10.517 -2.1882  2.5173  1.1450
  108OSM    C4F11145   3.768   5.120  10.362  0.7423  0.2371 -0.2270
  108OSM    H4F11146   3.771   5.009  10.362 -0.1259  0.2069 -0.5710
  108OSM    H4G11147   3.868   5.168  10.347  0.6005  1.5499  2.3798
  108OSM    C5F11148   3.675   5.178  10.257  0.1244  0.3440  0.2585
  108OSM    H5F11149   3.679   5.289  10.264  1.8697  0.2527  1.1522
  108OSM    H5G11150   3.575   5.140  10.288 -0.0158  0.0348 -0.5554
  108OSM    C6F11151   3.711   5.127  10.115 -0.1271  0.6359  0.8675
  108OSM    H6F11152   3.676   5.024  10.095  2.3413 -0.1166  0.1105
  108OSM    H6G11153   3.822   5.119  10.108  0.1154 -0.0082  3.8726
  108OSM    C7F11154   3.653   5.221  10.010  0.2348 -0.6079 -0.4163
  108OSM    H7F11155   3.707   5.315  10.034  1.0459 -1.5912  1.9199
  108OSM    H7G11156   3.545   5.243  10.022  0.3383  0.7234 -1.6748
  108OSM    C8F11157   3.688   5.173   9.863  0.6597 -0.0244 -0.4035
  108OSM    H8F11158   3.645   5.248   9.793  0.5233  1.0064  0.7615
  108OSM    H8G11159   3.637   5.076   9.842  1.2689  0.2379 -3.6889
  108OSM    C9F11160   3.831   5.146   9.832 -0.3470 -0.2621  0.4938
  108OSM    H9F11161   3.880   5.106   9.921  0.8695 -0.7827 -0.3854
  108OSM   C10F11162   3.907   5.189   9.729  0.6260  0.3292  0.2414
  108OSM   H10F11163   4.014   5.163   9.723  0.8755  1.4042 -0.1715
  108OSM   C11F11164   3.848   5.268   9.615  0.1311  0.2402  0.1213
  108OSM   H11F11165   3.925   5.326   9.561 -0.1945  1.8263  1.3030
  108OSM   H11G11166   3.773   5.342   9.649 -0.3248 -0.1686  0.0237
  108OSM   C12F11167   3.781   5.179   9.505 -0.1663  0.4106 -0.4319
  108OSM   H12F11168   3.705   5.242   9.452  0.4704 -0.1814 -2.1180
  108OSM   H12G11169   3.729   5.093   9.551 -0.2779 -0.8761 -2.7909
  108OSM   C13F11170   3.875   5.149   9.387 -0.3462  0.1574  0.3122
  108OSM   H13F11171   3.967   5.102   9.430  1.4878  3.8286  0.8237
  108OSM   H13G11172   3.906   5.250   9.354  2.1369 -0.4368  0.6103
  108OSM   C14F11173   3.815   5.063   9.277  0.3404 -0.2997 -0.4241
  108OSM   H14F11174   3.742   5.132   9.231 -1.2665  0.4500  2.9352
  108OSM   H14G11175   3.776   4.969   9.323  0.3557  0.0505  0.3247
  108OSM   C15F11176   3.902   5.025   9.156 -0.0888 -0.2860  0.3978
  108OSM   H15F11177   3.986   4.972   9.207 -1.8644 -2.3377  1.3114
  108OSM   H15G11178   3.950   5.118   9.119 -2.1441  0.4568 -0.5192
  108OSM   C16F11179   3.837   4.941   9.049 -0.1237 -0.1257  0.4754
  108OSM   H16F11180   3.780   5.013   8.986 -1.6416  0.4660  2.4268
  108OSM   H16G11181   3.767   4.869   9.096 -2.5839  1.4024 -0.6140
  108OSM   C17F11182   3.934   4.857   8.966 -0.3088  0.0074 -0.0538
  108OSM   H17F11183   4.003   4.805   9.035 -0.8889 -0.8175 -0.0792
  108OSM   H17G11184   3.985   4.930   8.899  0.1305  0.6197  0.9273
  108OSM   C18F11185   3.867   4.759   8.870  0.0951  0.2157 -0.2063
  108OSM   H18F11186   3.939   4.688   8.825  0.6394  0.9817 -0.5696
  108OSM   H18G11187   3.803   4.804   8.792  0.1333  0.8343  0.1112
  108OSM   H18H11188   3.798   4.700   8.933  1.3368 -0.6794  0.3688
  109OSM      N11189   6.081   6.014  11.028  0.7300 -0.5102  0.2215
  109OSM    C1511190   6.211   6.026  10.958 -0.1463  0.0091 -0.0985
  109OSM   H15A11191   6.295   6.051  11.021 -0.9029  0.8491  0.5980
  109OSM   H15B11192   6.207   6.097  10.876 -0.7692  0.0503 -0.0382
  109OSM   H15C11193   6.236   5.931  10.913 -3.0919 -0.3021 -1.3363
  109OSM    C1411194   6.094   5.915  11.140 -0.3618 -0.3283  0.0272
  109OSM   H14A11195   6.183   5.933  11.198 -0.6789 -0.8095  0.6835
  109OSM   H14B11196   6.118   5.813  11.112  2.6065 -0.5709  2.8111
  109OSM   H14C11197   6.010   5.931  11.206  1.6310  0.5846  2.5339
  109OSM    C1311198   6.044   6.147  11.083  0.2239 -0.1009  0.2467
  109OSM   H13A11199   6.036   6.227  11.011  0.7867 -0.8800 -0.7205
  109OSM   H13B11200   6.114   6.188  11.155  1.9163 -3.0605  0.4769
  109OSM   H13C11201   5.953   6.139  11.140 -1.3640  0.7877 -2.0142
  109OSM    C1211202   5.971   5.955  10.938 -0.0515  0.3220  0.5908
  109OSM   H12A11203   5.878   5.935  10.989 -0.7036  0.0302 -0.6626
  109OSM   H12B11204   6.002   5.858  10.903 -1.1129 -0.0642  0.6814
  109OSM    C1111205   5.939   6.035  10.809 -0.0092 -0.1269  0.5638
  109OSM   H11A11206   6.034   6.029  10.752  0.2460 -2.4733  1.1385
  109OSM   H11B11207   5.897   6.137  10.823 -1.2793 -0.6063  0.3950
  109OSM      P11208   5.686   5.938  10.786  0.2309  0.6562  0.4640
  109OSM    O1311209   5.621   5.812  10.731  0.0787  0.5749  0.1350
  109OSM    O1411210   5.673   5.988  10.925 -0.3463 -0.1533  0.3486
  109OSM    O1111211   5.626   6.048  10.696 -0.4457 -0.4554 -0.1981
  109OSM    O1211212   5.845   5.943  10.739  0.3345 -0.5171 -0.0208
  109OSM    C1S11213   5.661   6.069  10.560 -0.1787  0.1838  0.2738
  109OSM    H1S11214   5.743   6.001  10.528  0.7994  0.6171  1.7522
  109OSM    H1T11215   5.685   6.176  10.543 -1.4034  0.3479 -0.5589
  109OSM     NF11216   5.565   6.043  10.331 -0.5537  0.2417 -0.1817
  109OSM    HNF11217   5.536   6.120  10.276 -0.8005  2.1036  2.3503
  109OSM    C2S11218   5.532   6.058  10.473  0.3607 -0.1915  0.0345
  109OSM    H2S11219   5.485   5.962  10.505  1.0218  0.2237  2.4900
  109OSM    C3S11220   5.423   6.167  10.504  0.6739 -0.0625  0.3977
  109OSM    H3S11221   5.466   6.266  10.476 -0.1430 -0.2026 -1.4927
  109OSM     O311222   5.400   6.180  10.648  0.5419  0.1565  0.0358
  109OSM    HO311223   5.487   6.155  10.678  0.7219  0.6755 -0.0415
  109OSM    C4S11224   5.296   6.149  10.435  0.2497 -0.7438 -0.1546
  109OSM    H4S11225   5.240   6.060  10.467  1.7937 -1.1578  1.5244
  109OSM    C5S11226   5.255   6.222  10.332  0.7027 -0.2297  0.0677
  109OSM    H5S11227   5.308   6.314  10.303 -0.3580  0.2610 -0.3688
  109OSM    C6S11228   5.118   6.186  10.274  0.2405 -0.7255 -0.5186
  109OSM    H6S11229   5.030   6.195  10.341  0.8529 -0.2120  0.2270
  109OSM    H6T11230   5.112   6.082  10.235 -1.8756 -1.1857  0.8542
  109OSM    C7S11231   5.096   6.289  10.161 -0.9993 -0.2681  0.3240
  109OSM    H7S11232   5.186   6.296  10.097 -0.1802  0.3426  1.4958
  109OSM    H7T11233   5.094   6.393  10.200  2.5657  0.1079 -0.1656
  109OSM    C8S11234   4.972   6.270  10.080 -0.2027 -0.6051  0.3208
  109OSM    H8S11235   4.950   6.360  10.018  0.5843 -1.4133 -1.1587
  109OSM    H8T11236   4.887   6.249  10.149  0.4679  0.0163  1.3611
  109OSM    C9S11237   4.979   6.161   9.974  0.1375 -0.1779  0.1992
  109OSM    H9S11238   4.959   6.064  10.024 -0.2519 -0.5327 -0.6247
  109OSM    H9T11239   5.081   6.164   9.930 -0.1934  1.5496 -0.5601
  109OSM   C10S11240   4.864   6.179   9.867 -0.5981  0.4461 -0.6497
  109OSM   H10S11241   4.843   6.287   9.853  1.0411  0.8080 -0.5247
  109OSM   H10T11242   4.771   6.133   9.907 -0.8429  1.1225 -0.4389
  109OSM   C11S11243   4.902   6.108   9.736  0.0489  0.3326  0.1787
  109OSM   H11S11244   4.916   5.998   9.741  1.0528  0.3944 -0.8122
  109OSM   H11T11245   4.998   6.152   9.700  0.5684  1.2116  2.4843
  109OSM   C12S11246   4.798   6.129   9.626 -0.7589  0.2672  0.8945
  109OSM   H12S11247   4.756   6.232   9.634  1.0773  1.1695 -0.3385
  109OSM   H12T11248   4.707   6.067   9.638 -0.7943  0.2249  0.4142
  109OSM   C13S11249   4.862   6.106   9.488 -0.6551  0.4812  0.5711
  109OSM   H13S11250   4.919   6.011   9.500 -1.7457 -0.1119  1.2391
  109OSM   H13T11251   4.940   6.179   9.458 -0.2743 -0.8769 -2.0355
  109OSM   C14S11252   4.760   6.089   9.377 -0.3924 -0.2041  0.0824
  109OSM   H14S11253   4.708   6.185   9.356 -0.0627 -0.3780 -1.7162
  109OSM   H14T11254   4.679   6.020   9.408 -0.1564 -0.3065  0.4719
  109OSM   C15S11255   4.831   6.055   9.243 -0.5917 -0.6617  0.4689
  109OSM   H15S11256   4.897   5.965   9.247 -0.8437 -1.0685 -2.3220
  109OSM   H15T11257   4.882   6.151   9.217 -2.9942  0.1846 -1.4641
  109OSM   C16S11258   4.741   6.029   9.127 -0.3235  0.2623  1.1372
  109OSM   H16S11259   4.661   6.106   9.131  0.1383  0.8190  0.0378
  109OSM   H16T11260   4.697   5.927   9.140  1.8715 -0.4879  3.1766
  109OSM   C17S11261   4.798   6.031   8.985 -0.2252  0.3754 -0.5260
  109OSM   H17S11262   4.853   6.126   8.969 -1.0906  1.1476  0.9857
  109OSM   H17T11263   4.720   6.027   8.906  2.0235 -1.5324 -2.8515
  109OSM   C18S11264   4.892   5.919   8.963 -0.8536 -0.3004  0.7979
  109OSM   H18S11265   4.969   5.908   9.042  0.4093 -1.9317 -0.5818
  109OSM   H18T11266   4.948   5.931   8.868  0.5963 -2.8231  1.2480
  109OSM   H18U11267   4.837   5.823   8.957 -0.9469 -0.1775 -0.6971
  109OSM    C1F11268   5.627   5.934  10.284  0.3783 -0.9556  0.0820
  109OSM     OF11269   5.650   5.835  10.356 -0.6077  0.5122 -0.0118
  109OSM    C2F11270   5.655   5.936  10.137 -0.0512 -0.0517 -0.0432
  109OSM    H2F11271   5.620   6.033  10.096 -0.6801  0.1685  0.9705
  109OSM    H2G11272   5.597   5.858  10.085 -0.0848  0.2959 -0.5334
  109OSM    C3F11273   5.799   5.918  10.103 -0.1491  0.4087  0.4532
  109OSM    H3F11274   5.839   5.815  10.119  0.6111  0.7835  1.0672
  109OSM    H3G11275   5.858   5.976  10.177  1.6280 -2.6119  1.6408
  109OSM    C4F11276   5.828   5.939   9.949 -0.2870 -0.0908 -0.5551
  109OSM    H4F11277   5.937   5.955   9.936 -0.1922 -0.7448 -0.6276
  109OSM    H4G11278   5.771   6.026   9.911 -1.8297 -1.0878 -0.6181
  109OSM    C5F11279   5.782   5.817   9.874  0.1285  0.3225 -0.2765
  109OSM    H5F11280   5.671   5.815   9.869  0.1021 -0.5000  0.5742
  109OSM    H5G11281   5.814   5.721   9.920 -2.0693 -0.4423 -0.2238
  109OSM    C6F11282   5.825   5.812   9.722 -0.1551  0.0298 -0.5451
  109OSM    H6F11283   5.776   5.901   9.678 -1.0283 -0.5858 -0.8330
  109OSM    H6G11284   5.766   5.730   9.677 -2.2389  1.0205  0.2526
  109OSM    C7F11285   5.981   5.811   9.706 -0.0562  0.3785 -0.7767
  109OSM    H7F11286   6.018   5.905   9.751  0.7567  0.7661 -2.1866
  109OSM    H7G11287   5.991   5.813   9.595  0.4255  0.4563 -0.7339
  109OSM    C8F11288   6.048   5.682   9.760  0.2550 -0.0596  0.2084
  109OSM    H8F11289   6.052   5.680   9.871 -1.3225  0.9041  0.3144
  109OSM    H8G11290   6.153   5.692   9.725 -0.0806 -1.2095 -1.1974
  109OSM    C9F11291   5.986   5.555   9.697  0.2242 -0.0155 -0.1187
  109OSM    H9F11292   5.899   5.513   9.750  0.4753  0.6595  0.8580
  109OSM   C10F11293   6.033   5.480   9.596 -0.2043 -0.6782 -0.5605
  109OSM   H10F11294   5.967   5.403   9.553  1.8070 -1.7954 -1.8024
  109OSM   C11F11295   6.165   5.508   9.520 -0.0788 -0.0257  0.0887
  109OSM   H11F11296   6.191   5.409   9.478  0.0918  0.6615 -1.5147
  109OSM   H11G11297   6.246   5.543   9.588  0.4981  1.9174 -1.5047
  109OSM   C12F11298   6.148   5.611   9.407 -0.3345 -0.4818 -0.9637
  109OSM   H12F11299   6.251   5.622   9.366 -1.3248  3.6444 -2.8100
  109OSM   H12G11300   6.119   5.711   9.445  2.5836  1.2330 -2.8820
  109OSM   C13F11301   6.044   5.557   9.312 -0.3248  0.2289 -0.4705
  109OSM   H13F11302   5.942   5.558   9.356 -0.4300 -0.6385 -0.6819
  109OSM   H13G11303   6.072   5.452   9.287 -0.5245 -0.1749  0.8919
  109OSM   C14F11304   6.027   5.642   9.183 -0.0382 -0.4154  0.9920
  109OSM   H14F11305   6.122   5.697   9.164  0.3823 -1.6929 -0.8008
  109OSM   H14G11306   5.952   5.721   9.203  0.6351  0.6453 -0.4960
  109OSM   C15F11307   5.982   5.564   9.060 -0.3041 -0.2203  0.2317
  109OSM   H15F11308   6.029   5.463   9.061 -0.4518 -0.2952 -0.1733
  109OSM   H15G11309   6.025   5.616   8.971 -0.3854 -0.3850  0.0955
  109OSM   C16F11310   5.833   5.554   9.040 -0.0160 -0.2734  0.3032
  109OSM   H16F11311   5.767   5.638   9.070  1.4189  0.6047  1.1283
  109OSM   H16G11312   5.797   5.468   9.099  0.1488  0.0092  0.8192
  109OSM   C17F11313   5.801   5.524   8.894  0.1209 -0.0481  0.3096
  109OSM   H17F11314   5.875   5.446   8.866 -0.3700 -0.1851 -0.6270
  109OSM   H17G11315   5.807   5.616   8.832  2.8882 -1.1693 -1.2703
  109OSM   C18F11316   5.665   5.468   8.875  0.3457 -0.2429 -0.1590
  109OSM   H18F11317   5.649   5.464   8.765  0.5805 -3.5467 -0.1940
  109OSM   H18G11318   5.577   5.529   8.906 -0.7511 -1.7504 -0.1680
  109OSM   H18H11319   5.639   5.369   8.918 -0.1261  0.2231  0.6655
  110OSM      N11320   0.659   5.219  10.754 -0.6525  0.3612  0.0413
  110OSM    C1511321   0.556   5.121  10.807 -0.1818 -0.2871 -0.8248
  110OSM   H15A11322   0.602   5.029  10.839 -2.8220 -2.1626 -2.0645
  110OSM   H15B11323   0.484   5.089  10.733  0.9516 -2.4372 -1.0819
  110OSM   H15C11324   0.506   5.166  10.891 -0.3111  0.8674 -1.4887
  110OSM    C1411325   0.747   5.256  10.874  0.0164 -0.0959 -0.1803
  110OSM   H14A11326   0.694   5.311  10.951  1.7736  0.0600  0.9783
  110OSM   H14B11327   0.831   5.315  10.840 -0.4891  1.1791  0.6987
  110OSM   H14C11328   0.776   5.167  10.928 -1.2086  0.4028  1.3696
  110OSM    C1311329   0.750   5.145  10.648 -0.2036  0.3905 -0.6227
  110OSM   H13A11330   0.806   5.060  10.683 -0.4542  1.1194  1.7267
  110OSM   H13B11331   0.820   5.213  10.603 -0.5859 -0.0948 -2.0091
  110OSM   H13C11332   0.682   5.106  10.574  0.1368  1.0474 -1.3002
  110OSM    C1211333   0.597   5.344  10.693  0.0229  0.6152  0.0392
  110OSM   H12A11334   0.565   5.315  10.595  0.1917  0.7553 -0.0578
  110OSM   H12B11335   0.677   5.417  10.696  0.5740 -0.0075  0.6151
  110OSM    C1111336   0.488   5.412  10.778  0.2982 -0.3066 -0.7264
  110OSM   H11A11337   0.404   5.339  10.790  0.3234 -0.1059  0.9819
  110OSM   H11B11338   0.446   5.496  10.720  0.3740 -0.0398 -0.3945
  110OSM      P11339   0.603   5.601  10.936  0.3239 -0.3240 -0.2022
  110OSM    O1311340   0.486   5.687  10.972  0.2312 -0.1043  0.3977
  110OSM    O1411341   0.716   5.593  11.031 -0.1508 -0.2903  0.7965
  110OSM    O1111342   0.653   5.633  10.791  0.2588 -0.1772  0.3682
  110OSM    O1211343   0.544   5.455  10.906  0.4189  0.0353 -0.8987
  110OSM    C1S11344   0.739   5.739  10.773  0.2600 -0.1143 -0.1813
  110OSM    H1S11345   0.841   5.697  10.769  0.5847  0.3938  1.7821
  110OSM    H1T11346   0.737   5.814  10.856 -0.3140 -0.0279 -0.2648
  110OSM     NF11347   0.804   5.909  10.597  0.1665  0.2742 -0.2361
  110OSM    HNF11348   0.773   6.003  10.603 -0.4558  0.1245 -0.9866
  110OSM    C2S11349   0.698   5.805  10.630 -0.1487 -0.6458  0.1727
  110OSM    H2S11350   0.684   5.726  10.553 -1.3953  0.2155 -0.5105
  110OSM    C3S11351   0.550   5.862  10.635 -0.2600  0.2575  0.1771
  110OSM    H3S11352   0.544   5.945  10.709 -1.8280 -0.0986  0.4743
  110OSM     O311353   0.449   5.778  10.669  0.1599  0.6439  0.1491
  110OSM    HO311354   0.492   5.701  10.707 -0.4986 -0.9316 -2.0806
  110OSM    C4S11355   0.524   5.918  10.503  0.0998  0.0764  0.3001
  110OSM    H4S11356   0.534   5.837  10.430  2.0699 -0.8033  1.4518
  110OSM    C5S11357   0.491   6.040  10.456 -0.7242 -0.2617  0.0160
  110OSM    H5S11358   0.485   6.123  10.528  2.1473 -0.0755  0.1544
  110OSM    C6S11359   0.460   6.080  10.312  0.6041  0.2507 -0.3635
  110OSM    H6S11360   0.551   6.119  10.261 -0.0656  1.1085 -0.9253
  110OSM    H6T11361   0.387   6.163  10.324 -0.8448 -1.3017  2.5718
  110OSM    C7S11362   0.391   5.963  10.237 -0.2159 -0.5629  0.2758
  110OSM    H7S11363   0.295   5.932  10.284 -0.0326 -0.9932  0.3678
  110OSM    H7T11364   0.460   5.876  10.236 -1.7632 -1.8320 -0.1573
  110OSM    C8S11365   0.353   5.995  10.091  0.0742  0.4169 -0.0466
  110OSM    H8S11366   0.309   6.096  10.079  1.9446  1.3634  0.5810
  110OSM    H8T11367   0.273   5.923  10.063  1.2382 -0.3909 -1.4166
  110OSM    C9S11368   0.475   5.998   9.988 -0.3579 -0.0831  0.0192
  110OSM    H9S11369   0.524   5.899   9.987  3.8469  1.7573  1.2224
  110OSM    H9T11370   0.553   6.065  10.030 -0.3352 -1.2139  1.9144
  110OSM   C10S11371   0.434   6.042   9.843  0.8366  0.3218 -0.1272
  110OSM   H10S11372   0.416   6.151   9.847  3.4122  0.8988 -1.4663
  110OSM   H10T11373   0.347   5.976   9.825  1.9163 -1.0265 -0.5895
  110OSM   C11S11374   0.558   6.024   9.751 -0.3252 -0.3426 -0.5106
  110OSM   H11S11375   0.587   5.917   9.760  1.9641  0.4019  2.1566
  110OSM   H11T11376   0.641   6.078   9.801 -1.0012  0.4179 -0.1813
  110OSM   C12S11377   0.534   6.068   9.607  0.0464  0.4413 -0.0260
  110OSM   H12S11378   0.472   6.160   9.601  0.5269  0.9321  1.8559
  110OSM   H12T11379   0.471   5.987   9.565 -0.6975  0.5115  0.9114
  110OSM   C13S11380   0.662   6.084   9.523  0.1454 -0.5203  0.1324
  110OSM   H13S11381   0.720   5.990   9.535 -1.8894 -1.5876  2.5097
  110OSM   H13T11382   0.716   6.173   9.561 -1.7537 -0.1689  2.1572
  110OSM   C14S11383   0.627   6.112   9.376  0.1011 -0.5784 -0.7439
  110OSM   H14S11384   0.564   6.205   9.377  0.2137 -0.4122  2.2472
  110OSM   H14T11385   0.559   6.034   9.336  0.7336 -1.7641  0.4412
  110OSM   C15S11386   0.747   6.122   9.278  0.5247  0.3701 -0.2850
  110OSM   H15S11387   0.761   6.016   9.248 -1.3115  0.0653 -0.2191
  110OSM   H15T11388   0.842   6.172   9.306  1.5476 -2.7800  2.4813
  110OSM   C16S11389   0.710   6.192   9.147  0.6378  0.2757 -0.4412
  110OSM   H16S11390   0.718   6.300   9.172  1.0080  0.3322 -0.8007
  110OSM   H16T11391   0.601   6.174   9.130 -0.1234  1.9639  2.0520
  110OSM   C17S11392   0.794   6.162   9.023 -0.4427 -0.0693  0.9099
  110OSM   H17S11393   0.750   6.217   8.937  2.0274 -2.2656 -2.0250
  110OSM   H17T11394   0.770   6.056   8.997 -0.7041  0.2226 -0.0709
  110OSM   C18S11395   0.946   6.183   9.034  0.2533 -0.5485 -0.0882
  110OSM   H18S11396   0.994   6.088   9.000  2.4274 -0.1017  1.5605
  110OSM   H18T11397   0.983   6.207   9.136 -2.4167  1.5168  0.5077
  110OSM   H18U11398   0.965   6.272   8.970  3.0864 -1.4414 -0.6263
  110OSM    C1F11399   0.927   5.872  10.560  0.6896  0.0794 -0.8154
  110OSM     OF11400   0.967   5.758  10.570 -0.8398  0.1284  0.0113
  110OSM    C2F11401   1.020   5.984  10.522 -0.9920  0.4037  1.2342
  110OSM    H2F11402   1.113   5.982  10.583  0.0680 -0.8915 -0.3346
  110OSM    H2G11403   0.970   6.083  10.528 -2.3030 -0.2154  0.9659
  110OSM    C3F11404   1.069   5.971  10.372  0.1774 -0.4809 -0.1392
  110OSM    H3F11405   1.119   5.874  10.349 -0.3859 -0.6577 -0.6550
  110OSM    H3G11406   1.156   6.038  10.357 -1.8346  2.8104  1.6817
  110OSM    C4F11407   0.962   5.993  10.267 -0.0412  0.0319 -0.3763
  110OSM    H4F11408   0.920   6.091  10.298  0.4848  0.2669 -0.3903
  110OSM    H4G11409   0.883   5.915  10.271  0.5210 -0.5502 -0.3987
  110OSM    C5F11410   1.022   6.014  10.123 -0.0942  0.1128  0.5806
  110OSM    H5F11411   1.048   5.910  10.093  1.4857  1.3282 -2.7113
  110OSM    H5G11412   1.123   6.059  10.120 -0.3772  0.7258 -0.1409
  110OSM    C6F11413   0.929   6.072  10.023 -0.8391  0.5194 -0.5043
  110OSM    H6F11414   0.944   6.182  10.018 -1.0673  0.5230 -1.3056
  110OSM    H6G11415   0.824   6.055  10.056 -0.5739  2.4861  1.5964
  110OSM    C7F11416   0.940   6.006   9.880 -0.0068  0.2989 -0.2523
  110OSM    H7F11417   0.875   6.057   9.806 -0.9044 -0.0498  0.2906
  110OSM    H7G11418   0.902   5.903   9.893  1.0990 -0.1195 -0.2450
  110OSM    C8F11419   1.081   6.005   9.821  0.4889  0.0941  0.5271
  110OSM    H8F11420   1.100   5.917   9.756  2.8515  1.3027 -0.5218
  110OSM    H8G11421   1.151   6.000   9.907 -0.2422  1.7762  1.2749
  110OSM    C9F11422   1.101   6.138   9.744  0.1161  0.3076 -0.0288
  110OSM    H9F11423   1.105   6.227   9.808 -2.0544  0.0831  0.4927
  110OSM   C10F11424   1.095   6.161   9.609 -0.4978  0.7512  0.5417
  110OSM   H10F11425   1.103   6.261   9.567 -1.0299  0.6259  0.1366
  110OSM   C11F11426   1.069   6.060   9.499  0.2088  0.4662 -0.0964
  110OSM   H11F11427   0.979   6.087   9.439  1.1559  1.6263 -1.0574
  110OSM   H11G11428   1.045   5.959   9.539  1.8101 -1.2090 -3.0593
  110OSM   C12F11429   1.178   6.025   9.399 -0.6086 -0.7241 -0.4779
  110OSM   H12F11430   1.266   5.986   9.455 -1.2825  0.8472  1.7898
  110OSM   H12G11431   1.205   6.119   9.345  0.7957 -0.8029  0.0487
  110OSM   C13F11432   1.142   5.924   9.290 -0.1083 -0.1618 -0.4332
  110OSM   H13F11433   1.036   5.946   9.267 -0.4215 -2.4634 -1.4797
  110OSM   H13G11434   1.147   5.819   9.324 -0.6800  0.3936  1.4685
  110OSM   C14F11435   1.231   5.932   9.163  0.2337  0.6950 -0.2842
  110OSM   H14F11436   1.232   6.039   9.132 -1.2592  0.4955 -1.1327
  110OSM   H14G11437   1.178   5.877   9.083  0.6748  0.4770 -0.4285
  110OSM   C15F11438   1.366   5.867   9.186  0.2351 -0.1563 -0.1358
  110OSM   H15F11439   1.359   5.770   9.240  0.7137 -0.5877 -0.8338
  110OSM   H15G11440   1.422   5.941   9.248 -2.3824  0.4339  1.7154
  110OSM   C16F11441   1.455   5.833   9.068 -0.1592 -0.0578 -0.2992
  110OSM   H16F11442   1.418   5.736   9.028 -0.2102 -0.5228  0.8320
  110OSM   H16G11443   1.558   5.808   9.101 -1.0426 -2.8228  0.6999
  110OSM   C17F11444   1.451   5.944   8.959 -0.2373  0.0310  0.2004
  110OSM   H17F11445   1.499   6.031   9.009 -1.3619  0.7312  0.0813
  110OSM   H17G11446   1.347   5.969   8.932 -0.6383 -0.1331  1.5651
  110OSM   C18F11447   1.536   5.896   8.841  0.5266 -0.8048 -0.1751
  110OSM   H18F11448   1.524   5.969   8.758  0.9236  0.0793  0.5296
  110OSM   H18G11449   1.508   5.794   8.806 -0.3547  0.3578 -3.1004
  110OSM   H18H11450   1.640   5.894   8.882  0.6600  3.7148  0.1575
  111OSM      N11451   6.418   2.504  11.023  0.6925  1.0393 -0.2522
  111OSM    C1511452   6.342   2.596  11.111  0.4169  0.4744  0.1856
  111OSM   H15A11453   6.408   2.654  11.175  0.8623  0.3428 -0.1447
  111OSM   H15B11454   6.274   2.534  11.167 -1.0213 -0.8271 -2.7687
  111OSM   H15C11455   6.270   2.657  11.058 -0.3691 -0.0002  0.6906
  111OSM    C1411456   6.539   2.460  11.099  0.2436 -0.1166  0.1903
  111OSM   H14A11457   6.601   2.547  11.113  2.1975 -1.6375  1.5424
  111OSM   H14B11458   6.600   2.394  11.039  0.3338 -0.1415  0.3079
  111OSM   H14C11459   6.505   2.416  11.192 -0.0979 -1.0332 -0.3590
  111OSM    C1311460   6.331   2.383  11.001  0.2071  0.1566  0.5995
  111OSM   H13A11461   6.257   2.398  10.924  0.9549  2.5810  0.2763
  111OSM   H13B11462   6.282   2.357  11.093  2.2391  1.1532  2.0393
  111OSM   H13C11463   6.386   2.294  10.974 -0.6426 -0.8440  2.0332
  111OSM    C1211464   6.442   2.586  10.898  0.0505  0.6324 -0.8088
  111OSM   H12A11465   6.506   2.672  10.912  1.6006 -0.6748  0.7138
  111OSM   H12B11466   6.344   2.611  10.861  0.3195 -0.2123 -2.1956
  111OSM    C1111467   6.509   2.512  10.776 -0.1450  0.4281 -0.4447
  111OSM   H11A11468   6.514   2.554  10.673  2.0348  0.8696 -0.2186
  111OSM   H11B11469   6.460   2.414  10.754  0.2188  0.3028 -0.7118
  111OSM      P11470   6.759   2.571  10.821 -0.1086 -0.2740 -0.0233
  111OSM    O1311471   6.737   2.666  10.931  0.1289 -0.1986  0.5613
  111OSM    O1411472   6.895   2.505  10.821 -0.0339  0.3125  0.2929
  111OSM    O1111473   6.747   2.651  10.674  0.1130 -0.0913 -0.9682
  111OSM    O1211474   6.643   2.466  10.812 -0.6493 -0.0839 -0.2270
  111OSM    C1S11475   6.807   2.592  10.557 -0.1247 -0.7338  0.2222
  111OSM    H1S11476   6.759   2.494  10.534  1.9125 -1.4628 -1.2087
  111OSM    H1T11477   6.916   2.577  10.571  0.2732  1.1142 -0.6465
  111OSM     NF11478   6.840   2.609  10.315 -0.0959 -0.0080  0.0804
  111OSM    HNF11479   6.935   2.624  10.290 -0.3911 -0.1291 -1.1840
  111OSM    C2S11480   6.784   2.681  10.432  0.2850  0.0213 -0.0035
  111OSM    H2S11481   6.676   2.698  10.414  0.2504 -0.7476 -0.5840
  111OSM    C3S11482   6.843   2.825  10.455 -0.0425 -0.0460 -0.4497
  111OSM    H3S11483   6.945   2.821  10.499  0.2477  0.2283 -1.0814
  111OSM     O311484   6.765   2.898  10.555 -0.3087 -0.5122  0.1126
  111OSM    HO311485   6.695   2.838  10.580  0.2928 -0.1379  3.0675
  111OSM    C4S11486   6.842   2.891  10.333  0.6483 -0.1419  0.7237
  111OSM    H4S11487   6.742   2.915  10.294  1.1628  2.3059  0.7036
  111OSM    C5S11488   6.942   2.916  10.248 -0.0285  0.7193 -0.5200
  111OSM    H5S11489   7.040   2.873  10.275 -1.9629 -2.1850  2.7066
  111OSM    C6S11490   6.930   2.977  10.115  0.2264  0.0537 -0.5743
  111OSM    H6S11491   6.980   3.076  10.115  0.5267 -0.0973 -0.5500
  111OSM    H6T11492   6.824   2.992  10.084 -0.3324 -0.5455  0.9587
  111OSM    C7S11493   7.005   2.906  10.004  1.3851  0.0091  0.0827
  111OSM    H7S11494   6.953   2.810   9.983 -0.7086  0.6857  1.7975
  111OSM    H7T11495   7.111   2.884  10.029  1.0263 -0.9267  0.8231
  111OSM    C8S11496   6.995   2.974   9.871  0.1364 -0.2221 -0.0276
  111OSM    H8S11497   7.036   3.078   9.866  0.1049 -0.2071  0.0263
  111OSM    H8T11498   6.886   2.992   9.858  0.0349  0.0897  1.0959
  111OSM    C9S11499   7.052   2.905   9.743  0.2739 -0.2447  0.9745
  111OSM    H9S11500   6.997   2.810   9.729  0.7611 -0.4826  0.6256
  111OSM    H9T11501   7.157   2.890   9.776  0.4369  1.0478  1.0822
  111OSM   C10S11502   7.042   2.992   9.618 -0.3915  0.1428 -0.7182
  111OSM   H10S11503   7.111   3.080   9.619  1.6400 -1.3734  1.3093
  111OSM   H10T11504   6.936   3.025   9.608  0.1157  1.9113 -0.6841
  111OSM   C11S11505   7.094   2.921   9.493 -0.1345 -0.6420 -0.4750
  111OSM   H11S11506   7.197   2.881   9.505  0.7529  1.7343  0.4878
  111OSM   H11T11507   7.095   3.004   9.419 -2.1826  1.1946  1.3961
  111OSM   C12S11508   7.001   2.809   9.434  0.1918 -0.0001 -0.3373
  111OSM   H12S11509   6.896   2.839   9.416  0.2021  0.1947 -0.0906
  111OSM   H12T11510   6.997   2.735   9.517  1.1407  1.6383  1.2597
  111OSM   C13S11511   7.063   2.741   9.311  0.0421 -0.0624  0.5784
  111OSM   H13S11512   7.027   2.636   9.308  1.1695 -0.4766  1.0943
  111OSM   H13T11513   7.174   2.744   9.313  0.0627  2.7594 -0.7034
  111OSM   C14S11514   7.023   2.809   9.177 -0.2062 -0.0133 -0.2064
  111OSM   H14S11515   7.092   2.779   9.095 -0.0720 -1.2672  0.3295
  111OSM   H14T11516   7.033   2.919   9.184 -0.4647 -0.0708  1.6323
  111OSM   C15S11517   6.880   2.772   9.127 -1.0321  0.7364 -0.5103
  111OSM   H15S11518   6.820   2.814   9.210  0.5831  1.0657  0.5453
  111OSM   H15T11519   6.855   2.666   9.144 -1.7689  0.9945  0.0881
  111OSM   C16S11520   6.838   2.829   8.996 -0.1759 -0.2848  0.2845
  111OSM   H16S11521   6.853   2.939   8.995  0.7808 -0.4076 -0.8237
  111OSM   H16T11522   6.730   2.817   8.972  0.3361 -1.2472 -1.7396
  111OSM   C17S11523   6.914   2.758   8.879 -0.5326  0.5501 -0.3923
  111OSM   H17S11524   7.024   2.777   8.883  0.3060 -3.5138 -0.0630
  111OSM   H17T11525   6.878   2.823   8.796  1.5328  1.6291 -0.5226
  111OSM   C18S11526   6.879   2.610   8.857 -0.4344 -1.1536 -0.2546
  111OSM   H18S11527   6.769   2.597   8.841 -1.1699  2.9612  0.3007
  111OSM   H18T11528   6.911   2.558   8.950  1.9874 -0.5791 -0.7189
  111OSM   H18U11529   6.943   2.581   8.771  2.7194 -0.1682  1.5993
  111OSM    C1F11530   6.774   2.512  10.255  0.1219  0.3630 -0.0903
  111OSM     OF11531   6.652   2.512  10.266  0.0524  0.2828 -0.1771
  111OSM    C2F11532   6.845   2.413  10.177 -0.4505  0.1173  0.5683
  111OSM    H2F11533   6.873   2.336  10.252  0.2496  1.4860  1.7446
  111OSM    H2G11534   6.948   2.444  10.150  0.6220  0.7610  4.7244
  111OSM    C3F11535   6.753   2.357  10.064 -0.3802  0.7285  0.2108
  111OSM    H3F11536   6.728   2.440   9.994  0.3490  1.1869  0.4841
  111OSM    H3G11537   6.654   2.327  10.104  0.5009 -1.4761  0.8842
  111OSM    C4F11538   6.806   2.235   9.982  0.4970  0.9121 -0.1961
  111OSM    H4F11539   6.722   2.204   9.917  1.0661 -2.4543  0.4867
  111OSM    H4G11540   6.816   2.150  10.054 -1.9147  0.9663  0.2898
  111OSM    C5F11541   6.945   2.240   9.907  0.4869  0.3128 -0.0210
  111OSM    H5F11542   6.966   2.144   9.855  1.1152  0.4259  0.0228
  111OSM    H5G11543   7.027   2.260   9.979  0.2644 -0.4817  0.4591
  111OSM    C6F11544   6.944   2.353   9.803  0.2521 -0.3964  0.7613
  111OSM    H6F11545   7.040   2.336   9.749 -0.9029 -1.5110 -1.0596
  111OSM    H6G11546   6.929   2.451   9.853  0.5116 -0.7535  1.5458
  111OSM    C7F11547   6.830   2.333   9.696  0.0231 -0.7101  1.0437
  111OSM    H7F11548   6.827   2.434   9.649 -1.0078 -0.7524  1.0029
  111OSM    H7G11549   6.734   2.325   9.750 -1.3244  0.3640 -1.0512
  111OSM    C8F11550   6.847   2.215   9.599  0.4175  0.0265  0.2064
  111OSM    H8F11551   6.752   2.194   9.546  1.5134 -0.8874 -1.5241
  111OSM    H8G11552   6.852   2.125   9.664 -2.7350  1.0477  2.0364
  111OSM    C9F11553   6.960   2.223   9.495  0.0683  0.2833  0.2067
  111OSM    H9F11554   7.064   2.204   9.527 -0.1381 -0.8236  0.2608
  111OSM   C10F11555   6.942   2.226   9.360 -0.3537  0.1400 -0.1616
  111OSM   H10F11556   7.029   2.217   9.292 -0.4899 -0.1041 -0.3063
  111OSM   C11F11557   6.814   2.245   9.289 -0.2375  0.2918  1.1915
  111OSM   H11F11558   6.801   2.353   9.267  1.0769  0.6401  1.9896
  111OSM   H11G11559   6.728   2.212   9.352  1.2670  2.0073  4.3685
  111OSM   C12F11560   6.814   2.157   9.157 -0.3470 -0.2795  0.5326
  111OSM   H12F11561   6.712   2.179   9.120 -0.3888 -0.1538  0.7245
  111OSM   H12G11562   6.824   2.051   9.186  0.0040  0.3988  3.1275
  111OSM   C13F11563   6.900   2.205   9.038  0.5455  0.2961 -0.0636
  111OSM   H13F11564   6.998   2.155   9.050  0.3173 -0.0755  0.2652
  111OSM   H13G11565   6.906   2.313   9.060  1.8123  0.2478 -0.1189
  111OSM   C14F11566   6.837   2.183   8.896 -0.6025 -0.2130 -0.2727
  111OSM   H14F11567   6.746   2.247   8.891 -0.7014 -0.2641  0.6618
  111OSM   H14G11568   6.807   2.077   8.886  1.1296 -0.8108  0.5737
  111OSM   C15F11569   6.938   2.204   8.789 -0.0886 -1.3876  0.4964
  111OSM   H15F11570   7.035   2.150   8.800  0.2738 -0.7950  0.2516
  111OSM   H15G11571   6.954   2.314   8.783 -2.4622 -1.0263 -0.0213
  111OSM   C16F11572   6.872   2.166   8.652  0.4919 -0.6866  0.1739
  111OSM   H16F11573   6.770   2.211   8.655 -0.2082 -2.2748  1.2168
  111OSM   H16G11574   6.870   2.055   8.650 -1.4271 -0.7074  0.7144
  111OSM   C17F11575   6.960   2.213   8.533 -0.7509 -0.1920 -0.5402
  111OSM   H17F11576   6.955   2.324   8.532  1.1567 -0.0665  0.0247
  111OSM   H17G11577   6.903   2.186   8.441 -0.4350 -0.4349 -0.6681
  111OSM   C18F11578   7.098   2.150   8.526  0.1097 -0.0366 -0.4520
  111OSM   H18F11579   7.151   2.185   8.435  1.0762 -0.2891  0.0017
  111OSM   H18G11580   7.096   2.039   8.532  0.8140 -0.0096  0.4315
  111OSM   H18H11581   7.158   2.194   8.608  0.8459  0.1864 -1.1024
  112OSM      N11582   1.949   0.787  11.335 -0.3333 -0.5852 -0.3869
  112OSM    C1511583   1.949   0.900  11.437  0.4076  0.1043 -0.4325
  112OSM   H15A11584   2.046   0.914  11.481  0.2193 -0.1620  0.0678
  112OSM   H15B11585   1.877   0.881  11.514 -0.1560  1.7123 -0.5152
  112OSM   H15C11586   1.928   0.996  11.392  1.4815  1.9830  2.7854
  112OSM    C1411587   1.952   0.654  11.412 -0.3599  0.1185 -0.4922
  112OSM   H14A11588   1.872   0.642  11.483  0.4965  2.3604  0.9612
  112OSM   H14B11589   2.048   0.646  11.461 -0.4439 -2.7735 -0.5889
  112OSM   H14C11590   1.964   0.572  11.342 -1.2733  1.5808 -2.4394
  112OSM    C1311591   1.812   0.792  11.264 -0.3637  0.0002  0.5153
  112OSM   H13A11592   1.819   0.881  11.203  1.7147  1.0846  2.1791
  112OSM   H13B11593   1.731   0.815  11.331 -1.1224 -0.6187 -0.1819
  112OSM   H13C11594   1.792   0.704  11.205  0.8578  0.1560 -0.1668
  112OSM    C1211595   2.068   0.795  11.240  0.4926 -0.3799 -0.5937
  112OSM   H12A11596   2.158   0.798  11.301  0.4636  0.9104 -0.5754
  112OSM   H12B11597   2.062   0.888  11.185  2.2149 -0.1518 -0.4662
  112OSM    C1111598   2.082   0.675  11.149  0.0331  0.0865  0.5659
  112OSM   H11A11599   2.142   0.692  11.058  1.0078  0.8863  1.3338
  112OSM   H11B11600   1.980   0.646  11.115  0.5038  0.8192 -1.5606
  112OSM      P11601   2.294   0.528  11.230  0.2548  0.1003 -0.5720
  112OSM    O1311602   2.374   0.654  11.209 -0.0020  0.4155  0.1462
  112OSM    O1411603   2.319   0.458  11.361  0.1880 -0.2479  0.4668
  112OSM    O1111604   2.305   0.428  11.108  0.0166  0.5563 -0.0260
  112OSM    O1211605   2.137   0.565  11.225  0.1558 -0.2678  0.0609
  112OSM    C1S11606   2.254   0.478  10.981 -0.1303  0.0940  0.3432
  112OSM    H1S11607   2.309   0.568  10.946 -0.9800  0.7065  0.5558
  112OSM    H1T11608   2.145   0.499  10.983  0.0730  1.1837  1.0825
  112OSM     NF11609   2.258   0.421  10.725  0.0398 -0.1153  0.0248
  112OSM    HNF11610   2.167   0.406  10.687  0.5434 -1.1556 -0.8223
  112OSM    C2S11611   2.274   0.372  10.864 -0.0687  0.0453 -0.0587
  112OSM    H2S11612   2.379   0.337  10.876 -1.1533 -3.5458  0.1720
  112OSM    C3S11613   2.193   0.240  10.888  0.4386 -0.4739  0.1544
  112OSM    H3S11614   2.086   0.263  10.869  0.6470 -0.4772 -1.1009
  112OSM     O311615   2.204   0.196  11.019 -0.2172 -1.2384  0.2965
  112OSM    HO311616   2.248   0.268  11.066 -1.8978 -0.7920  1.2940
  112OSM    C4S11617   2.243   0.135  10.795  0.1591  0.3796  0.5449
  112OSM    H4S11618   2.350   0.110  10.784 -0.6304 -3.3744 -0.1891
  112OSM    C5S11619   2.159   0.086  10.706  0.6082 -0.2135 -0.0504
  112OSM    H5S11620   2.052   0.112  10.719  1.1309  0.8366  2.8506
  112OSM    C6S11621   2.201  -0.021  10.601  0.2826 -0.7720  0.2764
  112OSM    H6S11622   2.130  -0.104  10.622 -0.0405 -1.1050 -1.9744
  112OSM    H6T11623   2.301  -0.067  10.613  0.2250 -0.6579  1.3659
  112OSM    C7S11624   2.172   0.013  10.452 -0.0809  0.4583  0.2383
  112OSM    H7S11625   2.224   0.104  10.414 -0.2261  0.2077 -0.5848
  112OSM    H7T11626   2.063   0.028  10.440 -0.3197 -1.6341 -0.6526
  112OSM    C8S11627   2.215  -0.103  10.358  0.4482 -0.7741  0.3444
  112OSM    H8S11628   2.176  -0.204  10.384  1.8195 -1.9846 -1.9252
  112OSM    H8T11629   2.325  -0.120  10.367  0.6803  0.3492 -0.1716
  112OSM    C9S11630   2.193  -0.082  10.211 -0.2248 -0.0208  0.0484
  112OSM    H9S11631   2.249  -0.161  10.157  0.7514  0.4864  0.3112
  112OSM    H9T11632   2.237   0.014  10.177  2.3817 -0.7136  1.2096
  112OSM   C10S11633   2.044  -0.075  10.162 -0.2555  1.1045  0.2597
  112OSM   H10S11634   2.011   0.018  10.211  1.1782  1.2199  1.0739
  112OSM   H10T11635   1.995  -0.165  10.203 -0.6581  0.1528 -2.1035
  112OSM   C11S11636   2.031  -0.064  10.015 -0.5692  0.7292  0.1984
  112OSM   H11S11637   2.053  -0.162   9.967 -2.1715 -0.5256  1.9291
  112OSM   H11T11638   2.098   0.013   9.970  0.8806 -0.7254 -0.2311
  112OSM   C12S11639   1.894  -0.032   9.965  0.1780 -0.2807  0.4662
  112OSM   H12S11640   1.855   0.064  10.004  0.0696  0.1460 -0.6438
  112OSM   H12T11641   1.818  -0.108   9.992 -3.5041  3.1587  0.7371
  112OSM   C13S11642   1.883  -0.020   9.811  0.8237 -0.4357 -0.9282
  112OSM   H13S11643   1.897  -0.121   9.768  0.9769 -2.1822  2.7882
  112OSM   H13T11644   1.956   0.051   9.766  2.5215 -0.7558  1.1313
  112OSM   C14S11645   1.741   0.013   9.767  0.6907 -0.0257  0.1028
  112OSM   H14S11646   1.713   0.105   9.823 -1.3035 -0.7576  0.3957
  112OSM   H14T11647   1.671  -0.069   9.794 -0.3483  0.4269 -1.1063
  112OSM   C15S11648   1.751   0.033   9.611  0.8411  0.1910 -0.6792
  112OSM   H15S11649   1.795  -0.058   9.565  0.7709 -0.6541  0.8626
  112OSM   H15T11650   1.804   0.128   9.588 -1.1950  1.1192 -1.8123
  112OSM   C16S11651   1.614   0.031   9.536 -0.9923  0.1342 -0.1541
  112OSM   H16S11652   1.531   0.068   9.600 -1.3796  0.9384 -1.0882
  112OSM   H16T11653   1.589  -0.074   9.510 -0.1138  0.2023 -1.3862
  112OSM   C17S11654   1.623   0.107   9.404  0.2313  0.2002  0.7793
  112OSM   H17S11655   1.538   0.082   9.337 -1.3160  0.2733  2.6288
  112OSM   H17T11656   1.722   0.079   9.362  0.1039  3.3938 -2.0740
  112OSM   C18S11657   1.630   0.253   9.425 -0.4590  0.3001 -1.3871
  112OSM   H18S11658   1.542   0.290   9.481 -1.9987 -1.7201 -2.3458
  112OSM   H18T11659   1.629   0.308   9.328  0.2602  1.0719 -0.9708
  112OSM   H18U11660   1.725   0.286   9.471 -1.2781 -0.4532  0.9524
  112OSM    C1F11661   2.334   0.507  10.667 -0.2503  0.2663  0.5693
  112OSM     OF11662   2.455   0.513  10.691  0.3411 -0.1130  0.0359
  112OSM    C2F11663   2.257   0.596  10.571  0.0050  0.6708 -0.1593
  112OSM    H2F11664   2.222   0.677  10.640  0.0531 -1.5208  2.6171
  112OSM    H2G11665   2.170   0.540  10.533 -0.4346  1.6630 -0.6611
  112OSM    C3F11666   2.345   0.653  10.457  0.0870 -0.2428  0.2468
  112OSM    H3F11667   2.419   0.577  10.423 -0.9817 -1.6842  1.0028
  112OSM    H3G11668   2.399   0.738  10.505 -1.6709 -0.0889  2.1063
  112OSM    C4F11669   2.263   0.699  10.336 -0.5786  0.1755 -0.4518
  112OSM    H4F11670   2.240   0.607  10.278  1.1304  0.3801 -1.5408
  112OSM    H4G11671   2.331   0.762  10.274 -1.1279  1.4383  0.2064
  112OSM    C5F11672   2.145   0.781  10.358  0.3267  0.0055 -0.4254
  112OSM    H5F11673   2.171   0.872  10.416 -0.3468  1.1748 -1.9111
  112OSM    H5G11674   2.072   0.715  10.410  0.3569 -0.6377 -1.1783
  112OSM    C6F11675   2.097   0.838  10.223 -0.8175  0.0296 -0.0979
  112OSM    H6F11676   2.169   0.919  10.199 -0.0598 -0.4152  0.6462
  112OSM    H6G11677   1.995   0.883  10.234 -1.1126 -0.1789 -1.7631
  112OSM    C7F11678   2.085   0.747  10.105 -0.2413  0.5287 -0.4003
  112OSM    H7F11679   2.060   0.647  10.146 -0.8800  0.3716 -1.1480
  112OSM    H7G11680   2.189   0.745  10.067 -0.5326  1.4466 -1.3122
  112OSM    C8F11681   1.984   0.767   9.989  0.8007 -0.2695  0.0621
  112OSM    H8F11682   1.892   0.715  10.023 -0.7973  1.8593 -0.7715
  112OSM    H8G11683   2.021   0.714   9.899  1.1747  0.8607 -0.4657
  112OSM    C9F11684   1.950   0.910   9.946  0.1075 -0.6911  0.8197
  112OSM    H9F11685   2.037   0.977   9.935  0.2745 -0.9267  0.6964
  112OSM   C10F11686   1.835   0.959   9.910 -0.2840 -0.1230  0.6865
  112OSM   H10F11687   1.826   1.069   9.905  0.9237 -0.0321  0.1338
  112OSM   C11F11688   1.706   0.888   9.900 -0.0387  0.3401 -0.3932
  112OSM   H11F11689   1.731   0.779   9.899  1.5971  0.6949 -0.4441
  112OSM   H11G11690   1.648   0.911   9.808  0.4137 -0.7546 -0.9705
  112OSM   C12F11691   1.625   0.934  10.025  0.8518 -0.2632 -0.5063
  112OSM   H12F11692   1.519   0.903  10.015 -0.0280  1.7971  1.4586
  112OSM   H12G11693   1.621   1.045  10.033  0.9116 -0.1656 -1.7359
  112OSM   C13F11694   1.672   0.886  10.158 -0.1445  0.2834  0.5163
  112OSM   H13F11695   1.768   0.940  10.170 -1.8451  3.5246  0.8689
  112OSM   H13G11696   1.691   0.777  10.146  0.9689  0.5240  0.0115
  112OSM   C14F11697   1.586   0.919  10.280  0.3621 -0.8944  1.2270
  112OSM   H14F11698   1.479   0.890  10.272  0.5330 -1.6916  1.7485
  112OSM   H14G11699   1.596   1.030  10.282 -0.0420 -0.8520  1.0808
  112OSM   C15F11700   1.646   0.861  10.408  0.2607 -0.3535 -0.7001
  112OSM   H15F11701   1.632   0.751  10.404 -1.6595 -0.2703  1.6659
  112OSM   H15G11702   1.575   0.899  10.484  0.9181  0.0581 -0.2883
  112OSM   C16F11703   1.793   0.888  10.445 -0.6192 -0.4841 -0.6198
  112OSM   H16F11704   1.826   0.990  10.418  1.1477  0.0424  3.0456
  112OSM   H16G11705   1.852   0.814  10.387 -0.4601 -2.9993  2.4680
  112OSM   C17F11706   1.827   0.860  10.597 -0.5516 -0.0388 -0.2493
  112OSM   H17F11707   1.742   0.897  10.658 -0.0244  0.2268  0.3382
  112OSM   H17G11708   1.912   0.919  10.636 -2.2271  2.2271  0.1853
  112OSM   C18F11709   1.853   0.715  10.637 -0.0960 -0.0002 -0.8500
  112OSM   H18F11710   1.950   0.675  10.601 -0.5105 -1.4472 -0.4331
  112OSM   H18G11711   1.772   0.653  10.594 -1.0392 -0.4670  1.4661
  112OSM   H18H11712   1.843   0.713  10.748 -1.2978  2.8253 -0.8351
  113OSM      N11713   5.755   3.036  11.104 -0.3085 -0.1728  0.1272
  113OSM    C1511714   5.883   3.074  11.166 -0.6844 -0.0592 -0.0197
  113OSM   H15A11715   5.953   2.992  11.158 -0.6253 -0.5041  3.4049
  113OSM   H15B11716   5.876   3.090  11.273 -0.2788  1.1006 -0.1531
  113OSM   H15C11717   5.922   3.165  11.123 -0.6732 -0.2859 -0.4965
  113OSM    C1411718   5.702   3.169  11.064 -0.3139  0.1412  0.0670
  113OSM   H14A11719   5.668   3.231  11.146  1.6550 -1.7672  2.4747
  113OSM   H14B11720   5.611   3.151  11.009 -1.1463  1.4693  0.9374
  113OSM   H14C11721   5.763   3.229  10.998  1.3164  0.4917  1.8072
  113OSM    C1311722   5.782   2.948  10.990 -0.2142 -0.2601  0.0461
  113OSM   H13A11723   5.700   2.946  10.920  0.9761  0.5649 -1.4370
  113OSM   H13B11724   5.801   2.850  11.031  0.1341  0.1125  0.8029
  113OSM   H13C11725   5.873   2.974  10.938  0.5329  0.9928  1.8943
  113OSM    C1211726   5.664   2.970  11.197 -0.1413  0.3802  0.5910
  113OSM   H12A11727   5.660   3.020  11.293  0.5998  2.6492 -0.4837
  113OSM   H12B11728   5.698   2.873  11.230 -2.1876 -0.4445  0.4153
  113OSM    C1111729   5.522   2.955  11.140 -0.4456 -0.8790  0.2807
  113OSM   H11A11730   5.487   2.870  11.203 -0.4124 -0.2747  1.1286
  113OSM   H11B11731   5.518   2.925  11.033 -3.6884  1.6866 -0.4799
  113OSM      P11732   5.284   3.054  11.142 -0.1258  0.0253  0.4465
  113OSM    O1311733   5.236   2.920  11.183  0.1092 -0.1266  0.0590
  113OSM    O1411734   5.210   3.173  11.193  0.2889 -0.4302  0.3165
  113OSM    O1111735   5.268   3.048  10.981  0.3072  0.0089 -0.6597
  113OSM    O1211736   5.436   3.068  11.168  0.3002 -0.3598 -0.8856
  113OSM    C1S11737   5.347   3.139  10.906 -0.4494 -0.4596 -0.5859
  113OSM    H1S11738   5.449   3.098  10.896 -0.6557 -1.3144  0.6218
  113OSM    H1T11739   5.343   3.241  10.949  0.0049  0.0994 -1.8200
  113OSM     NF11740   5.392   3.272  10.706 -0.1351  0.5042 -0.0860
  113OSM    HNF11741   5.346   3.359  10.687  0.5995  0.5371 -2.0349
  113OSM    C2S11742   5.317   3.157  10.753  0.1817 -0.1558  0.0198
  113OSM    H2S11743   5.361   3.071  10.698  2.5176  0.5584  0.6557
  113OSM    C3S11744   5.164   3.157  10.717  0.1276 -0.2195 -1.3050
  113OSM    H3S11745   5.106   3.239  10.763  0.7482  0.1778 -1.2114
  113OSM     O311746   5.088   3.053  10.772 -0.5901  0.2872  0.1516
  113OSM    HO311747   5.134   3.029  10.853 -1.3842  1.5679  1.0188
  113OSM    C4S11748   5.144   3.163  10.573  0.1701  0.0819  0.1094
  113OSM    H4S11749   5.183   3.075  10.520  1.2755 -0.8728  2.3510
  113OSM    C5S11750   5.080   3.258  10.500 -0.7992  0.0029  0.1681
  113OSM    H5S11751   5.029   3.336  10.558 -0.1344  1.7515 -1.4905
  113OSM    C6S11752   5.056   3.246  10.354 -0.4587  0.0746 -0.3876
  113OSM    H6S11753   4.970   3.312  10.329 -0.5091  0.0485 -0.2854
  113OSM    H6T11754   5.025   3.142  10.328  0.1826 -0.9875  2.7352
  113OSM    C7S11755   5.171   3.286  10.272  0.3901 -0.3086  0.1679
  113OSM    H7S11756   5.262   3.229  10.301  2.3868  2.0055 -1.1204
  113OSM    H7T11757   5.199   3.393  10.285 -0.8683 -0.0815  1.1740
  113OSM    C8S11758   5.131   3.269  10.125  0.4856 -0.6944  0.5433
  113OSM    H8S11759   5.043   3.335  10.109 -0.1496 -1.2353  1.6269
  113OSM    H8T11760   5.103   3.161  10.118  1.6667 -0.9306 -1.1216
  113OSM    C9S11761   5.248   3.303  10.030  0.6559  0.0454 -0.6597
  113OSM    H9S11762   5.344   3.262  10.068  0.0568  0.4138  1.3663
  113OSM    H9T11763   5.257   3.414  10.024 -0.0418  0.1497  0.0044
  113OSM   C10S11764   5.235   3.250   9.888 -0.0879 -0.1634 -0.5541
  113OSM   H10S11765   5.171   3.316   9.826 -1.8982 -1.4251 -0.0874
  113OSM   H10T11766   5.190   3.149   9.886 -1.8561  0.5697  0.0909
  113OSM   C11S11767   5.371   3.242   9.815  0.1548 -0.4467 -0.3533
  113OSM   H11S11768   5.438   3.191   9.888  1.7738 -2.3393 -2.9850
  113OSM   H11T11769   5.404   3.346   9.793 -0.4920 -0.0204  0.6140
  113OSM   C12S11770   5.365   3.168   9.683  0.7655 -0.3862 -0.9409
  113OSM   H12S11771   5.311   3.073   9.702 -0.3205 -0.0955 -2.4347
  113OSM   H12T11772   5.473   3.152   9.660  1.2602 -0.4496  1.1663
  113OSM   C13S11773   5.290   3.252   9.577 -0.6707  1.1642  0.1857
  113OSM   H13S11774   5.318   3.358   9.561 -5.1315  2.3787 -0.8305
  113OSM   H13T11775   5.183   3.234   9.600  0.1242 -1.3920  2.4097
  113OSM   C14S11776   5.313   3.193   9.436  0.4237 -0.3415  0.2191
  113OSM   H14S11777   5.334   3.086   9.455  1.8827  0.0071  0.7214
  113OSM   H14T11778   5.406   3.229   9.386 -1.5045  1.6361 -2.2625
  113OSM   C15S11779   5.195   3.206   9.334 -0.5143 -0.8038  0.4030
  113OSM   H15S11780   5.159   3.310   9.324 -1.6948 -0.9440  2.5258
  113OSM   H15T11781   5.105   3.153   9.373 -1.6001  0.4454 -0.3279
  113OSM   C16S11782   5.222   3.162   9.189  1.1327  0.3153 -0.4985
  113OSM   H16S11783   5.253   3.056   9.183  0.0933 -0.0737  0.5885
  113OSM   H16T11784   5.294   3.233   9.143 -1.6223  3.2793 -0.6299
  113OSM   C17S11785   5.086   3.185   9.112  0.0718 -0.0186 -0.1776
  113OSM   H17S11786   5.058   3.293   9.110 -0.5283 -0.1603  0.2036
  113OSM   H17T11787   5.011   3.126   9.169 -0.8383 -0.5465 -1.8767
  113OSM   C18S11788   5.100   3.124   8.968 -0.3056 -0.5886  0.2553
  113OSM   H18S11789   5.131   3.217   8.917  0.7798 -0.2499  1.4819
  113OSM   H18T11790   5.007   3.082   8.923 -1.1609  0.8400  0.6161
  113OSM   H18U11791   5.183   3.051   8.968 -0.1309 -0.4054 -1.3250
  113OSM    C1F11792   5.527   3.278  10.695  0.2666  0.8039 -0.1300
  113OSM     OF11793   5.594   3.180  10.735  0.1472 -0.2120  0.7598
  113OSM    C2F11794   5.586   3.400  10.636 -0.8104  0.1734  0.9988
  113OSM    H2F11795   5.685   3.368  10.596  0.1438 -0.7975  3.8302
  113OSM    H2G11796   5.593   3.474  10.719 -1.6653  0.2514  1.0093
  113OSM    C3F11797   5.493   3.469  10.535 -0.1485  0.0888  0.1479
  113OSM    H3F11798   5.395   3.503  10.574 -1.5877  0.9730 -3.7458
  113OSM    H3G11799   5.464   3.391  10.461 -0.4236 -0.7388  1.1046
  113OSM    C4F11800   5.546   3.589  10.459 -0.6555 -0.0604 -0.1345
  113OSM    H4F11801   5.638   3.566  10.401 -0.9360 -1.4493 -0.0702
  113OSM    H4G11802   5.568   3.666  10.536  0.3070  0.1641 -0.6268
  113OSM    C5F11803   5.438   3.643  10.357 -0.2894  0.6652  0.2695
  113OSM    H5F11804   5.477   3.746  10.342 -1.0198  0.6612 -1.9780
  113OSM    H5G11805   5.339   3.647  10.408  0.0172 -2.3804  1.3496
  113OSM    C6F11806   5.430   3.594  10.211  0.8496 -0.3389  0.2509
  113OSM    H6F11807   5.345   3.646  10.161  1.1969 -0.2547 -0.2647
  113OSM    H6G11808   5.412   3.484  10.210  2.7878 -0.7267  2.1223
  113OSM    C7F11809   5.554   3.632  10.129 -0.1454 -0.6185  0.3421
  113OSM    H7F11810   5.646   3.597  10.180 -1.0579 -3.7884  0.0526
  113OSM    H7G11811   5.537   3.740  10.113 -2.7375 -1.0843 -0.6027
  113OSM    C8F11812   5.553   3.583   9.984  0.0797  0.3369 -1.2510
  113OSM    H8F11813   5.457   3.613   9.936  0.7297 -0.0159 -2.8326
  113OSM    H8G11814   5.552   3.472   9.987 -1.3581  0.3239  2.0133
  113OSM    C9F11815   5.674   3.640   9.914  0.4685  0.2739 -0.0878
  113OSM    H9F11816   5.748   3.698   9.970 -0.1163  0.9467  0.0113
  113OSM   C10F11817   5.691   3.614   9.786  0.0517 -0.9620 -0.5245
  113OSM   H10F11818   5.780   3.664   9.744  0.9411 -1.9579  0.1295
  113OSM   C11F11819   5.617   3.537   9.678 -0.9400  0.4258  0.0242
  113OSM   H11F11820   5.517   3.502   9.712 -0.9745 -1.4556 -1.8041
  113OSM   H11G11821   5.664   3.439   9.658 -0.4453  0.5853  0.3812
  113OSM   C12F11822   5.584   3.613   9.549 -0.2838 -0.4745 -0.2685
  113OSM   H12F11823   5.564   3.719   9.577 -0.0911 -1.1692  2.8216
  113OSM   H12G11824   5.484   3.576   9.519  0.0780 -1.4881 -0.2598
  113OSM   C13F11825   5.683   3.585   9.437 -0.2899  0.1230  0.3848
  113OSM   H13F11826   5.653   3.638   9.344 -1.2226  0.7450  1.0260
  113OSM   H13G11827   5.671   3.478   9.410 -3.3204 -0.1022  2.2093
  113OSM   C14F11828   5.829   3.612   9.459 -0.5919 -0.5710 -0.2707
  113OSM   H14F11829   5.872   3.558   9.546  1.7164 -1.3987 -1.8445
  113OSM   H14G11830   5.839   3.720   9.483 -0.7886 -0.8329  1.0693
  113OSM   C15F11831   5.927   3.587   9.348  0.0458  0.0936 -0.1173
  113OSM   H15F11832   5.886   3.615   9.248  2.2253 -1.0597 -1.4164
  113OSM   H15G11833   5.942   3.477   9.347 -0.4408 -0.0909  3.0245
  113OSM   C16F11834   6.062   3.644   9.371 -0.1103 -0.0622 -0.7152
  113OSM   H16F11835   6.115   3.582   9.446  1.9972  1.4471 -0.8607
  113OSM   H16G11836   6.043   3.742   9.419 -0.3903 -0.3952 -0.1464
  113OSM   C17F11837   6.145   3.639   9.250 -0.1810  0.0977 -0.1825
  113OSM   H17F11838   6.107   3.709   9.172  1.5890  1.1886 -0.1340
  113OSM   H17G11839   6.136   3.535   9.213  0.2048  1.2900 -4.0237
  113OSM   C18F11840   6.301   3.671   9.257  0.4338 -0.6512 -0.3737
  113OSM   H18F11841   6.355   3.585   9.302  0.5192  1.4184  4.0371
  113OSM   H18G11842   6.319   3.767   9.312  1.2474 -1.1551  0.2662
  113OSM   H18H11843   6.328   3.687   9.151 -0.8912 -1.4154 -0.8384
  114OSM      N11844   2.165   5.377  11.236 -0.0406  0.5678 -0.3430
  114OSM    C1511845   2.295   5.390  11.166 -0.3947 -0.2399  0.5387
  114OSM   H15A11846   2.339   5.470  11.224 -1.9188  0.3583  0.9048
  114OSM   H15B11847   2.287   5.430  11.066 -0.7621 -4.6342 -1.4204
  114OSM   H15C11848   2.353   5.299  11.161  0.5608  0.3112  1.0958
  114OSM    C1411849   2.192   5.321  11.374  0.1421  0.4006 -1.1051
  114OSM   H14A11850   2.097   5.323  11.425  1.2797  3.4305  1.1751
  114OSM   H14B11851   2.259   5.382  11.432  1.0281  1.3057 -3.0000
  114OSM   H14C11852   2.233   5.221  11.373 -1.7554 -0.4351 -0.5552
  114OSM    C1311853   2.125   5.517  11.241  0.7341  0.2528  0.0124
  114OSM   H13A11854   2.201   5.580  11.286 -0.8326  1.4105  1.1817
  114OSM   H13B11855   2.032   5.532  11.295 -0.0364  0.3167 -1.2911
  114OSM   H13C11856   2.106   5.562  11.145  1.2209  0.1313 -0.1420
  114OSM    C1211857   2.069   5.280  11.171 -0.2712  0.3185 -0.1552
  114OSM   H12A11858   1.977   5.268  11.227 -0.8927  2.1196 -0.7325
  114OSM   H12B11859   2.118   5.183  11.172  0.7793  0.8290  0.9524
  114OSM    C1111860   2.005   5.305  11.037 -0.1111 -0.3340  0.9033
  114OSM   H11A11861   1.942   5.226  10.992 -2.1868  1.7263 -0.0136
  114OSM   H11B11862   2.085   5.304  10.960  1.6759 -3.8687  2.5878
  114OSM      P11863   1.789   5.439  11.104 -0.5327 -0.1090  0.1538
  114OSM    O1311864   1.778   5.316  11.182  0.0029 -0.3214  0.2274
  114OSM    O1411865   1.767   5.572  11.175  0.1784  0.2176  0.5930
  114OSM    O1111866   1.698   5.422  10.966 -0.5365 -0.3243 -0.6422
  114OSM    O1211867   1.935   5.432  11.037  0.4804  0.0982 -0.0569
  114OSM    C1S11868   1.746   5.493  10.852  0.3395 -0.6321 -0.4393
  114OSM    H1S11869   1.852   5.460  10.839  0.1672 -1.1896 -0.4401
  114OSM    H1T11870   1.746   5.603  10.871 -1.3465 -0.6527 -0.2101
  114OSM     NF11871   1.717   5.552  10.611  0.0828  0.4687  0.1795
  114OSM    HNF11872   1.664   5.627  10.572  0.1044  0.1134 -0.5371
  114OSM    C2S11873   1.652   5.485  10.727  0.0890  0.3073  0.0293
  114OSM    H2S11874   1.649   5.375  10.716  0.9913  0.2697  0.0825
  114OSM    C3S11875   1.509   5.528  10.757  0.5274  0.3825  0.1435
  114OSM    H3S11876   1.522   5.635  10.782  3.6080  0.0771  0.2173
  114OSM     O311877   1.443   5.455  10.863 -0.1682  0.5554  0.7425
  114OSM    HO311878   1.517   5.427  10.916  0.0981 -0.7184 -0.2396
  114OSM    C4S11879   1.417   5.510  10.637 -0.0895  0.4450 -0.8931
  114OSM    H4S11880   1.396   5.408  10.603 -2.1755  0.4553  0.2134
  114OSM    C5S11881   1.348   5.609  10.580  0.9847  0.3986  0.5688
  114OSM    H5S11882   1.356   5.714  10.613 -0.0667 -0.6852  4.9276
  114OSM    C6S11883   1.249   5.584  10.470 -0.4217 -0.1523 -0.5764
  114OSM    H6S11884   1.249   5.670  10.400  0.8453  1.5802  1.4252
  114OSM    H6T11885   1.152   5.591  10.523 -0.2282 -1.9487  0.0844
  114OSM    C7S11886   1.260   5.446  10.388 -0.3880 -0.2516  0.0902
  114OSM    H7S11887   1.182   5.432  10.310 -0.1444  0.7023 -0.3421
  114OSM    H7T11888   1.252   5.371  10.469  1.2802 -0.4265  0.1367
  114OSM    C8S11889   1.395   5.433  10.308  1.3583 -0.5085 -0.0514
  114OSM    H8S11890   1.387   5.330  10.268 -0.2482 -0.8472  1.0210
  114OSM    H8T11891   1.479   5.428  10.381  0.9608  0.6497  0.5100
  114OSM    C9S11892   1.421   5.541  10.203  0.0602 -0.4344  0.3169
  114OSM    H9S11893   1.422   5.642  10.249 -1.6713 -0.3729  0.3103
  114OSM    H9T11894   1.344   5.544  10.123 -0.0889 -2.1708  0.3597
  114OSM   C10S11895   1.561   5.515  10.136  0.5595 -0.1905 -0.1389
  114OSM   H10S11896   1.559   5.410  10.099  2.7090  0.0267 -0.9815
  114OSM   H10T11897   1.641   5.506  10.212  0.0974 -0.1816  0.3578
  114OSM   C11S11898   1.600   5.600  10.017  0.5789 -0.4291  0.4646
  114OSM   H11S11899   1.704   5.569   9.993  0.2416 -1.8385  0.7330
  114OSM   H11T11900   1.606   5.707  10.048 -1.9592 -0.1463  0.1637
  114OSM   C12S11901   1.527   5.599   9.884  0.3158  0.7911 -0.2089
  114OSM   H12S11902   1.422   5.632   9.901 -1.6296 -4.4137 -0.2745
  114OSM   H12T11903   1.522   5.496   9.842 -0.5397 -0.3267  2.3752
  114OSM   C13S11904   1.617   5.680   9.794 -0.2179  0.5751  0.0369
  114OSM   H13S11905   1.725   5.651   9.795 -0.7258 -1.4813  1.4667
  114OSM   H13T11906   1.622   5.783   9.836 -0.7538  0.1799  1.0968
  114OSM   C14S11907   1.585   5.692   9.642 -0.3539  1.2870 -0.4134
  114OSM   H14S11908   1.650   5.764   9.589  1.3008 -0.7747 -1.3654
  114OSM   H14T11909   1.478   5.723   9.641 -1.4952 -2.2186 -0.2902
  114OSM   C15S11910   1.578   5.542   9.579  0.0822 -0.6108  0.3388
  114OSM   H15S11911   1.482   5.493   9.606 -0.3111 -0.6077 -0.9916
  114OSM   H15T11912   1.664   5.477   9.607  0.7969 -0.9395 -2.3609
  114OSM   C16S11913   1.580   5.542   9.427 -0.2482  0.5337  0.0333
  114OSM   H16S11914   1.683   5.566   9.393  0.6924  0.4631  2.6164
  114OSM   H16T11915   1.518   5.627   9.394 -0.6060  1.2720  2.4384
  114OSM   C17S11916   1.519   5.409   9.366 -0.1463  0.3899 -0.2478
  114OSM   H17S11917   1.409   5.400   9.379 -0.4003 -0.0534 -2.3320
  114OSM   H17T11918   1.565   5.331   9.431  0.3803 -0.0233 -1.0948
  114OSM   C18S11919   1.550   5.390   9.220  0.6033 -0.9272  0.0848
  114OSM   H18S11920   1.516   5.289   9.187  0.3206 -0.7041 -0.3090
  114OSM   H18T11921   1.659   5.397   9.203  0.6862  1.6030  1.2293
  114OSM   H18U11922   1.507   5.475   9.164 -1.7775 -1.9382  0.2406
  114OSM    C1F11923   1.834   5.518  10.560  0.5978  0.6233  0.0351
  114OSM     OF11924   1.884   5.414  10.604 -0.1198 -0.0814 -0.0463
  114OSM    C2F11925   1.884   5.619  10.459 -0.4872  0.0755 -0.6594
  114OSM    H2F11926   1.851   5.717  10.500  0.9725 -0.1250  1.0960
  114OSM    H2G11927   1.836   5.600  10.360  0.9155 -1.1768 -1.1269
  114OSM    C3F11928   2.038   5.623  10.449 -0.3633  0.0080  0.2069
  114OSM    H3F11929   2.096   5.531  10.424  0.1044  0.1320  0.8142
  114OSM    H3G11930   2.082   5.669  10.540  1.2633  0.1188 -0.6073
  114OSM    C4F11931   2.073   5.717  10.330 -0.5064 -0.0371  0.8376
  114OSM    H4F11932   2.184   5.725  10.329 -0.6258  2.0254  0.5336
  114OSM    H4G11933   2.021   5.813  10.351 -0.0357 -0.3976  4.0745
  114OSM    C5F11934   2.037   5.657  10.189  0.6537 -0.1926 -0.3218
  114OSM    H5F11935   1.931   5.623  10.182  0.7483 -0.6086  0.1875
  114OSM    H5G11936   2.088   5.561  10.166  1.5338  0.3778 -0.7805
  114OSM    C6F11937   2.066   5.746  10.068  0.1280 -0.1701 -0.7436
  114OSM    H6F11938   2.175   5.771  10.074  0.6102 -2.0787 -0.9077
  114OSM    H6G11939   2.004   5.837  10.060 -0.5785 -0.2875  2.3263
  114OSM    C7F11940   2.044   5.671   9.938 -0.5247 -0.4266 -0.4088
  114OSM    H7F11941   1.951   5.614   9.958 -1.5002  1.2848  0.1767
  114OSM    H7G11942   2.136   5.609   9.930 -1.2636 -1.7237  0.8443
  114OSM    C8F11943   2.027   5.764   9.820 -0.3739  0.1897  0.1131
  114OSM    H8F11944   1.984   5.861   9.854  0.7718  0.3986  1.0189
  114OSM    H8G11945   1.948   5.722   9.754 -0.6755 -2.1393  1.8274
  114OSM    C9F11946   2.151   5.797   9.745  0.2583  0.5844 -0.2587
  114OSM    H9F11947   2.219   5.865   9.798  2.0611 -2.5013  1.7020
  114OSM   C10F11948   2.188   5.735   9.637 -0.6596  0.0838  0.2266
  114OSM   H10F11949   2.284   5.768   9.595 -0.4824  2.2985  2.1346
  114OSM   C11F11950   2.121   5.625   9.554 -0.2669 -0.3755  0.7036
  114OSM   H11F11951   2.035   5.584   9.611 -1.3417  1.1667  0.2440
  114OSM   H11G11952   2.197   5.544   9.542  1.5355  1.4486 -0.8326
  114OSM   C12F11953   2.074   5.685   9.418 -0.0370  0.4168  0.6857
  114OSM   H12F11954   2.033   5.606   9.352  2.5377  0.4927 -1.1653
  114OSM   H12G11955   2.157   5.730   9.360  2.8384 -2.8405  1.9209
  114OSM   C13F11956   1.957   5.782   9.431 -0.0366  0.3232  0.1460
  114OSM   H13F11957   1.993   5.860   9.500  0.5023  1.1916 -1.0830
  114OSM   H13G11958   1.866   5.728   9.466  1.4739 -1.5366  1.4128
  114OSM   C14F11959   1.931   5.866   9.302  0.1472  0.2636 -0.8508
  114OSM   H14F11960   1.884   5.794   9.232 -0.1945 -0.1139 -0.2357
  114OSM   H14G11961   2.028   5.906   9.264  3.4033 -4.7487  1.0201
  114OSM   C15F11962   1.835   5.978   9.336  0.2027 -0.2417 -0.3798
  114OSM   H15F11963   1.888   6.049   9.403  0.6774 -0.4974 -0.4777
  114OSM   H15G11964   1.751   5.931   9.392 -1.6882  1.0267 -2.0446
  114OSM   C16F11965   1.767   6.035   9.215  0.3433 -0.3097  0.0530
  114OSM   H16F11966   1.684   6.105   9.235 -1.5459 -2.2596 -0.6271
  114OSM   H16G11967   1.704   5.958   9.167 -0.1839  0.0702  0.1275
  114OSM   C17F11968   1.861   6.092   9.110  0.3470  0.4400  0.0488
  114OSM   H17F11969   1.937   6.020   9.074  1.0564  0.3744  1.5858
  114OSM   H17G11970   1.918   6.170   9.165  0.8225  0.3210 -0.2683
  114OSM   C18F11971   1.779   6.148   8.994 -0.4811 -0.0103 -0.0387
  114OSM   H18F11972   1.719   6.238   9.018  1.0815  0.9385  0.4157
  114OSM   H18G11973   1.716   6.070   8.946  2.1836 -1.3070 -1.6831
  114OSM   H18H11974   1.850   6.183   8.916 -0.3248 -0.1049  0.0607
  115OSM      N11975   3.565   4.714  11.284  0.8343 -0.2940  0.5145
  115OSM    C1511976   3.501   4.656  11.407 -0.2655 -0.0066  0.2817
  115OSM   H15A11977   3.446   4.729  11.465 -0.5631 -1.4275  1.8827
  115OSM   H15B11978   3.587   4.610  11.453  0.6569  0.5142 -0.8800
  115OSM   H15C11979   3.439   4.572  11.376  0.7340 -0.1360 -1.5052
  115OSM    C1411980   3.668   4.811  11.334 -0.1215  0.0133 -0.3966
  115OSM   H14A11981   3.700   4.872  11.251  0.3544  2.8065  1.6794
  115OSM   H14B11982   3.754   4.766  11.382 -1.2157  0.0542  1.7024
  115OSM   H14C11983   3.626   4.879  11.407  1.7547 -0.7976  1.5330
  115OSM    C1311984   3.616   4.608  11.194 -0.0814 -0.2831 -0.2689
  115OSM   H13A11985   3.542   4.533  11.171  2.2316 -2.4184 -1.2424
  115OSM   H13B11986   3.678   4.536  11.246 -1.9173 -2.0043 -0.3519
  115OSM   H13C11987   3.674   4.642  11.109  1.1759 -0.6407  0.4211
  115OSM    C1211988   3.472   4.800  11.201 -0.0753  0.4201  0.1813
  115OSM   H12A11989   3.394   4.740  11.157 -0.2595  0.4855  0.4186
  115OSM   H12B11990   3.510   4.840  11.108 -0.2812 -1.2050 -0.6367
  115OSM    C1111991   3.414   4.923  11.273  0.2526  0.1460  0.3753
  115OSM   H11A11992   3.366   4.908  11.372  0.3818  1.9887  0.7625
  115OSM   H11B11993   3.330   4.953  11.207  0.4843  3.1352  1.2828
  115OSM      P11994   3.571   5.110  11.154 -0.2849 -0.0631 -0.6103
  115OSM    O1311995   3.553   5.255  11.169  0.2104  0.2612 -0.0433
  115OSM    O1411996   3.709   5.056  11.134 -0.1373 -0.2125  0.4742
  115OSM    O1111997   3.476   5.058  11.041 -0.4163  0.5625  0.1040
  115OSM    O1211998   3.506   5.035  11.276 -0.7244 -0.3465 -0.3157
  115OSM    C1S11999   3.411   5.143  10.950  0.2253 -0.7152 -0.1522
  115OSM    H1S12000   3.433   5.252  10.953  0.7059 -0.8168  2.1140
  115OSM    H1T12001   3.301   5.130  10.953  0.2260 -0.7384 -0.2383
  115OSM     NF12002   3.414   5.184  10.710 -0.4267  0.2830  0.5236
  115OSM    HNF12003   3.327   5.165  10.665  0.6606  1.2417 -2.1958
  115OSM    C2S12004   3.454   5.089  10.810 -0.0697 -0.4480 -0.6436
  115OSM    H2S12005   3.564   5.077  10.814  0.0569 -0.7098 -3.2675
  115OSM    C3S12006   3.398   4.939  10.790  0.1309 -0.8670 -0.3117
  115OSM    H3S12007   3.287   4.945  10.785  0.0800 -0.5165  1.0290
  115OSM     O312008   3.435   4.851  10.900 -0.0683 -0.2490  0.6179
  115OSM    HO312009   3.462   4.917  10.965 -0.3148 -0.9002  1.3968
  115OSM    C4S12010   3.428   4.873  10.659 -0.0970  0.7103  0.6364
  115OSM    H4S12011   3.359   4.904  10.580 -0.1318 -1.5193 -0.2852
  115OSM    C5S12012   3.535   4.789  10.632  0.2113 -0.1799  0.1980
  115OSM    H5S12013   3.605   4.755  10.711 -0.9585 -0.2935  1.2199
  115OSM    C6S12014   3.552   4.730  10.494 -0.4908 -0.9146  1.2169
  115OSM    H6S12015   3.521   4.623  10.496 -0.1523 -1.0649 -0.3681
  115OSM    H6T12016   3.661   4.722  10.474 -0.2757  0.7300  1.5868
  115OSM    C7S12017   3.476   4.797  10.377 -0.5214  0.2644 -0.7090
  115OSM    H7S12018   3.506   4.903  10.360  0.9783  0.2429  1.3409
  115OSM    H7T12019   3.369   4.793  10.404 -0.3861  2.1925  0.2967
  115OSM    C8S12020   3.526   4.731  10.244 -0.4503 -0.2287 -0.1195
  115OSM    H8S12021   3.501   4.623  10.240  1.0601 -0.6835  1.4538
  115OSM    H8T12022   3.634   4.757  10.249 -1.6015  5.8668  1.3692
  115OSM    C9S12023   3.469   4.802  10.124  0.6882  0.9292  0.3737
  115OSM    H9S12024   3.478   4.913  10.121 -1.9039  1.1847 -0.5814
  115OSM    H9T12025   3.360   4.783  10.138  0.6819 -0.6090 -1.3642
  115OSM   C10S12026   3.512   4.734   9.994  0.4104  0.2027 -0.4338
  115OSM   H10S12027   3.484   4.627   9.997 -2.8927  0.9300 -0.8256
  115OSM   H10T12028   3.622   4.743   9.991  0.4731 -0.6389 -1.3591
  115OSM   C11S12029   3.458   4.794   9.860  0.3335  0.6091 -0.2534
  115OSM   H11S12030   3.467   4.904   9.875  1.4222  0.5619 -0.4472
  115OSM   H11T12031   3.350   4.772   9.846  0.5394 -0.2433 -0.5603
  115OSM   C12S12032   3.543   4.746   9.728  0.4641  0.3178  0.1801
  115OSM   H12S12033   3.531   4.636   9.716 -0.6708  0.4970 -0.5070
  115OSM   H12T12034   3.647   4.781   9.741  1.1712 -1.4875 -0.2758
  115OSM   C13S12035   3.493   4.818   9.600  0.3286  0.0990 -0.2196
  115OSM   H13S12036   3.500   4.923   9.635  2.6007 -0.3371  0.8440
  115OSM   H13T12037   3.389   4.780   9.599  0.5279 -0.8544  3.2675
  115OSM   C14S12038   3.578   4.803   9.471  0.2340 -0.1290 -0.2774
  115OSM   H14S12039   3.679   4.838   9.500 -0.8100  0.5667  2.9714
  115OSM   H14T12040   3.533   4.877   9.401  0.6552 -0.7829 -1.2624
  115OSM   C15S12041   3.566   4.662   9.413 -0.7904  0.1432  0.1293
  115OSM   H15S12042   3.605   4.596   9.493 -1.3911 -0.1882  0.1492
  115OSM   H15T12043   3.643   4.651   9.334  1.1812  1.4071  1.7517
  115OSM   C16S12044   3.432   4.618   9.362 -0.7640  0.2930  1.1511
  115OSM   H16S12045   3.365   4.700   9.328 -0.6319  0.0539  0.3010
  115OSM   H16T12046   3.387   4.577   9.455  0.8103  0.3046  1.9512
  115OSM   C17S12047   3.439   4.504   9.254  0.2416  0.2884 -0.1600
  115OSM   H17S12048   3.349   4.440   9.266  0.7811 -0.2075  1.5757
  115OSM   H17T12049   3.526   4.446   9.291 -0.8834 -1.3610  0.0109
  115OSM   C18S12050   3.471   4.559   9.118  0.2410  0.1052  0.4310
  115OSM   H18S12051   3.561   4.623   9.110  0.2168  0.0067 -0.7947
  115OSM   H18T12052   3.389   4.618   9.071  0.8246 -0.1957 -1.0180
  115OSM   H18U12053   3.488   4.479   9.044  1.2593  2.4353 -2.0242
  115OSM    C1F12054   3.472   5.307  10.688 -0.0649 -0.2254 -0.3733
  115OSM     OF12055   3.578   5.344  10.738 -0.2182 -0.1549  0.6162
  115OSM    C2F12056   3.394   5.403  10.594 -0.3166 -0.5509  0.4175
  115OSM    H2F12057   3.391   5.502  10.644 -0.5245 -0.1875 -0.3087
  115OSM    H2G12058   3.287   5.373  10.584 -0.0772 -0.7722 -1.9297
  115OSM    C3F12059   3.466   5.420  10.450 -0.0701  0.3013 -0.4784
  115OSM    H3F12060   3.459   5.315  10.415  1.8129 -0.4672  1.2409
  115OSM    H3G12061   3.567   5.455  10.480 -0.7461  0.7436  1.4986
  115OSM    C4F12062   3.404   5.527  10.362  0.2883  0.2802 -0.2682
  115OSM    H4F12063   3.431   5.630  10.394  0.6847  0.2900 -0.6352
  115OSM    H4G12064   3.294   5.511  10.360 -0.0185  0.6904  3.8763
  115OSM    C5F12065   3.460   5.537  10.221  0.3350  0.6510  0.4160
  115OSM    H5F12066   3.444   5.440  10.169 -2.9560  0.4223  1.6567
  115OSM    H5G12067   3.571   5.551  10.223  0.5622 -0.9465  1.9777
  115OSM    C6F12068   3.397   5.651  10.138 -0.8133  0.1582  0.1754
  115OSM    H6F12069   3.411   5.751  10.185 -1.8828  0.1850  0.4528
  115OSM    H6G12070   3.287   5.639  10.128 -0.7449 -0.9412  0.5916
  115OSM    C7F12071   3.462   5.667   9.998  0.1846 -0.9933  0.4481
  115OSM    H7F12072   3.558   5.722  10.009 -0.4595  0.3841 -0.4854
  115OSM    H7G12073   3.389   5.719   9.933  1.8381 -0.8497 -1.4184
  115OSM    C8F12074   3.491   5.534   9.923 -0.0214  0.8679  0.1534
  115OSM    H8F12075   3.394   5.486   9.899  0.1457  0.0156  1.0930
  115OSM    H8G12076   3.534   5.461   9.995 -0.5816 -0.9015 -1.2368
  115OSM    C9F12077   3.579   5.547   9.799 -0.3083  0.2596  0.5459
  115OSM    H9F12078   3.672   5.602   9.818 -0.0016  0.0436 -0.3097
  115OSM   C10F12079   3.556   5.495   9.676  0.1103 -1.0650  0.2621
  115OSM   H10F12080   3.629   5.514   9.595 -1.3034 -1.6229 -1.2020
  115OSM   C11F12081   3.445   5.401   9.646 -0.3253 -0.4683 -0.0435
  115OSM   H11F12082   3.357   5.432   9.707 -0.0594  2.4324 -1.0049
  115OSM   H11G12083   3.475   5.298   9.675 -3.6795 -1.5035  0.1681
  115OSM   C12F12084   3.394   5.404   9.501 -0.5840  0.0642  0.1662
  115OSM   H12F12085   3.459   5.462   9.432  0.4056 -1.2813 -0.0496
  115OSM   H12G12086   3.294   5.452   9.494  0.7817  3.8463  2.8101
  115OSM   C13F12087   3.405   5.265   9.446 -0.4221  0.6623 -0.0245
  115OSM   H13F12088   3.336   5.203   9.508  0.8098 -0.2834  0.4553
  115OSM   H13G12089   3.502   5.223   9.482 -1.5112 -2.7400 -0.6417
  115OSM   C14F12090   3.388   5.256   9.298  0.5536 -0.7782  0.0381
  115OSM   H14F12091   3.465   5.316   9.247 -0.7778 -0.9967 -2.3675
  115OSM   H14G12092   3.299   5.312   9.263  1.7232  0.2908 -1.3073
  115OSM   C15F12093   3.403   5.107   9.253  0.1283  0.4398 -0.5620
  115OSM   H15F12094   3.331   5.041   9.307  2.6620 -2.9873 -1.0199
  115OSM   H15G12095   3.506   5.081   9.286  0.0895  1.9605  0.9494
  115OSM   C16F12096   3.396   5.082   9.104  0.0191  0.5247 -0.2879
  115OSM   H16F12097   3.464   5.153   9.052  2.0469 -0.6774  0.6076
  115OSM   H16G12098   3.294   5.109   9.069 -0.3791  5.2674  3.4087
  115OSM   C17F12099   3.433   4.941   9.070  1.2802  0.3645 -0.1382
  115OSM   H17F12100   3.354   4.887   9.127  0.5678  0.0553 -1.3612
  115OSM   H17G12101   3.533   4.907   9.104  1.3074 -0.3109 -0.8421
  115OSM   C18F12102   3.410   4.892   8.924  0.3228 -0.3577  0.0893
  115OSM   H18F12103   3.492   4.927   8.858 -0.5742  0.1029 -0.8190
  115OSM   H18G12104   3.322   4.938   8.872  0.7736  3.2450  2.1703
  115OSM   H18H12105   3.410   4.781   8.928  2.4507 -0.3788  0.3541
  116OSM      N12106   1.243   1.238  11.218  0.4188  0.8257 -0.0357
  116OSM    C1512107   1.148   1.208  11.337  0.1553  0.3902  0.2174
  116OSM   H15A12108   1.207   1.170  11.419  0.0101  0.7384  0.4838
  116OSM   H15B12109   1.071   1.136  11.314  2.0214 -1.7275  0.1979
  116OSM   H15C12110   1.102   1.298  11.372  1.5239  1.3347 -0.3070
  116OSM    C1412111   1.326   1.351  11.265 -0.2926  0.4887 -0.8708
  116OSM   H14A12112   1.257   1.424  11.305  0.3645 -1.1660  3.9664
  116OSM   H14B12113   1.389   1.395  11.189 -0.9452 -0.3668 -1.9277
  116OSM   H14C12114   1.380   1.320  11.354 -2.7707  0.6846  0.8176
  116OSM    C1312115   1.325   1.110  11.192  0.4148 -0.3729 -0.1256
  116OSM   H13A12116   1.403   1.109  11.266  1.1773 -0.7570 -0.9243
  116OSM   H13B12117   1.381   1.111  11.100  0.7800 -1.1833  0.0828
  116OSM   H13C12118   1.263   1.021  11.193 -3.9717  2.3324  2.4458
  116OSM    C1212119   1.166   1.268  11.091 -0.4643  0.1971  0.0470
  116OSM   H12A12120   1.108   1.182  11.062  0.2339 -0.1735 -0.2424
  116OSM   H12B12121   1.231   1.294  11.010 -2.0290  1.4476 -0.8724
  116OSM    C1112122   1.062   1.384  11.098 -0.3437 -0.4048 -0.2670
  116OSM   H11A12123   0.978   1.369  11.168  0.1958 -1.7899  0.1072
  116OSM   H11B12124   1.033   1.398  10.992  1.9339 -0.6655 -0.9841
  116OSM      P12125   1.210   1.602  11.061 -0.7846  0.0799  0.0150
  116OSM    O1312126   1.232   1.714  11.152  0.0341 -0.2141  0.0931
  116OSM    O1412127   1.335   1.541  11.010 -0.6355 -0.3571  0.0313
  116OSM    O1112128   1.118   1.634  10.943  0.4843 -0.4859  0.1895
  116OSM    O1212129   1.119   1.500  11.147 -0.3568  0.1663 -0.4665
  116OSM    C1S12130   1.151   1.722  10.834  0.0122  0.2139  0.1759
  116OSM    H1S12131   1.249   1.770  10.852 -1.0638  2.0658  1.3887
  116OSM    H1T12132   1.072   1.800  10.833  0.0448  0.2873  1.2960
  116OSM     NF12133   1.164   1.737  10.575 -0.3914  0.7123  0.4358
  116OSM    HNF12134   1.086   1.782  10.531 -2.1098  0.5572  3.0485
  116OSM    C2S12135   1.122   1.652  10.686 -0.2097 -0.3689 -0.5104
  116OSM    H2S12136   1.186   1.561  10.678  0.0738 -0.3081  0.8307
  116OSM    C3S12137   0.970   1.615  10.674 -0.5026  0.3256  0.4984
  116OSM    H3S12138   0.910   1.708  10.663 -0.1083  0.3386 -2.0861
  116OSM     O312139   0.915   1.535  10.783 -0.0930 -0.6074  0.1748
  116OSM    HO312140   0.977   1.550  10.855  1.0158  1.7178 -1.1726
  116OSM    C4S12141   0.954   1.540  10.543  0.5394  0.3023  0.8446
  116OSM    H4S12142   0.965   1.431  10.549  1.0134  0.2527 -0.5737
  116OSM    C5S12143   0.917   1.597  10.421  0.4613  0.8010 -0.6233
  116OSM    H5S12144   0.904   1.705  10.413 -2.2968  0.5395 -0.3799
  116OSM    C6S12145   0.896   1.527  10.289  0.1991 -0.3817  0.3956
  116OSM    H6S12146   0.787   1.533  10.267  0.6508 -1.3912 -2.4785
  116OSM    H6T12147   0.906   1.418  10.304 -0.8946 -0.7472 -1.3088
  116OSM    C7S12148   0.968   1.567  10.172 -0.0837  0.1621  1.2386
  116OSM    H7S12149   1.077   1.579  10.187 -0.2489  1.3484  1.6175
  116OSM    H7T12150   0.946   1.674  10.153  3.0018  0.2804 -3.6460
  116OSM    C8S12151   0.915   1.487  10.047  0.2676  0.3343 -0.3533
  116OSM    H8S12152   0.811   1.514  10.019  0.1957 -0.1078 -0.5028
  116OSM    H8T12153   0.916   1.377  10.056  0.9257  0.1414 -2.3732
  116OSM    C9S12154   0.996   1.507   9.920  0.0304 -0.1103  0.8440
  116OSM    H9S12155   1.103   1.496   9.951  0.5522  0.5947 -0.6201
  116OSM    H9T12156   0.976   1.610   9.885 -3.6919 -1.4458 -1.5485
  116OSM   C10S12157   0.955   1.402   9.817 -0.5618  0.6077 -0.1423
  116OSM   H10S12158   0.845   1.407   9.806 -0.6137 -1.5097 -1.1145
  116OSM   H10T12159   0.979   1.301   9.856 -1.2690  0.5939  0.2711
  116OSM   C11S12160   1.008   1.425   9.679 -0.1712  0.5725  0.2030
  116OSM   H11S12161   1.115   1.404   9.654 -0.5101 -0.4726 -0.4520
  116OSM   H11T12162   0.990   1.533   9.662 -1.6822  0.3132  0.0145
  116OSM   C12S12163   0.933   1.357   9.558 -0.2685  0.3087 -0.2206
  116OSM   H12S12164   0.829   1.394   9.549 -0.2191  0.4455 -0.2293
  116OSM   H12T12165   0.934   1.247   9.574  0.3551  0.3156 -0.1841
  116OSM   C13S12166   1.006   1.380   9.424 -0.3390  0.1369  0.3065
  116OSM   H13S12167   1.101   1.324   9.433 -0.6176 -0.3922  0.0090
  116OSM   H13T12168   1.020   1.489   9.406 -1.4236  0.4264  1.0379
  116OSM   C14S12169   0.932   1.328   9.303  0.5827 -0.5522 -0.2362
  116OSM   H14S12170   0.941   1.218   9.311 -0.7563 -0.5948  0.9694
  116OSM   H14T12171   0.978   1.347   9.204  0.5209 -1.5164 -0.4599
  116OSM   C15S12172   0.794   1.390   9.287 -0.3667  0.5420  0.1261
  116OSM   H15S12173   0.796   1.496   9.321  0.4439 -0.4779  3.6438
  116OSM   H15T12174   0.716   1.347   9.354 -2.6890  1.3568 -1.8843
  116OSM   C16S12175   0.751   1.394   9.138 -0.9043 -0.2739  0.0285
  116OSM   H16S12176   0.827   1.426   9.063 -1.5778  0.2836 -0.4315
  116OSM   H16T12177   0.663   1.459   9.121 -0.3003  0.8325  0.9543
  116OSM   C17S12178   0.703   1.255   9.087  0.0496 -0.1084 -0.0725
  116OSM   H17S12179   0.604   1.227   9.129  0.0245 -0.4532 -0.3521
  116OSM   H17T12180   0.765   1.179   9.138  0.0857  2.4338  4.1000
  116OSM   C18S12181   0.707   1.236   8.938  0.5880 -0.0333  0.2708
  116OSM   H18S12182   0.636   1.156   8.906  0.3147 -0.6534  2.2697
  116OSM   H18T12183   0.803   1.205   8.893 -0.3221  0.5562 -2.2418
  116OSM   H18U12184   0.664   1.325   8.887  2.4563  1.4443  1.1337
  116OSM    C1F12185   1.295   1.754  10.542  0.3945 -0.1901  0.0694
  116OSM     OF12186   1.380   1.718  10.624  0.5070  0.7064  0.1472
  116OSM    C2F12187   1.329   1.825  10.415 -0.1594  0.8752 -0.3291
  116OSM    H2F12188   1.394   1.909  10.448  0.9610 -0.7762  1.8921
  116OSM    H2G12189   1.232   1.845  10.363 -0.8076 -1.3941 -0.0882
  116OSM    C3F12190   1.413   1.723  10.333 -0.5335  0.8069 -0.1167
  116OSM    H3F12191   1.510   1.697  10.382 -0.3209 -2.8672 -2.1009
  116OSM    H3G12192   1.432   1.775  10.237 -1.3461  2.2372  0.4701
  116OSM    C4F12193   1.345   1.584  10.301  0.4182 -0.7379  0.5757
  116OSM    H4F12194   1.235   1.600  10.306  0.4855 -0.5869  1.8684
  116OSM    H4G12195   1.371   1.522  10.389  0.3808  0.3227  1.3492
  116OSM    C5F12196   1.410   1.517  10.185 -0.1792  0.3232 -0.4055
  116OSM    H5F12197   1.520   1.507  10.199  0.1169  2.8667 -0.4299
  116OSM    H5G12198   1.419   1.588  10.100  0.3515  2.1396  1.0879
  116OSM    C6F12199   1.340   1.383  10.156  0.2264 -0.0308  0.1170
  116OSM    H6F12200   1.238   1.400  10.117  0.0067 -1.1356  0.1637
  116OSM    H6G12201   1.343   1.333  10.255  1.3603 -0.2558 -0.0108
  116OSM    C7F12202   1.428   1.290  10.071 -0.5387  0.1291 -0.0942
  116OSM    H7F12203   1.373   1.193  10.069  0.0487 -0.2645  1.5503
  116OSM    H7G12204   1.523   1.269  10.124 -0.4595 -2.8084 -1.2143
  116OSM    C8F12205   1.434   1.341   9.930 -0.5151  0.2433  0.3112
  116OSM    H8F12206   1.487   1.439   9.939 -2.0938  1.4260 -2.1918
  116OSM    H8G12207   1.328   1.363   9.902 -1.3949  0.2490  3.2939
  116OSM    C9F12208   1.506   1.251   9.830 -0.9541 -0.0971  0.7974
  116OSM    H9F12209   1.582   1.182   9.868 -0.6560 -2.2009 -3.1525
  116OSM   C10F12210   1.508   1.264   9.695  0.1653 -0.6369 -0.2626
  116OSM   H10F12211   1.560   1.192   9.630 -1.4228 -1.6164 -0.5046
  116OSM   C11F12212   1.425   1.367   9.621 -0.4571 -0.4875 -0.2382
  116OSM   H11F12213   1.384   1.442   9.693  0.5726  0.9421 -1.0980
  116OSM   H11G12214   1.335   1.331   9.568  0.3052 -0.6127 -1.4949
  116OSM   C12F12215   1.495   1.453   9.520 -0.3168 -0.3078  0.0385
  116OSM   H12F12216   1.428   1.530   9.476  1.0364 -0.2294 -2.0318
  116OSM   H12G12217   1.527   1.387   9.437  0.3815  1.5498 -1.2325
  116OSM   C13F12218   1.600   1.551   9.590 -0.4195  0.5568 -0.5826
  116OSM   H13F12219   1.679   1.484   9.629  0.4194  1.5421 -0.5386
  116OSM   H13G12220   1.557   1.612   9.672  0.7865  0.0011  0.4845
  116OSM   C14F12221   1.665   1.658   9.504 -0.0200  0.5358  0.5551
  116OSM   H14F12222   1.716   1.741   9.558 -0.0938  0.6830  0.3992
  116OSM   H14G12223   1.591   1.698   9.432 -0.8958 -1.4603  0.3036
  116OSM   C15F12224   1.785   1.609   9.414  0.5590  0.2222  0.6458
  116OSM   H15F12225   1.740   1.557   9.327 -0.8388 -1.5352  2.3370
  116OSM   H15G12226   1.847   1.535   9.469 -1.4677 -1.8316  0.3503
  116OSM   C16F12227   1.867   1.727   9.351 -0.2205 -0.3662  0.5037
  116OSM   H16F12228   1.942   1.672   9.289 -1.9538 -0.0719 -2.0352
  116OSM   H16G12229   1.927   1.781   9.427  0.0161 -0.3223  0.2877
  116OSM   C17F12230   1.798   1.832   9.261 -0.3049  0.4868  0.3555
  116OSM   H17F12231   1.749   1.902   9.332  1.8266  1.2893  1.1042
  116OSM   H17G12232   1.720   1.789   9.195  0.1578  0.7455 -0.3764
  116OSM   C18F12233   1.910   1.912   9.192  0.6797  0.4247  0.4492
  116OSM   H18F12234   1.879   2.011   9.153  1.3455  1.1849  1.7837
  116OSM   H18G12235   1.943   1.851   9.105 -0.0371 -2.1606  1.8622
  116OSM   H18H12236   2.002   1.924   9.253  0.3465 -0.9320  1.2563
  117OSM      N12237   5.338   2.502  11.291 -0.0800  0.4442  0.4818
  117OSM    C1512238   5.221   2.453  11.370 -0.6599 -0.0277  0.4860
  117OSM   H15A12239   5.138   2.444  11.302 -0.8315  0.5114  0.6270
  117OSM   H15B12240   5.196   2.520  11.451  1.0461  2.6209 -1.0680
  117OSM   H15C12241   5.239   2.353  11.409  0.1923  0.2927  0.9435
  117OSM    C1412242   5.377   2.641  11.333  0.1202  0.7851  0.4063
  117OSM   H14A12243   5.300   2.716  11.321 -0.4547  0.0525 -0.6045
  117OSM   H14B12244   5.466   2.671  11.280  1.6856  1.3489  3.1393
  117OSM   H14C12245   5.411   2.644  11.436  2.7743  0.0928 -0.3865
  117OSM    C1312246   5.447   2.410  11.323  0.1814  0.2014 -0.2328
  117OSM   H13A12247   5.542   2.436  11.278 -0.4305 -0.0191 -1.6982
  117OSM   H13B12248   5.432   2.310  11.286  0.5981 -0.3807  1.0857
  117OSM   H13C12249   5.464   2.396  11.429  2.9618  2.3806 -0.2705
  117OSM    C1212250   5.313   2.495  11.139 -0.1717  0.0211 -0.4239
  117OSM   H12A12251   5.224   2.553  11.117 -0.0239 -0.4821 -2.4880
  117OSM   H12B12252   5.277   2.399  11.107 -1.6379  0.7304 -0.9917
  117OSM    C1112253   5.426   2.560  11.047 -0.6520 -0.0575 -0.8224
  117OSM   H11A12254   5.437   2.669  11.065 -1.4603 -0.2614  1.1211
  117OSM   H11B12255   5.393   2.554  10.941 -0.3111  2.1694 -1.1011
  117OSM      P12256   5.676   2.565  11.074  0.1200  0.1973 -0.0163
  117OSM    O1312257   5.651   2.662  11.184 -0.6679 -0.0878 -0.0215
  117OSM    O1412258   5.790   2.470  11.102  0.1906  0.2813  0.2528
  117OSM    O1112259   5.693   2.649  10.943  0.6495 -0.5771 -0.0085
  117OSM    O1212260   5.546   2.485  11.051 -0.6190  0.0074  0.5362
  117OSM    C1S12261   5.768   2.599  10.831 -0.2729 -0.0889  0.0670
  117OSM    H1S12262   5.802   2.494  10.842  1.0931  0.3888  0.6481
  117OSM    H1T12263   5.852   2.670  10.814  1.0963 -1.1358  2.1243
  117OSM     NF12264   5.734   2.537  10.588  0.1263 -0.3640 -0.4302
  117OSM    HNF12265   5.791   2.600  10.536 -1.5325  0.4942 -1.2948
  117OSM    C2S12266   5.677   2.605  10.704 -0.3205  0.0197 -0.4164
  117OSM    H2S12267   5.584   2.548  10.725  0.7487 -1.6958 -0.0511
  117OSM    C3S12268   5.646   2.757  10.677 -0.6799 -0.2744 -0.2559
  117OSM    H3S12269   5.742   2.810  10.660  0.6919 -2.0495  1.4842
  117OSM     O312270   5.586   2.823  10.788 -0.3166  0.2457  0.0065
  117OSM    HO312271   5.615   2.770  10.862  1.0997  0.0296 -0.6838
  117OSM    C4S12272   5.559   2.768  10.557  0.4669 -0.0702  0.5335
  117OSM    H4S12273   5.473   2.699  10.564  0.7056 -0.4791 -0.3760
  117OSM    C5S12274   5.582   2.859  10.455 -0.2960  1.0433  0.1619
  117OSM    H5S12275   5.671   2.924  10.460 -2.2249  3.8445  0.4361
  117OSM    C6S12276   5.489   2.884  10.337  0.2330 -0.3220  0.2996
  117OSM    H6S12277   5.446   2.986  10.345  2.6262  0.6518  1.9593
  117OSM    H6T12278   5.401   2.817  10.346  0.5537 -0.7798  0.1196
  117OSM    C7S12279   5.559   2.869  10.197  0.1863  0.2667 -0.2227
  117OSM    H7S12280   5.603   2.767  10.200 -0.3173 -0.0258 -1.7678
  117OSM    H7T12281   5.644   2.938  10.180  0.4651 -0.1766 -0.6275
  117OSM    C8S12282   5.469   2.862  10.077  0.9926 -0.3107 -0.6737
  117OSM    H8S12283   5.429   2.963  10.055 -3.3960 -1.5181  0.6694
  117OSM    H8T12284   5.375   2.806  10.097 -0.0067  1.3637 -0.4789
  117OSM    C9S12285   5.530   2.800   9.948  0.2765 -0.1556  0.2430
  117OSM    H9S12286   5.562   2.697   9.976 -1.3364 -1.2170 -1.6137
  117OSM    H9T12287   5.625   2.854   9.926  0.9020 -1.2307  0.2349
  117OSM   C10S12288   5.442   2.800   9.825 -0.5013 -0.1440  0.7669
  117OSM   H10S12289   5.413   2.903   9.796  1.7282 -0.0671 -1.6093
  117OSM   H10T12290   5.349   2.747   9.854 -1.6840  0.9834 -0.8030
  117OSM   C11S12291   5.512   2.728   9.709  0.1305  0.2792 -0.5157
  117OSM   H11S12292   5.532   2.624   9.742 -2.1336  0.4457  1.6001
  117OSM   H11T12293   5.607   2.776   9.677 -1.0583  1.4983 -2.4744
  117OSM   C12S12294   5.425   2.723   9.589 -0.4762 -0.0384  0.3722
  117OSM   H12S12295   5.364   2.816   9.589 -0.6420 -0.1453  0.1279
  117OSM   H12T12296   5.359   2.634   9.597  1.2637 -1.4926 -0.6442
  117OSM   C13S12297   5.515   2.701   9.456 -0.3275 -0.1257  0.2243
  117OSM   H13S12298   5.566   2.604   9.470 -2.8296 -1.3622  1.2796
  117OSM   H13T12299   5.585   2.785   9.435  0.0624 -0.9593 -2.2360
  117OSM   C14S12300   5.423   2.701   9.327  0.5313  0.0106 -0.4143
  117OSM   H14S12301   5.376   2.802   9.331 -1.2944 -0.8003 -0.7481
  117OSM   H14T12302   5.345   2.629   9.358 -0.6177  0.4814 -2.1248
  117OSM   C15S12303   5.489   2.676   9.197 -0.3510 -0.2052 -0.1665
  117OSM   H15S12304   5.550   2.584   9.208 -0.6186 -0.4897 -0.9984
  117OSM   H15T12305   5.567   2.749   9.167 -1.6255  1.1505 -0.3435
  117OSM   C16S12306   5.389   2.648   9.090 -0.3625  0.1908  0.0918
  117OSM   H16S12307   5.291   2.617   9.132 -0.2820 -0.5098 -0.2231
  117OSM   H16T12308   5.428   2.564   9.029  1.1913 -3.0001  4.9018
  117OSM   C17S12309   5.361   2.777   9.006 -0.1944  0.0016  0.1414
  117OSM   H17S12310   5.458   2.830   9.006  1.4771 -2.7525  2.3044
  117OSM   H17T12311   5.293   2.850   9.056  0.0534  2.1869 -2.4544
  117OSM   C18S12312   5.320   2.764   8.858 -0.0123 -0.1557  0.3452
  117OSM   H18S12313   5.235   2.693   8.852  0.5335 -0.7510 -0.3746
  117OSM   H18T12314   5.400   2.731   8.789 -1.4656  0.0267 -1.5236
  117OSM   H18U12315   5.297   2.871   8.838  2.1396  0.5755  1.4718
  117OSM    C1F12316   5.759   2.410  10.572 -0.9005  1.0723 -0.6614
  117OSM     OF12317   5.714   2.331  10.653  0.3984  0.3509 -0.2117
  117OSM    C2F12318   5.839   2.356  10.461  0.2298 -0.4493 -0.0329
  117OSM    H2F12319   5.947   2.355  10.487  0.7293 -2.8559 -1.8340
  117OSM    H2G12320   5.811   2.415  10.371  0.5193  0.8521  0.7068
  117OSM    C3F12321   5.799   2.214  10.418 -0.3590  0.3588 -0.1582
  117OSM    H3F12322   5.690   2.197  10.409 -0.7862  0.0872  3.8298
  117OSM    H3G12323   5.832   2.138  10.491 -2.5425 -1.0520 -0.5449
  117OSM    C4F12324   5.867   2.169  10.283  0.1821 -0.0120 -0.1814
  117OSM    H4F12325   5.977   2.182  10.290 -0.0988  1.8319  2.5055
  117OSM    H4G12326   5.825   2.237  10.207  0.3560  3.7942  2.8142
  117OSM    C5F12327   5.835   2.022  10.257 -0.2157  0.1205 -0.4520
  117OSM    H5F12328   5.727   2.003  10.234  0.2315 -2.4591 -0.7698
  117OSM    H5G12329   5.850   1.958  10.346 -0.3895 -1.2090 -1.3359
  117OSM    C6F12330   5.904   1.952  10.137  0.0149 -0.2427 -0.0472
  117OSM    H6F12331   5.868   1.848  10.120 -0.6124  0.1375 -1.1479
  117OSM    H6G12332   6.013   1.942  10.157 -0.2374 -1.0088  1.0112
  117OSM    C7F12333   5.882   2.038  10.009  0.1250 -0.0904  0.0985
  117OSM    H7F12334   5.958   2.119  10.004 -0.4175  0.5859  2.0584
  117OSM    H7G12335   5.789   2.095  10.030 -0.6331 -0.4296 -2.0560
  117OSM    C8F12336   5.850   1.951   9.891  0.2516 -0.3794 -1.0116
  117OSM    H8F12337   5.781   2.011   9.827  1.6652  2.0741 -0.3700
  117OSM    H8G12338   5.792   1.863   9.924 -0.4108  0.0878 -0.9180
  117OSM    C9F12339   5.986   1.925   9.837 -0.3237  0.0060 -0.0845
  117OSM    H9F12340   6.058   1.859   9.887  2.7503  2.9727 -0.2454
  117OSM   C10F12341   6.038   1.985   9.729 -0.1549  0.6626 -0.0826
  117OSM   H10F12342   6.137   1.956   9.690  0.1211  3.5373 -1.7307
  117OSM   C11F12343   5.971   2.091   9.646 -0.2526 -0.2605 -1.1585
  117OSM   H11F12344   6.048   2.157   9.601 -1.1111  0.6833 -1.2808
  117OSM   H11G12345   5.896   2.156   9.696 -0.1156 -0.6886 -0.3916
  117OSM   C12F12346   5.909   2.033   9.519 -0.2503 -0.9168  0.0086
  117OSM   H12F12347   5.886   2.116   9.448  2.4363  0.1578  0.2931
  117OSM   H12G12348   5.816   1.977   9.543 -1.5966  0.9235 -0.6155
  117OSM   C13F12349   5.994   1.932   9.437 -0.4051 -0.0914 -0.0607
  117OSM   H13F12350   5.993   1.827   9.473 -0.1553 -1.0507 -2.6320
  117OSM   H13G12351   6.100   1.965   9.446 -0.5628 -0.0844  2.8489
  117OSM   C14F12352   5.937   1.912   9.290  0.1728 -0.3017 -0.1000
  117OSM   H14F12353   5.920   2.012   9.244  2.6677  0.2627  0.0445
  117OSM   H14G12354   5.840   1.866   9.317  0.3760 -0.7927 -0.1977
  117OSM   C15F12355   6.020   1.815   9.203 -0.1062 -0.0532  0.0275
  117OSM   H15F12356   6.017   1.716   9.254  1.6658 -0.0389  0.2360
  117OSM   H15G12357   6.127   1.840   9.188 -0.0564  0.3738  1.0137
  117OSM   C16F12358   5.968   1.798   9.055 -0.1169  0.6269 -0.0360
  117OSM   H16F12359   5.860   1.773   9.062 -0.1567  1.2346  1.8910
  117OSM   H16G12360   6.012   1.703   9.019  2.2709  1.3636  0.7901
  117OSM   C17F12361   6.002   1.911   8.964 -0.1834 -0.0208  0.3085
  117OSM   H17F12362   6.111   1.927   8.950 -0.1352 -1.3344 -1.2187
  117OSM   H17G12363   5.961   2.001   9.014  2.9274  1.2720  0.7080
  117OSM   C18F12364   5.945   1.883   8.821  0.3533  0.3519 -0.0160
  117OSM   H18F12365   5.869   1.802   8.823  0.4237  0.2638 -0.6992
  117OSM   H18G12366   6.026   1.827   8.771  0.0732 -1.4766  1.4698
  117OSM   H18H12367   5.923   1.970   8.755 -1.7009 -1.2183 -1.5609
  118OSM      N12368   4.842   4.920  11.175  0.2344  0.2853  0.2366
  118OSM    C1512369   4.706   4.885  11.223 -0.1382 -0.0603  0.1450
  118OSM   H15A12370   4.670   4.961  11.290 -1.2404  1.1421 -1.7095
  118OSM   H15B12371   4.719   4.792  11.278 -0.4154 -2.3014 -3.2462
  118OSM   H15C12372   4.635   4.864  11.144 -1.5306 -1.1175  1.6156
  118OSM    C1412373   4.830   5.058  11.112  0.7327  0.7098  0.5274
  118OSM   H14A12374   4.773   5.049  11.020  0.1774 -1.2878  1.0071
  118OSM   H14B12375   4.928   5.096  11.091  1.4674 -1.8922 -1.2521
  118OSM   H14C12376   4.771   5.119  11.179 -1.0964  0.9819 -1.2192
  118OSM    C1312377   4.934   4.919  11.286 -0.0916 -0.3575 -0.2928
  118OSM   H13A12378   4.937   4.820  11.328  2.3492 -0.3739 -0.3455
  118OSM   H13B12379   4.899   4.990  11.360 -1.4083  1.1039 -2.2068
  118OSM   H13C12380   5.025   4.963  11.247 -1.5455  1.3640 -1.9960
  118OSM    C1212381   4.879   4.814  11.072 -0.3569 -0.3965 -0.3183
  118OSM   H12A12382   4.802   4.826  10.996 -0.4674  0.9933 -0.0179
  118OSM   H12B12383   4.860   4.720  11.120 -0.1561 -0.3812 -0.2116
  118OSM    C1112384   5.014   4.818  10.995 -0.4939 -0.9703 -0.3280
  118OSM   H11A12385   5.014   4.924  10.962 -2.2340 -0.1017  2.1922
  118OSM   H11B12386   5.011   4.750  10.907  0.9754  0.2201 -1.3524
  118OSM      P12387   5.165   4.633  11.111  0.0296  0.1478  0.2739
  118OSM    O1312388   5.307   4.628  11.145  0.1397  0.2886  0.2304
  118OSM    O1412389   5.077   4.591  11.216 -0.0382 -0.2091  0.0553
  118OSM    O1112390   5.132   4.550  10.987 -0.4318  0.3782 -0.8829
  118OSM    O1212391   5.126   4.780  11.073  0.0278  0.3763  0.0183
  118OSM    C1S12392   5.220   4.548  10.874 -0.2227 -0.1418 -0.5466
  118OSM    H1S12393   5.324   4.529  10.908 -0.6925  0.8162  1.5947
  118OSM    H1T12394   5.222   4.647  10.823 -0.3949  1.0452  1.6206
  118OSM     NF12395   5.257   4.500  10.642 -0.1425 -0.0503  0.6589
  118OSM    HNF12396   5.203   4.545  10.570  0.6826 -1.0009 -0.5960
  118OSM    C2S12397   5.180   4.455  10.753 -0.0864 -0.5224  0.8421
  118OSM    H2S12398   5.206   4.349  10.775  1.0975 -1.0798 -2.6963
  118OSM    C3S12399   5.017   4.469  10.729 -0.1167 -0.0513 -0.4382
  118OSM    H3S12400   4.992   4.576  10.716  0.6478 -0.0055 -1.6530
  118OSM     O312401   4.928   4.426  10.838  0.0073 -0.0978  0.0279
  118OSM    HO312402   4.986   4.428  10.915  0.0526  0.9708 -0.0167
  118OSM    C4S12403   4.972   4.399  10.605 -0.4149  0.3310  0.8298
  118OSM    H4S12404   4.916   4.466  10.538 -1.6903 -0.4958  1.0306
  118OSM    C5S12405   4.961   4.265  10.600  0.2309 -0.0956  0.0817
  118OSM    H5S12406   4.970   4.208  10.694  1.5853 -1.1616 -0.6724
  118OSM    C6S12407   4.913   4.177  10.496  0.0290 -0.5625  0.0454
  118OSM    H6S12408   4.809   4.145  10.521 -1.3677  2.1924 -1.6648
  118OSM    H6T12409   4.979   4.089  10.512 -0.2701 -0.7328  0.3779
  118OSM    C7S12410   4.926   4.239  10.358  0.7397 -0.5860  0.4797
  118OSM    H7S12411   5.032   4.272  10.346  0.3054  0.3919 -1.0214
  118OSM    H7T12412   4.860   4.328  10.348  0.9403 -0.3181  1.4972
  118OSM    C8S12413   4.892   4.142  10.240 -0.4515  0.5357 -0.3799
  118OSM    H8S12414   4.783   4.125  10.254 -1.3623  2.6728 -3.6275
  118OSM    H8T12415   4.937   4.041  10.239  0.9037  1.0507 -3.2974
  118OSM    C9S12416   4.908   4.203  10.100 -0.1068 -0.2795 -0.7706
  118OSM    H9S12417   5.007   4.252  10.089  1.0033 -2.3705 -0.6341
  118OSM    H9T12418   4.823   4.275  10.101  0.8290  0.8605 -1.4250
  118OSM   C10S12419   4.892   4.108   9.976 -0.3637  0.2693 -0.4631
  118OSM   H10S12420   4.791   4.069   9.952  0.9195 -1.5254 -3.6206
  118OSM   H10T12421   4.944   4.014  10.007  0.9808  0.5715 -1.6734
  118OSM   C11S12422   4.944   4.181   9.854  0.0983  1.1105  0.0418
  118OSM   H11S12423   5.048   4.215   9.871  1.0925 -1.0204 -1.3305
  118OSM   H11T12424   4.886   4.272   9.826 -0.4186  0.7264 -0.1654
  118OSM   C12S12425   4.946   4.082   9.737 -0.7179 -0.1443 -0.1388
  118OSM   H12S12426   4.846   4.048   9.702 -1.1480  1.0161 -0.0886
  118OSM   H12T12427   4.987   3.983   9.765  1.2626  0.0818 -1.9433
  118OSM   C13S12428   5.025   4.140   9.617  0.4092  0.1364 -0.2398
  118OSM   H13S12429   5.131   4.158   9.646 -0.0703  1.6763  0.7142
  118OSM   H13T12430   4.973   4.238   9.605 -1.4428 -0.8454 -0.6950
  118OSM   C14S12431   5.013   4.061   9.491 -0.1124 -0.2647  0.5188
  118OSM   H14S12432   4.907   4.032   9.478  0.4047 -1.4625 -1.4543
  118OSM   H14T12433   5.069   3.966   9.503  0.8801  0.1808 -0.4226
  118OSM   C15S12434   5.061   4.132   9.361 -0.5445 -0.0152  0.2715
  118OSM   H15S12435   5.164   4.165   9.387  0.0935 -1.2977 -0.5578
  118OSM   H15T12436   4.998   4.218   9.331 -3.3553 -2.9097 -3.0175
  118OSM   C16S12437   5.052   4.027   9.239 -0.5370 -0.1706 -0.0478
  118OSM   H16S12438   4.944   4.000   9.242 -0.5028 -0.2585  1.0514
  118OSM   H16T12439   5.098   3.932   9.272  1.0440  1.0873  1.5738
  118OSM   C17S12440   5.124   4.076   9.113 -0.3724 -0.1399  0.4297
  118OSM   H17S12441   5.232   4.054   9.115 -0.5073 -3.3981 -5.4318
  118OSM   H17T12442   5.103   4.182   9.088 -1.5260 -0.3404  0.4497
  118OSM   C18S12443   5.077   4.001   8.986 -0.2849 -0.3189  0.1482
  118OSM   H18S12444   5.041   3.903   9.023  2.6142 -1.8276 -0.7192
  118OSM   H18T12445   5.158   3.977   8.913  0.1159 -1.7577  1.0313
  118OSM   H18U12446   5.001   4.059   8.929  1.1041  2.8899  1.3378
  118OSM    C1F12447   5.392   4.485  10.628  0.1603  0.3919 -0.6224
  118OSM     OF12448   5.447   4.392  10.692 -0.6333 -0.1853  0.1792
  118OSM    C2F12449   5.468   4.584  10.538  0.1637 -0.7045 -0.0380
  118OSM    H2F12450   5.485   4.682  10.587  2.1661 -0.8704 -0.3207
  118OSM    H2G12451   5.402   4.598  10.450  0.4168  0.1978 -0.0888
  118OSM    C3F12452   5.608   4.536  10.509 -0.8128  0.2089  0.3031
  118OSM    H3F12453   5.628   4.430  10.537  0.3660  0.3265 -0.0379
  118OSM    H3G12454   5.681   4.601  10.562 -1.0578 -0.0697  0.9960
  118OSM    C4F12455   5.630   4.555  10.364 -0.7540 -0.1541  0.0367
  118OSM    H4F12456   5.616   4.659  10.329  0.9344  0.4487  1.0253
  118OSM    H4G12457   5.545   4.507  10.311 -0.0144  1.5533 -2.9440
  118OSM    C5F12458   5.772   4.507  10.320 -0.2876 -0.0096 -0.2694
  118OSM    H5F12459   5.787   4.409  10.370  0.3506  1.4014  2.5178
  118OSM    H5G12460   5.854   4.577  10.345  1.9104 -1.2782 -3.3716
  118OSM    C6F12461   5.792   4.483  10.170  0.1914  0.3751  0.6933
  118OSM    H6F12462   5.767   4.377  10.149  1.3904 -0.1484  1.8123
  118OSM    H6G12463   5.901   4.493  10.151 -0.3216  1.4796 -2.3454
  118OSM    C7F12464   5.708   4.564  10.080  0.9457 -0.5579 -0.3734
  118OSM    H7F12465   5.739   4.670  10.080 -1.4673  0.2513  1.8152
  118OSM    H7G12466   5.604   4.575  10.119  0.7139 -2.4673 -0.3340
  118OSM    C8F12467   5.700   4.511   9.937  0.5717  0.2197 -0.2733
  118OSM    H8F12468   5.633   4.424   9.925  0.3332  0.4261 -0.4617
  118OSM    H8G12469   5.800   4.467   9.923  0.4883  0.2238 -0.9164
  118OSM    C9F12470   5.658   4.631   9.845  0.4734  0.7626 -0.8365
  118OSM    H9F12471   5.587   4.710   9.875 -0.0233  0.8891 -2.2792
  118OSM   C10F12472   5.721   4.663   9.724  0.4886 -0.0235  0.4607
  118OSM   H10F12473   5.679   4.738   9.656 -1.8849 -2.3230 -0.7884
  118OSM   C11F12474   5.834   4.584   9.658 -0.0250  0.1046  0.1203
  118OSM   H11F12475   5.861   4.488   9.707  1.0847 -0.5377 -1.6162
  118OSM   H11G12476   5.924   4.650   9.663  1.1319 -1.5149  2.3185
  118OSM   C12F12477   5.787   4.538   9.519 -0.2378 -0.1670  0.3431
  118OSM   H12F12478   5.872   4.482   9.475  0.3564  0.0218  1.2304
  118OSM   H12G12479   5.772   4.622   9.448  0.1353 -1.4899 -1.3834
  118OSM   C13F12480   5.671   4.439   9.514 -0.1778 -0.9267 -0.4716
  118OSM   H13F12481   5.586   4.500   9.551 -0.2722 -0.8162 -0.8727
  118OSM   H13G12482   5.693   4.360   9.589  0.3596 -0.3095  0.0419
  118OSM   C14F12483   5.627   4.379   9.382  0.4529 -0.4425  0.8631
  118OSM   H14F12484   5.572   4.285   9.403 -0.2662  0.1628  1.8233
  118OSM   H14G12485   5.717   4.347   9.326  0.5611 -1.1486  1.4285
  118OSM   C15F12486   5.541   4.469   9.299 -0.0588  0.2861  0.2115
  118OSM   H15F12487   5.607   4.549   9.259 -0.9651 -0.2800 -2.7094
  118OSM   H15G12488   5.457   4.507   9.360 -0.4393  0.5869 -0.4891
  118OSM   C16F12489   5.497   4.392   9.167 -0.7073  0.1426 -1.1842
  118OSM   H16F12490   5.452   4.293   9.194 -1.5879  0.9445  0.4940
  118OSM   H16G12491   5.590   4.362   9.115 -0.5172  2.0982 -2.0367
  118OSM   C17F12492   5.419   4.473   9.062 -0.5268 -0.8848  0.4617
  118OSM   H17F12493   5.490   4.533   9.001 -1.7132 -1.2674 -1.3833
  118OSM   H17G12494   5.353   4.540   9.122  0.9482  1.3461 -0.2828
  118OSM   C18F12495   5.335   4.392   8.964  0.0927 -0.0194  0.1602
  118OSM   H18F12496   5.250   4.333   9.005 -0.9448  1.9952  1.0485
  118OSM   H18G12497   5.415   4.326   8.924  0.7483 -0.4993  2.1273
  118OSM   H18H12498   5.281   4.453   8.889  0.4575  2.8169  2.0456
  119OSM      N12499   0.224   2.965  10.970  0.1207 -0.0570  0.1578
  119OSM    C1512500   0.341   3.051  10.963 -0.3597 -0.7382 -0.5149
  119OSM   H15A12501   0.321   3.117  10.881 -2.1960  1.2979  1.4440
  119OSM   H15B12502   0.437   3.002  10.954 -0.7700 -2.8541  3.7452
  119OSM   H15C12503   0.342   3.112  11.052  0.0141 -0.0775 -0.9655
  119OSM    C1412504   0.215   2.907  10.836 -0.1857 -0.1913 -0.5747
  119OSM   H14A12505   0.203   2.981  10.758 -1.7212  1.2232  0.9052
  119OSM   H14B12506   0.131   2.841  10.820  1.1662 -2.1130 -0.0556
  119OSM   H14C12507   0.307   2.857  10.809 -0.4891  0.9154 -4.2590
  119OSM    C1312508   0.254   2.848  11.068  0.4587 -0.3350  0.2274
  119OSM   H13A12509   0.169   2.781  11.058 -1.2142  1.5331  1.1764
  119OSM   H13B12510   0.256   2.880  11.171 -1.5539 -2.4838  1.0516
  119OSM   H13C12511   0.347   2.802  11.037  1.3942  1.6173  0.0085
  119OSM    C1212512   0.093   3.031  10.996 -0.5116 -0.7388  0.5785
  119OSM   H12A12513   0.015   2.956  10.994  0.0425 -1.3337  0.5824
  119OSM   H12B12514   0.077   3.112  10.927 -2.6548 -1.0585  0.6473
  119OSM    C1112515   0.083   3.097  11.129 -0.7719 -0.6505 -0.1959
  119OSM   H11A12516   0.170   3.165  11.141 -1.2898  0.4087 -2.0578
  119OSM   H11B12517   0.104   3.019  11.206  1.3825 -0.4282 -0.5000
  119OSM      P12518  -0.051   3.321  11.112 -0.1685 -0.0307  0.4237
  119OSM    O1312519  -0.194   3.364  11.143 -0.2990  0.3133 -0.3678
  119OSM    O1412520   0.050   3.397  11.183 -0.3488 -0.2031 -0.3937
  119OSM    O1112521  -0.014   3.324  10.957  0.0277 -0.2400 -0.0013
  119OSM    O1212522  -0.039   3.168  11.148  0.2005  0.1718 -0.0413
  119OSM    C1S12523  -0.107   3.290  10.856  0.3244  0.3052  0.1734
  119OSM    H1S12524  -0.198   3.355  10.860  1.0477  1.3548  0.0595
  119OSM    H1T12525  -0.135   3.184  10.871 -3.4380  0.9049 -1.4213
  119OSM     NF12526  -0.132   3.226  10.620 -0.6580 -0.3061 -0.0758
  119OSM    HNF12527  -0.099   3.135  10.595  2.6901  0.8364 -0.3030
  119OSM    C2S12528  -0.043   3.298  10.710  0.5803  0.6186 -0.2982
  119OSM    H2S12529  -0.038   3.405  10.681 -0.3002  0.8270  0.2826
  119OSM    C3S12530   0.102   3.244  10.710  0.5382  0.5156  0.8923
  119OSM    H3S12531   0.099   3.149  10.767 -3.9660  0.0250  0.2476
  119OSM     O312532   0.194   3.327  10.779 -0.1935  0.1550 -0.2243
  119OSM    HO312533   0.145   3.393  10.828  1.7930  1.4327  0.1709
  119OSM    C4S12534   0.141   3.213  10.568  0.6741 -0.2519  0.5903
  119OSM    H4S12535   0.139   3.109  10.534 -1.9528  0.9749 -3.8507
  119OSM    C5S12536   0.189   3.295  10.478 -0.7896 -0.4415  0.0284
  119OSM    H5S12537   0.198   3.399  10.513  0.2037  0.3704 -2.4322
  119OSM    C6S12538   0.236   3.274  10.338 -0.2916  0.3035  0.1080
  119OSM    H6S12539   0.153   3.293  10.266 -1.7397 -1.8754  1.0916
  119OSM    H6T12540   0.271   3.169  10.327  2.9175  1.3141 -0.3136
  119OSM    C7S12541   0.341   3.373  10.296 -0.0495  0.1134 -0.3362
  119OSM    H7S12542   0.439   3.367  10.347  0.2025 -0.9594 -0.9039
  119OSM    H7T12543   0.298   3.473  10.318  1.9833  0.3697  3.0658
  119OSM    C8S12544   0.377   3.372  10.142 -0.3513 -0.0046 -0.4321
  119OSM    H8S12545   0.421   3.273  10.115 -2.0427 -0.4950 -1.5464
  119OSM    H8T12546   0.461   3.440  10.115 -0.2380  0.3306  0.7086
  119OSM    C9S12547   0.263   3.386  10.037 -0.7623  0.5131  0.1038
  119OSM    H9S12548   0.204   3.480  10.040 -1.7356 -0.0182 -1.4490
  119OSM    H9T12549   0.196   3.299  10.059  1.3593 -1.4094 -0.6862
  119OSM   C10S12550   0.316   3.369   9.897  0.0474 -0.5718  0.2755
  119OSM   H10S12551   0.254   3.297   9.840 -2.5536  1.7682 -0.0942
  119OSM   H10T12552   0.415   3.320   9.910 -0.8496 -1.7224  3.7178
  119OSM   C11S12553   0.312   3.495   9.802 -0.9462  0.6671  0.2386
  119OSM   H11S12554   0.375   3.577   9.844 -0.3748  0.0074  0.6764
  119OSM   H11T12555   0.209   3.530   9.778 -0.7152  0.2989 -1.4339
  119OSM   C12S12556   0.385   3.463   9.671  0.5065 -0.3334  0.2239
  119OSM   H12S12557   0.348   3.370   9.623  1.9809 -1.5277  1.3245
  119OSM   H12T12558   0.491   3.445   9.700  0.4580 -0.9557  0.0253
  119OSM   C13S12559   0.370   3.581   9.568  0.6384  1.2187 -0.1296
  119OSM   H13S12560   0.400   3.677   9.614  1.0980 -0.0247  2.3406
  119OSM   H13T12561   0.262   3.591   9.544 -0.1973 -1.1520  2.1329
  119OSM   C14S12562   0.449   3.562   9.438  0.1898  0.1164 -0.4273
  119OSM   H14S12563   0.428   3.460   9.398  0.7633 -0.8294  1.5310
  119OSM   H14T12564   0.555   3.577   9.468  0.0916  0.7104 -0.3601
  119OSM   C15S12565   0.408   3.661   9.328  0.3862 -0.4511  0.3025
  119OSM   H15S12566   0.442   3.765   9.350  0.0653 -0.3340  0.2459
  119OSM   H15T12567   0.299   3.660   9.311  0.3059  0.0624  0.7541
  119OSM   C16S12568   0.481   3.623   9.195 -0.2860  0.4368  0.2680
  119OSM   H16S12569   0.488   3.512   9.194 -0.0633  0.3492  3.2065
  119OSM   H16T12570   0.586   3.659   9.197 -0.3935  0.8435 -0.9219
  119OSM   C17S12571   0.408   3.677   9.071  0.4078  0.5923 -0.0529
  119OSM   H17S12572   0.396   3.787   9.082  1.3585  0.7028 -0.0976
  119OSM   H17T12573   0.302   3.643   9.066  0.3235  0.8029  0.2631
  119OSM   C18S12574   0.487   3.662   8.942 -0.2813 -0.2123  0.4997
  119OSM   H18S12575   0.506   3.556   8.915 -0.9656 -1.1232  3.3078
  119OSM   H18T12576   0.580   3.722   8.952 -0.9577  0.7307  1.3091
  119OSM   H18U12577   0.426   3.704   8.859 -0.2630  1.5197  1.3233
  119OSM    C1F12578  -0.251   3.281  10.591  0.0040 -0.6089  0.1303
  119OSM     OF12579  -0.283   3.392  10.622 -0.0004 -0.0312 -0.1988
  119OSM    C2F12580  -0.343   3.197  10.511  0.3020  0.1849 -0.5612
  119OSM    H2F12581  -0.443   3.195  10.560 -0.9831 -0.1735 -3.0283
  119OSM    H2G12582  -0.309   3.096  10.483 -0.3779  0.0864 -1.0697
  119OSM    C3F12583  -0.381   3.265  10.373 -0.2862  0.0982 -0.6119
  119OSM    H3F12584  -0.427   3.365  10.388 -2.4545 -0.7814 -0.9802
  119OSM    H3G12585  -0.457   3.194  10.334 -1.5888  0.7563  0.6330
  119OSM    C4F12586  -0.260   3.286  10.277  0.7405 -0.3972  0.2940
  119OSM    H4F12587  -0.219   3.189  10.243  2.3437 -0.0604  1.1921
  119OSM    H4G12588  -0.173   3.338  10.322  0.2335 -0.2297  1.0941
  119OSM    C5F12589  -0.288   3.370  10.151 -0.2240  0.2420  0.4036
  119OSM    H5F12590  -0.222   3.459  10.159 -1.0154  0.7985  0.9085
  119OSM    H5G12591  -0.390   3.413  10.145 -0.0942  0.5259  0.1697
  119OSM    C6F12592  -0.260   3.298  10.020 -0.4261  0.5216 -0.4726
  119OSM    H6F12593  -0.325   3.209  10.034 -0.5695  0.9641  2.1370
  119OSM    H6G12594  -0.155   3.265  10.029 -0.3317  0.9027 -0.1694
  119OSM    C7F12595  -0.308   3.384   9.899 -0.6484  0.3216 -0.2707
  119OSM    H7F12596  -0.248   3.476   9.880  0.2484 -0.3742 -0.9042
  119OSM    H7G12597  -0.415   3.409   9.915 -1.2782 -2.4444  0.2571
  119OSM    C8F12598  -0.308   3.310   9.764 -0.4636 -0.4132  0.7942
  119OSM    H8F12599  -0.382   3.227   9.769  1.1330 -2.1310 -1.5922
  119OSM    H8G12600  -0.218   3.244   9.764 -0.6296 -0.6420  1.2086
  119OSM    C9F12601  -0.328   3.396   9.642 -0.8602  0.0163 -0.3738
  119OSM    H9F12602  -0.432   3.422   9.615 -0.3216  2.9268  0.0420
  119OSM   C10F12603  -0.231   3.438   9.563 -0.1470 -0.2929 -0.1534
  119OSM   H10F12604  -0.265   3.511   9.488  0.1172  0.8943  0.8389
  119OSM   C11F12605  -0.078   3.417   9.564 -0.9236  0.1428  0.1899
  119OSM   H11F12606  -0.041   3.370   9.658  0.3661  1.0769  0.1765
  119OSM   H11G12607  -0.032   3.518   9.573 -0.5726 -0.0172  0.2133
  119OSM   C12F12608  -0.013   3.346   9.441  1.2829  0.4351  0.1470
  119OSM   H12F12609  -0.039   3.401   9.348  0.3220 -1.6085 -0.8508
  119OSM   H12G12610  -0.074   3.253   9.441  1.4153  0.3191  2.0269
  119OSM   C13F12611   0.133   3.298   9.451 -0.3309 -0.1691 -0.2995
  119OSM   H13F12612   0.156   3.235   9.539  0.6884 -0.2790 -0.6277
  119OSM   H13G12613   0.179   3.398   9.463  0.6473 -0.5479 -0.7266
  119OSM   C14F12614   0.190   3.236   9.327  0.0141  0.0684  0.3866
  119OSM   H14F12615   0.133   3.144   9.302  1.5659 -1.8210  3.3152
  119OSM   H14G12616   0.289   3.189   9.343 -0.9729 -1.5207  2.2463
  119OSM   C15F12617   0.198   3.343   9.212  0.0929  0.2064 -0.1316
  119OSM   H15F12618   0.225   3.447   9.241  0.5463  0.8815 -2.6968
  119OSM   H15G12619   0.092   3.344   9.177  0.6033  0.6470 -1.7542
  119OSM   C16F12620   0.290   3.296   9.098 -0.1963 -0.2496  0.3869
  119OSM   H16F12621   0.385   3.273   9.150 -0.3993  0.0440  0.9083
  119OSM   H16G12622   0.314   3.377   9.026 -1.1375  0.0820  0.4306
  119OSM   C17F12623   0.229   3.175   9.028 -0.2536 -0.1072 -0.3472
  119OSM   H17F12624   0.126   3.196   8.992 -0.6710 -2.1171 -0.4435
  119OSM   H17G12625   0.220   3.102   9.111  0.5954  3.4067  3.1719
  119OSM   C18F12626   0.313   3.115   8.907 -0.1454 -0.4019 -0.5342
  119OSM   H18F12627   0.308   3.170   8.810  2.1281  0.2258 -0.3448
  119OSM   H18G12628   0.279   3.010   8.895 -2.8105  0.5445 -2.1319
  119OSM   H18H12629   0.422   3.110   8.926 -0.2117  1.4692  0.5918
  120OSM      N12630   4.125   6.411  11.069  0.3349 -0.3337 -0.6052
  120OSM    C1512631   4.092   6.496  11.197 -0.2015 -0.0949  0.5448
  120OSM   H15A12632   4.089   6.432  11.284 -0.3546 -0.6898  0.1100
  120OSM   H15B12633   3.999   6.547  11.179  0.4123  0.0887 -2.8930
  120OSM   H15C12634   4.174   6.562  11.221  1.4872 -0.9235 -2.3847
  120OSM    C1412635   4.233   6.320  11.126 -0.3839 -0.5498 -0.1703
  120OSM   H14A12636   4.210   6.250  11.205  1.0133 -1.9829 -0.9761
  120OSM   H14B12637   4.318   6.368  11.172 -1.1295  0.5219  0.1328
  120OSM   H14C12638   4.265   6.250  11.050 -2.0747 -1.1401 -0.3917
  120OSM    C1312639   4.002   6.334  11.033 -0.2487  0.5450 -0.7596
  120OSM   H13A12640   4.022   6.245  10.975  0.7335  1.2704 -1.5568
  120OSM   H13B12641   3.938   6.394  10.970 -0.9484  0.2038 -0.3895
  120OSM   H13C12642   3.954   6.311  11.127  2.3856  1.5544  0.9410
  120OSM    C1212643   4.171   6.505  10.954 -0.1500 -0.2649 -0.0205
  120OSM   H12A12644   4.255   6.563  10.989  1.6045 -1.9135 -1.2266
  120OSM   H12B12645   4.084   6.568  10.945 -0.2033 -0.3075  0.1948
  120OSM    C1112646   4.213   6.444  10.819  0.5188 -0.1778  0.6456
  120OSM   H11A12647   4.216   6.518  10.737 -0.1671  1.7256  2.2525
  120OSM   H11B12648   4.136   6.372  10.784  2.3185 -1.6578 -0.3911
  120OSM      P12649   4.345   6.211  10.796  0.0248  0.0467  0.0404
  120OSM    O1312650   4.485   6.172  10.798 -0.3707 -0.4533 -0.4590
  120OSM    O1412651   4.256   6.134  10.883  0.0544 -0.2294 -0.5233
  120OSM    O1112652   4.291   6.205  10.649  0.3375 -0.2051 -0.4828
  120OSM    O1212653   4.333   6.368  10.829  0.3573  0.3380 -0.0330
  120OSM    C1S12654   4.347   6.295  10.550  0.0726 -0.0322  0.1574
  120OSM    H1S12655   4.454   6.319  10.569  0.5104 -2.6582  1.4824
  120OSM    H1T12656   4.296   6.394  10.554 -0.4142 -0.3085  1.6485
  120OSM     NF12657   4.396   6.302  10.321  0.2779 -0.0919  0.3630
  120OSM    HNF12658   4.342   6.370  10.271  1.4532 -0.7547 -1.9560
  120OSM    C2S12659   4.322   6.231  10.413  0.4636  0.9738 -1.0864
  120OSM    H2S12660   4.363   6.130  10.431 -0.2996  0.4684 -2.0740
  120OSM    C3S12661   4.165   6.216  10.392 -0.1117  0.7064  0.3442
  120OSM    H3S12662   4.125   6.317  10.371  0.7527  0.8402 -0.8303
  120OSM     O312663   4.082   6.158  10.487  0.0335  0.3938  0.3692
  120OSM    HO312664   4.138   6.122  10.556 -0.2127 -2.3788 -0.7241
  120OSM    C4S12665   4.152   6.126  10.271 -0.3621  0.1895  0.2699
  120OSM    H4S12666   4.144   6.017  10.270  0.1762  0.1294 -1.7135
  120OSM    C5S12667   4.143   6.185  10.148 -0.3118 -0.1308  0.6868
  120OSM    H5S12668   4.156   6.294  10.134  1.1291 -0.5736 -2.0332
  120OSM    C6S12669   4.133   6.093  10.030  0.4808 -0.6171  0.3757
  120OSM    H6S12670   4.030   6.100   9.988  0.4495  0.6324  0.6075
  120OSM    H6T12671   4.159   5.989  10.057  2.6449  0.0689  1.1940
  120OSM    C7S12672   4.236   6.135   9.928 -0.0676 -0.8312  0.3885
  120OSM    H7S12673   4.339   6.123   9.968  1.5264  0.1295 -3.1060
  120OSM    H7T12674   4.231   6.243   9.904  1.7827 -1.2122 -2.0567
  120OSM    C8S12675   4.222   6.059   9.798  0.7332 -0.3901 -0.5191
  120OSM    H8S12676   4.116   6.065   9.767  0.5553 -0.2711  0.0934
  120OSM    H8T12677   4.249   5.951   9.801  0.1822 -0.5236 -0.2499
  120OSM    C9S12678   4.304   6.118   9.688 -0.1118  0.2491  0.4619
  120OSM    H9S12679   4.412   6.121   9.716 -0.0317 -0.2274  0.2061
  120OSM    H9T12680   4.266   6.219   9.662 -0.5470 -0.6113 -2.5183
  120OSM   C10S12681   4.282   6.041   9.561 -0.2899 -1.0398 -0.3526
  120OSM   H10S12682   4.175   6.019   9.540 -0.3863 -1.9554  0.9143
  120OSM   H10T12683   4.333   5.944   9.580  0.5085 -0.6517 -0.4646
  120OSM   C11S12684   4.368   6.087   9.445  0.5434 -0.5430 -0.2184
  120OSM   H11S12685   4.471   6.103   9.484  0.3300 -2.9327  1.5510
  120OSM   H11T12686   4.336   6.187   9.407  2.1354  0.5184  1.0836
  120OSM   C12S12687   4.399   5.995   9.330 -0.1140  0.9612  0.3090
  120OSM   H12S12688   4.419   5.892   9.365  3.4108  0.5145 -2.3971
  120OSM   H12T12689   4.493   6.029   9.281  0.9568 -0.0238  1.6069
  120OSM   C13S12690   4.288   5.999   9.222  0.4425  0.4408 -0.5875
  120OSM   H13S12691   4.252   6.104   9.228  1.0756  0.5851  2.1641
  120OSM   H13T12692   4.210   5.933   9.267  0.5941 -0.1991 -1.2499
  120OSM   C14S12693   4.327   5.972   9.074  0.4541 -0.3621 -0.0687
  120OSM   H14S12694   4.437   5.978   9.054  0.2446  1.0043 -0.9093
  120OSM   H14T12695   4.279   6.042   9.002 -1.8587  0.2936  2.0114
  120OSM   C15S12696   4.283   5.829   9.043 -0.8838  0.1513 -0.7901
  120OSM   H15S12697   4.173   5.820   9.059 -0.9233 -0.4436 -1.3486
  120OSM   H15T12698   4.330   5.761   9.116  0.1702  2.7244  1.0641
  120OSM   C16S12699   4.320   5.796   8.901 -0.4957  0.4751 -0.3536
  120OSM   H16S12700   4.423   5.839   8.891 -1.6356  4.1934  1.6451
  120OSM   H16T12701   4.250   5.844   8.829 -1.6451  0.8977  0.9915
  120OSM   C17S12702   4.310   5.645   8.869  0.1402 -0.2857 -0.3016
  120OSM   H17S12703   4.209   5.618   8.907  0.1381 -1.2762 -0.9521
  120OSM   H17T12704   4.387   5.586   8.921 -0.4096 -1.5570 -0.8888
  120OSM   C18S12705   4.331   5.619   8.719 -0.3803  0.1047  0.7517
  120OSM   H18S12706   4.312   5.512   8.695  1.4014 -0.0729 -0.0498
  120OSM   H18T12707   4.436   5.633   8.683  0.3233 -1.2723  2.1294
  120OSM   H18U12708   4.266   5.689   8.664  0.1227  0.3816  0.4967
  120OSM    C1F12709   4.523   6.285  10.288 -0.5371  0.2349 -0.1821
  120OSM     OF12710   4.591   6.192  10.335 -0.3730  0.2585  0.2312
  120OSM    C2F12711   4.593   6.375  10.184 -0.2425  0.2299  0.9625
  120OSM    H2F12712   4.701   6.349  10.189 -0.9577 -3.3113  0.3836
  120OSM    H2G12713   4.578   6.485  10.185  3.4983  1.0148 -2.6410
  120OSM    C3F12714   4.534   6.352  10.036  0.1848 -0.3487 -0.0583
  120OSM    H3F12715   4.425   6.369  10.029  0.2579  0.6052  0.9791
  120OSM    H3G12716   4.562   6.255   9.989  2.5755  1.6036 -3.0870
  120OSM    C4F12717   4.592   6.448   9.931  0.4710  0.6719  0.2193
  120OSM    H4F12718   4.703   6.439   9.936  0.4948  1.0850  0.3870
  120OSM    H4G12719   4.564   6.554   9.945 -0.3018  0.3289  1.4020
  120OSM    C5F12720   4.543   6.412   9.788  0.1058  0.3944  0.0711
  120OSM    H5F12721   4.434   6.434   9.786  0.1278  0.4871 -0.4974
  120OSM    H5G12722   4.561   6.305   9.764 -1.4765  0.5059 -1.8465
  120OSM    C6F12723   4.603   6.505   9.683  0.0859  0.6589 -0.1294
  120OSM    H6F12724   4.714   6.494   9.683  0.1213  0.8804  1.0899
  120OSM    H6G12725   4.572   6.611   9.699 -1.2036  0.7305 -2.5211
  120OSM    C7F12726   4.571   6.460   9.535 -0.6841 -0.2927 -0.0945
  120OSM    H7F12727   4.466   6.492   9.519 -0.4563 -0.1070 -1.2814
  120OSM    H7G12728   4.578   6.350   9.518  1.3153 -0.3509  0.7925
  120OSM    C8F12729   4.649   6.537   9.420  0.0769 -0.1563 -1.1616
  120OSM    H8F12730   4.662   6.639   9.462  2.6357 -1.2356  0.9179
  120OSM    H8G12731   4.570   6.550   9.343 -1.9128  1.0271  0.9147
  120OSM    C9F12732   4.779   6.476   9.369 -0.1179  0.1811 -0.4790
  120OSM    H9F12733   4.825   6.414   9.448 -1.2828  2.0585  1.7975
  120OSM   C10F12734   4.832   6.487   9.250  0.2291 -0.1084 -0.3654
  120OSM   H10F12735   4.924   6.431   9.230 -0.4052 -0.4636 -2.5193
  120OSM   C11F12736   4.781   6.563   9.135 -0.7506  0.1101  0.8286
  120OSM   H11F12737   4.866   6.614   9.084 -1.4507  1.3622  0.8554
  120OSM   H11G12738   4.710   6.641   9.172  1.2525  1.3382  2.3158
  120OSM   C12F12739   4.707   6.489   9.018 -0.1802 -0.7366 -0.7504
  120OSM   H12F12740   4.775   6.411   8.978  0.4844 -1.4231  1.5620
  120OSM   H12G12741   4.699   6.556   8.930  0.7401  0.7127  0.2104
  120OSM   C13F12742   4.569   6.438   9.056  0.1248 -0.0664  0.8035
  120OSM   H13F12743   4.516   6.520   9.109 -1.0415 -0.3487  0.1041
  120OSM   H13G12744   4.563   6.348   9.121 -0.1767  2.7609  5.0232
  120OSM   C14F12745   4.497   6.395   8.921  0.6398 -0.1275  0.7475
  120OSM   H14F12746   4.555   6.316   8.867 -1.2387 -3.0371  2.6980
  120OSM   H14G12747   4.473   6.484   8.860 -1.6051 -0.0093  1.7129
  120OSM   C15F12748   4.357   6.332   8.942  0.0553 -0.7319 -0.0267
  120OSM   H15F12749   4.362   6.253   9.020 -1.7603 -1.6175 -0.7580
  120OSM   H15G12750   4.325   6.286   8.847 -2.1166  2.2180 -0.8709
  120OSM   C16F12751   4.250   6.440   8.973  0.2937  0.1540  0.3312
  120OSM   H16F12752   4.233   6.492   8.877 -0.5066  0.1207  0.4493
  120OSM   H16G12753   4.297   6.502   9.052  1.2259 -2.0454  1.5936
  120OSM   C17F12754   4.110   6.382   9.019  0.3180 -0.0243  0.5197
  120OSM   H17F12755   4.127   6.314   9.106  2.7984 -0.1618  0.0108
  120OSM   H17G12756   4.074   6.311   8.942 -0.6528  1.0619 -0.0594
  120OSM   C18F12757   4.012   6.502   9.040 -0.1707  0.1256 -0.3509
  120OSM   H18F12758   3.905   6.481   9.061  0.0165 -1.6257 -0.9902
  120OSM   H18G12759   4.007   6.556   8.943 -0.9805  1.7233  0.5294
  120OSM   H18H12760   4.046   6.574   9.118 -1.8403  1.0034 -0.3930
  121OSM      N12761   4.180   2.554  10.965 -0.2657  0.4551  0.5955
  121OSM    C1512762   4.244   2.481  11.082  0.2593  0.1400 -0.8685
  121OSM   H15A12763   4.198   2.383  11.086 -1.5812  1.0159  1.7054
  121OSM   H15B12764   4.209   2.528  11.172  1.0475 -1.5925  0.3985
  121OSM   H15C12765   4.349   2.474  11.061  0.2448  2.4567 -2.0936
  121OSM    C1412766   4.229   2.480  10.848  0.5268  0.5799  0.4604
  121OSM   H14A12767   4.336   2.473  10.835  0.1974 -0.7976 -2.0302
  121OSM   H14B12768   4.188   2.538  10.767 -3.8651 -1.4380  0.9265
  121OSM   H14C12769   4.190   2.384  10.817 -0.0069  1.3837 -1.5000
  121OSM    C1312770   4.029   2.540  10.966 -0.2354  0.1537 -0.6185
  121OSM   H13A12771   4.010   2.437  10.992 -0.1155  0.2209 -0.2678
  121OSM   H13B12772   3.987   2.550  10.867 -1.9826 -0.2580  0.0437
  121OSM   H13C12773   3.986   2.618  11.028  0.1033 -0.3881  0.3131
  121OSM    C1212774   4.217   2.699  10.967 -0.3004 -1.0575  0.2680
  121OSM   H12A12775   4.208   2.737  11.068  1.2083 -2.1870  0.8736
  121OSM   H12B12776   4.151   2.756  10.904  1.0485 -1.8724 -2.0120
  121OSM    C1112777   4.366   2.723  10.937  0.2885  0.3896 -0.0216
  121OSM   H11A12778   4.395   2.831  10.944  0.4848  0.3362 -0.0077
  121OSM   H11B12779   4.396   2.688  10.836  2.1589 -0.2557  0.7163
  121OSM      P12780   4.537   2.706  11.135  0.4153  0.7918  0.1318
  121OSM    O1312781   4.439   2.743  11.240  0.6371 -0.3370 -0.0295
  121OSM    O1412782   4.638   2.604  11.174 -0.1134 -0.1859 -0.5256
  121OSM    O1112783   4.608   2.838  11.087 -0.1857  0.4199  0.4308
  121OSM    O1212784   4.459   2.650  11.016 -0.3404 -0.0454  0.0997
  121OSM    C1S12785   4.688   2.834  10.972 -0.0358 -0.1623  0.2433
  121OSM    H1S12786   4.652   2.761  10.896 -0.8525 -1.4471  1.8000
  121OSM    H1T12787   4.786   2.794  11.006  0.6488  1.7704  0.6633
  121OSM     NF12788   4.776   2.963  10.775  0.1576  0.1645  0.3098
  121OSM    HNF12789   4.872   2.986  10.771  0.5156 -1.2965 -3.2650
  121OSM    C2S12790   4.715   2.970  10.907  0.4505  0.0352  0.2050
  121OSM    H2S12791   4.616   3.018  10.890  0.4433 -0.6426 -1.9755
  121OSM    C3S12792   4.795   3.066  11.005 -0.3528 -0.4458  0.8509
  121OSM    H3S12793   4.897   3.021  11.011 -0.4624 -0.5521  2.1741
  121OSM     O312794   4.738   3.073  11.133  0.3081  0.4061  0.0420
  121OSM    HO312795   4.693   2.990  11.152 -1.3162  1.1125 -0.5489
  121OSM    C4S12796   4.818   3.207  10.948 -0.8070  0.1276  0.0540
  121OSM    H4S12797   4.917   3.223  10.904 -1.2116  1.1063 -0.5346
  121OSM    C5S12798   4.727   3.305  10.948  0.0372 -0.1496  0.1807
  121OSM    H5S12799   4.632   3.283  11.000  0.4039  0.3611  1.0980
  121OSM    C6S12800   4.747   3.437  10.884 -0.0641 -0.1006  0.0367
  121OSM    H6S12801   4.852   3.471  10.880  0.8946 -2.8703 -0.5092
  121OSM    H6T12802   4.700   3.521  10.940  1.2704  1.1414 -0.6397
  121OSM    C7S12803   4.663   3.451  10.752  0.3728  0.9377  0.0626
  121OSM    H7S12804   4.682   3.554  10.716 -0.0244  0.8056 -0.5557
  121OSM    H7T12805   4.558   3.445  10.789  0.8344  2.8983  1.8713
  121OSM    C8S12806   4.699   3.356  10.643 -0.4901 -1.0633  0.3682
  121OSM    H8S12807   4.710   3.250  10.673 -2.1835 -2.0363 -2.1065
  121OSM    H8T12808   4.803   3.389  10.620 -0.5199 -0.4243  1.1206
  121OSM    C9S12809   4.608   3.377  10.515 -0.1568 -0.0750 -0.1780
  121OSM    H9S12810   4.605   3.485  10.486 -0.9487 -0.0499 -0.0249
  121OSM    H9T12811   4.513   3.329  10.544  0.4298 -1.0200  0.2469
  121OSM   C10S12812   4.666   3.302  10.397 -0.0126 -0.3874 -0.0603
  121OSM   H10S12813   4.628   3.198  10.407  1.5386 -0.8398  1.6317
  121OSM   H10T12814   4.776   3.310  10.405 -0.2573  3.1329  2.1125
  121OSM   C11S12815   4.626   3.361  10.265 -0.5337  0.0518 -0.3692
  121OSM   H11S12816   4.629   3.473  10.262  1.6720  0.0491  0.2199
  121OSM   H11T12817   4.520   3.332  10.247 -0.6806  0.8864 -0.9525
  121OSM   C12S12818   4.710   3.307  10.143 -0.0040  0.0827 -0.7272
  121OSM   H12S12819   4.691   3.200  10.124 -0.1448 -0.4239  1.8548
  121OSM   H12T12820   4.820   3.322  10.149  0.0384 -0.6740  1.3139
  121OSM   C13S12821   4.672   3.388  10.019 -0.3458 -0.0528 -0.7070
  121OSM   H13S12822   4.694   3.496  10.033  1.0104 -0.3544 -0.3131
  121OSM   H13T12823   4.568   3.364   9.990  0.1413  0.0838 -2.7513
  121OSM   C14S12824   4.754   3.328   9.906 -0.0821  0.0658  0.3301
  121OSM   H14S12825   4.728   3.221   9.895  1.6277 -0.4804  1.2255
  121OSM   H14T12826   4.863   3.334   9.923 -0.2329  2.1476  0.8539
  121OSM   C15S12827   4.729   3.383   9.765 -0.0274  0.1239 -0.0458
  121OSM   H15S12828   4.759   3.490   9.762  1.2348 -0.2214 -2.5437
  121OSM   H15T12829   4.624   3.370   9.731 -0.2010 -0.3512  0.6718
  121OSM   C16S12830   4.822   3.313   9.655  0.2825  0.4965  0.0955
  121OSM   H16S12831   4.810   3.203   9.660 -0.3315  0.5811  0.4310
  121OSM   H16T12832   4.928   3.343   9.669  1.0838 -1.2540 -1.6587
  121OSM   C17S12833   4.786   3.373   9.507 -0.1872 -0.2404 -1.1481
  121OSM   H17S12834   4.799   3.483   9.511  2.0518 -0.4440 -1.2150
  121OSM   H17T12835   4.682   3.346   9.478 -0.6236  0.9755 -0.7620
  121OSM   C18S12836   4.883   3.325   9.408  0.0458  0.6430  0.4840
  121OSM   H18S12837   4.837   3.354   9.312  0.2695  2.2979  0.8485
  121OSM   H18T12838   4.894   3.215   9.419 -0.7240  0.7203  2.4984
  121OSM   H18U12839   4.981   3.377   9.412  0.3241  0.5102 -2.3394
  121OSM    C1F12840   4.725   2.910  10.668 -0.9952 -0.2277 -0.1086
  121OSM     OF12841   4.602   2.898  10.666 -0.7300 -0.0569  0.4456
  121OSM    C2F12842   4.817   2.873  10.565  0.2502  0.3110  0.5633
  121OSM    H2F12843   4.875   2.782  10.595  0.6042 -0.2386 -1.6037
  121OSM    H2G12844   4.897   2.948  10.545  0.3867 -0.1890 -0.8970
  121OSM    C3F12845   4.749   2.863  10.424  0.3946 -0.1776  0.3326
  121OSM    H3F12846   4.672   2.943  10.416 -0.2864 -0.5941  2.2669
  121OSM    H3G12847   4.698   2.764  10.423  2.8676 -1.5240  1.0865
  121OSM    C4F12848   4.846   2.857  10.302  0.1307  0.2449  0.4912
  121OSM    H4F12849   4.903   2.761  10.302 -0.5695 -0.2042 -0.8220
  121OSM    H4G12850   4.917   2.941  10.314  0.9051 -0.0542 -1.5625
  121OSM    C5F12851   4.783   2.876  10.161 -0.3936  0.2340 -0.5468
  121OSM    H5F12852   4.700   2.950  10.168  0.7255  1.4141  0.8821
  121OSM    H5G12853   4.746   2.777  10.127  0.4013  0.1828 -1.2855
  121OSM    C6F12854   4.887   2.914  10.059 -0.4406 -0.7440  1.4355
  121OSM    H6F12855   4.969   2.840  10.047 -0.9009 -1.1621  0.7812
  121OSM    H6G12856   4.943   3.005  10.088 -0.4478 -0.4215  0.4728
  121OSM    C7F12857   4.831   2.931   9.915 -0.0285  0.6461  1.0986
  121OSM    H7F12858   4.729   2.973   9.928 -0.6094 -1.1057  2.7807
  121OSM    H7G12859   4.820   2.826   9.880  0.9274  0.9333 -0.0866
  121OSM    C8F12860   4.927   3.006   9.819  0.4348  0.2806 -0.3692
  121OSM    H8F12861   4.952   3.110   9.849 -2.7222  0.5078  2.0333
  121OSM    H8G12862   4.867   3.008   9.726  0.5902 -1.5357 -0.5323
  121OSM    C9F12863   5.053   2.931   9.798 -0.4633  0.3142  0.0434
  121OSM    H9F12864   5.106   2.900   9.889 -0.6035 -1.4133 -0.4187
  121OSM   C10F12865   5.092   2.881   9.677  0.7238  0.0616 -0.9980
  121OSM   H10F12866   5.177   2.811   9.679  0.7820  0.0004  3.1639
  121OSM   C11F12867   5.018   2.907   9.546  0.3107  0.2538 -0.5029
  121OSM   H11F12868   5.021   3.013   9.511  1.8766 -0.2194 -1.9061
  121OSM   H11G12869   4.915   2.867   9.561  0.3425  0.7180  1.1152
  121OSM   C12F12870   5.053   2.823   9.425 -0.2006  0.4528 -0.0639
  121OSM   H12F12871   5.072   2.718   9.457  0.7075  0.3905 -0.7637
  121OSM   H12G12872   5.147   2.852   9.374  0.2551 -0.0510  0.4694
  121OSM   C13F12873   4.942   2.810   9.321 -0.7124 -0.6099 -0.2076
  121OSM   H13F12874   4.905   2.913   9.300  0.3434 -0.1088  0.3418
  121OSM   H13G12875   4.855   2.745   9.345 -0.1926 -2.5829 -3.1246
  121OSM   C14F12876   4.995   2.740   9.192 -0.4416  0.2129 -0.0960
  121OSM   H14F12877   5.002   2.631   9.214 -3.5968  0.3926  2.5803
  121OSM   H14G12878   5.086   2.787   9.149  1.4034 -1.9630  1.1613
  121OSM   C15F12879   4.887   2.740   9.085  0.4800 -0.5818 -0.4977
  121OSM   H15F12880   4.838   2.832   9.048 -0.2703 -1.0844 -0.7857
  121OSM   H15G12881   4.801   2.687   9.132 -0.7047 -0.0997 -2.0472
  121OSM   C16F12882   4.941   2.676   8.956  1.1537 -0.8147  0.1589
  121OSM   H16F12883   4.996   2.581   8.972  1.1228 -0.9446 -0.4691
  121OSM   H16G12884   5.019   2.747   8.922  0.0323  0.1572 -0.4802
  121OSM   C17F12885   4.823   2.663   8.854 -0.1369  0.2450 -0.1305
  121OSM   H17F12886   4.862   2.680   8.751 -0.5803 -2.1794 -0.7452
  121OSM   H17G12887   4.747   2.743   8.868 -0.8533 -0.1693 -1.4227
  121OSM   C18F12888   4.766   2.517   8.875 -0.4440 -0.1809  0.0020
  121OSM   H18F12889   4.697   2.482   8.795 -0.0073 -0.4615 -0.2549
  121OSM   H18G12890   4.712   2.504   8.972  4.0498 -0.8709  2.7091
  121OSM   H18H12891   4.848   2.443   8.883  0.6185  1.1371  3.3826
  122OSM      N12892   6.394   0.107  11.071  0.2352  0.0371  0.5536
  122OSM    C1512893   6.524   0.131  11.008  0.0609 -0.1314 -0.5774
  122OSM   H15A12894   6.534   0.233  10.973  4.9290  0.5560  1.8310
  122OSM   H15B12895   6.545   0.059  10.930  1.3295 -0.2133 -0.1985
  122OSM   H15C12896   6.595   0.112  11.088 -1.5811 -0.1830  0.9403
  122OSM    C1412897   6.397   0.172  11.208 -0.2717  0.5349  0.0829
  122OSM   H14A12898   6.473   0.134  11.274 -3.2239 -1.8462  2.4478
  122OSM   H14B12899   6.309   0.142  11.263  0.6292 -1.3600  0.5607
  122OSM   H14C12900   6.406   0.279  11.197 -1.2430  0.5611 -0.5622
  122OSM    C1312901   6.291   0.180  10.992  0.7645 -0.8252  0.2729
  122OSM   H13A12902   6.297   0.158  10.887  1.4258 -0.0057  0.1265
  122OSM   H13B12903   6.306   0.286  11.009 -1.4696  0.2287 -3.3488
  122OSM   H13C12904   6.191   0.154  11.022  0.6369  0.6233  1.2019
  122OSM    C1212905   6.363  -0.044  11.074 -0.3772 -0.5004 -0.7131
  122OSM   H12A12906   6.287  -0.064  11.148 -0.6780 -0.8102 -1.1003
  122OSM   H12B12907   6.445  -0.101  11.117 -0.4289 -0.4208 -0.5056
  122OSM    C1112908   6.340  -0.116  10.943  1.2129  0.6853  0.2408
  122OSM   H11A12909   6.266  -0.052  10.892  0.3707 -0.2778  0.2238
  122OSM   H11B12910   6.305  -0.220  10.961  0.4306  0.9968  0.5652
  122OSM      P12911   6.580  -0.203  10.887 -0.0242  0.0870 -0.0412
  122OSM    O1312912   6.701  -0.139  10.838 -0.2744 -0.3584 -0.1890
  122OSM    O1412913   6.582  -0.260  11.027 -0.6335  0.3508  0.0501
  122OSM    O1112914   6.528  -0.302  10.772 -0.0392 -0.2178  0.0509
  122OSM    O1212915   6.460  -0.102  10.870 -0.1542 -0.3804  0.1727
  122OSM    C1S12916   6.480  -0.257  10.643 -0.1435 -0.4434 -1.0335
  122OSM    H1S12917   6.562  -0.211  10.583 -1.8710  0.9968 -2.4080
  122OSM    H1T12918   6.413  -0.169  10.653  1.3256  0.4514  2.1893
  122OSM     NF12919   6.382  -0.311  10.426 -0.6326 -0.1911  0.1241
  122OSM    HNF12920   6.290  -0.278  10.408 -0.6167 -1.5839 -3.1314
  122OSM    C2S12921   6.409  -0.365  10.563  0.0178 -0.1304 -0.0003
  122OSM    H2S12922   6.483  -0.448  10.555 -0.3804 -0.4020 -0.9778
  122OSM    C3S12923   6.284  -0.412  10.643  0.1235 -0.3174 -0.1742
  122OSM    H3S12924   6.220  -0.323  10.658 -2.1327 -2.2877  3.4547
  122OSM     O312925   6.308  -0.458  10.780 -0.5652  0.4227 -0.2160
  122OSM    HO312926   6.393  -0.416  10.798 -1.3327  1.3957  1.2625
  122OSM    C4S12927   6.220  -0.527  10.575 -1.0006  0.2619 -0.2623
  122OSM    H4S12928   6.278  -0.617  10.600 -3.0444 -0.7463  1.1020
  122OSM    C5S12929   6.094  -0.531  10.519 -0.6532 -0.5880  0.2848
  122OSM    H5S12930   6.025  -0.447  10.533  1.0991  0.7440  1.4236
  122OSM    C6S12931   6.037  -0.645  10.444  0.5645  0.1418  0.1443
  122OSM    H6S12932   5.954  -0.603  10.382 -0.5944 -2.8820 -0.5226
  122OSM    H6T12933   5.980  -0.705  10.518 -0.1187  1.4608  0.7145
  122OSM    C7S12934   6.126  -0.737  10.350  0.3855 -0.5883 -0.5932
  122OSM    H7S12935   6.047  -0.806  10.313 -1.5398  0.5282  1.2603
  122OSM    H7T12936   6.202  -0.800  10.402  0.9680  1.5497  1.2903
  122OSM    C8S12937   6.192  -0.664  10.237 -0.0582 -0.4463  0.0665
  122OSM    H8S12938   6.284  -0.621  10.284 -0.7511 -2.0831  3.2110
  122OSM    H8T12939   6.131  -0.577  10.205  0.5209  0.2460  0.8104
  122OSM    C9S12940   6.210  -0.746  10.109  0.3307  0.0704  0.2252
  122OSM    H9S12941   6.108  -0.776  10.076  1.2948 -1.2280 -1.7799
  122OSM    H9T12942   6.270  -0.835  10.140 -0.0594  0.3383  1.8811
  122OSM   C10S12943   6.278  -0.675   9.995 -0.3115  0.4904 -0.0861
  122OSM   H10S12944   6.372  -0.626  10.028 -2.0463  2.0092  3.1168
  122OSM   H10T12945   6.211  -0.589   9.975 -0.5215  1.8618  5.0294
  122OSM   C11S12946   6.307  -0.765   9.872  0.1038  0.1122  0.2387
  122OSM   H11S12947   6.206  -0.806   9.850  0.9123 -0.4442 -2.9435
  122OSM   H11T12948   6.374  -0.852   9.888 -1.5840 -1.7925 -2.2003
  122OSM   C12S12949   6.356  -0.691   9.756 -0.0042 -0.1906 -0.0439
  122OSM   H12S12950   6.455  -0.641   9.763  0.2903 -0.6381 -0.8098
  122OSM   H12T12951   6.286  -0.609   9.730  0.8358 -0.1066 -2.3066
  122OSM   C13S12952   6.381  -0.787   9.640  0.0009 -0.1256  0.2032
  122OSM   H13S12953   6.281  -0.827   9.611  0.2978  0.9802 -2.6746
  122OSM   H13T12954   6.447  -0.866   9.681 -0.6356  0.3214  2.2483
  122OSM   C14S12955   6.454  -0.718   9.522 -1.2510 -0.1347  0.1429
  122OSM   H14S12956   6.537  -0.655   9.561 -0.8044  0.5303 -1.7874
  122OSM   H14T12957   6.387  -0.641   9.478  0.6933  2.1947  1.0263
  122OSM   C15S12958   6.516  -0.821   9.433 -0.5154 -0.8787  0.8892
  122OSM   H15S12959   6.534  -0.907   9.501  1.1805  0.2783  1.9616
  122OSM   H15T12960   6.610  -0.782   9.390 -1.7716  0.8996 -0.3897
  122OSM   C16S12961   6.429  -0.857   9.305  0.4217 -0.3782 -0.2472
  122OSM   H16S12962   6.405  -0.760   9.256  0.3397 -1.2457 -1.9950
  122OSM   H16T12963   6.329  -0.888   9.342 -0.0602  2.0948  0.7284
  122OSM   C17S12964   6.479  -0.962   9.206 -0.4071 -0.8061  0.2226
  122OSM   H17S12965   6.392  -0.995   9.145 -0.6399  0.5398 -0.1953
  122OSM   H17T12966   6.506  -1.048   9.271 -0.8997 -1.3056 -0.2124
  122OSM   C18S12967   6.600  -0.926   9.122 -0.2765  0.5775  0.3400
  122OSM   H18S12968   6.573  -0.835   9.063 -2.3872  0.3732  0.9372
  122OSM   H18T12969   6.623  -1.013   9.057  1.1541 -0.5886  2.3080
  122OSM   H18U12970   6.688  -0.908   9.188  0.5423 -1.1218 -0.2274
  122OSM    C1F12971   6.476  -0.298  10.332  0.0539  0.3004 -1.0579
  122OSM     OF12972   6.589  -0.357  10.342 -0.3551  0.4501  1.1255
  122OSM    C2F12973   6.432  -0.222  10.213 -0.2899 -0.3730  0.1530
  122OSM    H2F12974   6.479  -0.122  10.217 -0.5477 -0.2349 -0.1641
  122OSM    H2G12975   6.322  -0.201  10.212 -0.4669 -1.1998  1.0673
  122OSM    C3F12976   6.465  -0.301  10.082 -0.5318  0.2226  0.8829
  122OSM    H3F12977   6.423  -0.404  10.085  0.6782 -0.4536 -2.2318
  122OSM    H3G12978   6.576  -0.312  10.082 -0.1765  3.0325  0.1735
  122OSM    C4F12979   6.431  -0.228   9.948 -0.2015 -0.5402  0.8971
  122OSM    H4F12980   6.483  -0.133   9.924  1.8680 -1.4354  1.6211
  122OSM    H4G12981   6.322  -0.211   9.958  0.0974  1.4189  1.1165
  122OSM    C5F12982   6.458  -0.318   9.826 -1.1036  0.0789 -0.0290
  122OSM    H5F12983   6.403  -0.414   9.843 -2.2979  1.2173  3.6079
  122OSM    H5G12984   6.568  -0.331   9.820 -0.8549  0.8401  2.0219
  122OSM    C6F12985   6.417  -0.262   9.683  0.3183 -0.5676  0.1500
  122OSM    H6F12986   6.464  -0.165   9.658  1.2671 -1.3741 -1.3430
  122OSM    H6G12987   6.309  -0.240   9.694  0.5917  0.2397  1.4923
  122OSM    C7F12988   6.449  -0.360   9.575  0.1103  0.4556 -0.3202
  122OSM    H7F12989   6.388  -0.453   9.582  1.7461 -0.8116 -1.8477
  122OSM    H7G12990   6.555  -0.393   9.572  0.2293  0.8922 -1.0718
  122OSM    C8F12991   6.418  -0.303   9.438 -0.7980 -0.1707 -0.1218
  122OSM    H8F12992   6.455  -0.199   9.428  2.7423 -1.2575  0.2210
  122OSM    H8G12993   6.308  -0.307   9.420 -0.8008 -1.0116  0.0223
  122OSM    C9F12994   6.462  -0.390   9.327 -0.3732 -0.0052 -0.9443
  122OSM    H9F12995   6.410  -0.487   9.332  0.3506 -0.3824 -0.6245
  122OSM   C10F12996   6.558  -0.364   9.240 -0.5204  0.0791  0.4133
  122OSM   H10F12997   6.584  -0.434   9.159  1.1817  0.1945  0.8261
  122OSM   C11F12998   6.630  -0.231   9.239 -0.3181  0.0457 -0.2374
  122OSM   H11F12999   6.737  -0.250   9.217  0.2061  1.1329  1.2328
  122OSM   H11G13000   6.619  -0.176   9.334  0.6700 -1.0157  0.5210
  122OSM   C12F13001   6.578  -0.135   9.123 -0.7411 -0.1870  0.1635
  122OSM   H12F13002   6.624  -0.035   9.136 -0.0734  0.0184 -2.9055
  122OSM   H12G13003   6.468  -0.126   9.132 -0.5461  1.0333  1.7769
  122OSM   C13F13004   6.626  -0.181   8.982 -0.4010  0.3655  0.3460
  122OSM   H13F13005   6.603  -0.289   8.966  0.1698  0.1406  0.9838
  122OSM   H13G13006   6.736  -0.175   8.969 -0.5803  1.4060 -0.8078
  122OSM   C14F13007   6.561  -0.105   8.871  0.2597 -0.0127  0.1532
  122OSM   H14F13008   6.590   0.001   8.887  1.7633 -0.5670  1.3663
  122OSM   H14G13009   6.452  -0.122   8.885 -0.5232  1.8358 -2.7475
  122OSM   C15F13010   6.596  -0.146   8.728  0.5041 -0.2345  0.0502
  122OSM   H15F13011   6.553  -0.248   8.712 -0.5636  0.1139  0.5981
  122OSM   H15G13012   6.706  -0.145   8.715  0.4995  0.4188  0.0575
  122OSM   C16F13013   6.531  -0.056   8.627 -0.5520 -0.8835  0.5653
  122OSM   H16F13014   6.559   0.044   8.664  3.4206 -1.7114  0.2434
  122OSM   H16G13015   6.421  -0.073   8.628 -0.4533 -1.8928 -1.0544
  122OSM   C17F13016   6.587  -0.071   8.484  0.2200 -0.6239 -0.0230
  122OSM   H17F13017   6.595  -0.177   8.452 -1.8553 -1.5282  2.1480
  122OSM   H17G13018   6.689  -0.030   8.498 -0.7005  1.2602  1.7223
  122OSM   C18F13019   6.511   0.005   8.379  0.6958 -0.2377 -0.0231
  122OSM   H18F13020   6.461  -0.071   8.315  1.4374 -0.0004 -0.8972
  122OSM   H18G13021   6.585   0.052   8.310  2.0423 -1.2583  0.6651
  122OSM   H18H13022   6.447   0.089   8.414 -2.4859 -2.0273 -1.1845
  123OSM      N13023   2.765   0.181   6.041 -0.2072  0.2206  0.4825
  123OSM    C1513024   2.629   0.122   6.033  0.4241  0.8638 -0.6952
  123OSM   H15A13025   2.565   0.178   6.099 -0.6125 -0.6915 -0.3415
  123OSM   H15B13026   2.631   0.019   6.067  1.4534  1.2500  0.5181
  123OSM   H15C13027   2.599   0.112   5.930  0.6448  0.5422 -0.7299
  123OSM    C1413028   2.860   0.113   5.938 -0.0648 -0.4247  0.1782
  123OSM   H14A13029   2.813   0.108   5.841 -0.6766 -0.8006  0.4920
  123OSM   H14B13030   2.890   0.015   5.970  0.6691 -0.0302  0.7565
  123OSM   H14C13031   2.956   0.162   5.930  1.0228 -2.3752  0.6767
  123OSM    C1313032   2.749   0.320   5.997 -0.5824  0.0047  0.6638
  123OSM   H13A13033   2.712   0.340   5.897  1.7292  0.9846 -0.0477
  123OSM   H13B13034   2.840   0.377   6.008 -0.2064 -0.0969 -1.4354
  123OSM   H13C13035   2.695   0.376   6.072  0.6869  2.2366  0.0003
  123OSM    C1213036   2.825   0.178   6.175 -0.3260 -0.3536 -0.3664
  123OSM   H12A13037   2.760   0.231   6.243 -1.4780 -1.3528 -0.6575
  123OSM   H12B13038   2.916   0.237   6.180 -1.9387  2.2624  3.9419
  123OSM    C1113039   2.858   0.044   6.243 -0.1592  0.6486  0.1157
  123OSM   H11A13040   2.890   0.049   6.349 -1.6233 -0.0718  0.6166
  123OSM   H11B13041   2.948   0.009   6.188  2.7203  4.2815  2.1037
  123OSM      P13042   2.639  -0.048   6.344  0.2553  0.2398 -0.3364
  123OSM    O1313043   2.601   0.089   6.374 -0.4276 -0.3661 -0.3366
  123OSM    O1413044   2.519  -0.127   6.297 -0.4227  0.2749  0.1527
  123OSM    O1113045   2.698  -0.119   6.482  0.0466 -0.4669 -0.0679
  123OSM    O1213046   2.757  -0.055   6.236  0.0730  0.3651 -0.0520
  123OSM    C1S13047   2.772  -0.242   6.476 -0.2843 -0.5442 -0.5267
  123OSM    H1S13048   2.837  -0.256   6.388 -0.8715  1.5140 -1.3499
  123OSM    H1T13049   2.699  -0.324   6.460 -0.5410 -0.0237 -2.2361
  123OSM     NF13050   2.956  -0.359   6.601  0.2116 -0.2696  0.3648
  123OSM    HNF13051   2.926  -0.450   6.629 -0.1826  0.1819  1.4707
  123OSM    C2S13052   2.855  -0.254   6.609  0.3155 -0.0035  0.0823
  123OSM    H2S13053   2.915  -0.161   6.620  1.5009 -0.5064 -1.8463
  123OSM    C3S13054   2.765  -0.275   6.732 -0.0800  0.0420  0.9056
  123OSM    H3S13055   2.695  -0.362   6.728  2.0586 -1.7386  0.2322
  123OSM     O313056   2.676  -0.167   6.754  0.4811 -0.7885  0.3166
  123OSM    HO313057   2.664  -0.131   6.666 -0.5425 -1.0416  0.3424
  123OSM    C4S13058   2.860  -0.275   6.853 -0.2137  0.0350 -0.0604
  123OSM    H4S13059   2.892  -0.378   6.873  0.1017 -0.3172 -2.1584
  123OSM    C5S13060   2.909  -0.168   6.929  0.0852 -0.4123 -0.2892
  123OSM    H5S13061   2.865  -0.070   6.908  0.5289 -0.6998 -3.0442
  123OSM    C6S13062   3.003  -0.167   7.048  0.8040  0.3554 -0.2186
  123OSM    H6S13063   3.042  -0.064   7.068  2.1354 -0.0985 -0.3368
  123OSM    H6T13064   3.096  -0.226   7.030  0.8175  1.1594 -3.3164
  123OSM    C7S13065   2.930  -0.213   7.170  0.6261 -0.0480 -0.4697
  123OSM    H7S13066   2.890  -0.317   7.165 -0.5835  0.4102 -0.6958
  123OSM    H7T13067   2.841  -0.148   7.182  0.1941 -0.6902 -0.1259
  123OSM    C8S13068   3.006  -0.192   7.299 -0.6207  0.0182 -0.8758
  123OSM    H8S13069   2.961  -0.254   7.380 -1.9753  1.8403 -0.1775
  123OSM    H8T13070   3.010  -0.086   7.331 -0.5414  0.4861 -2.3572
  123OSM    C9S13071   3.155  -0.237   7.287  0.4253 -0.3989 -0.5334
  123OSM    H9S13072   3.220  -0.178   7.219  1.2084 -0.0352  0.5114
  123OSM    H9T13073   3.157  -0.337   7.238  2.2619 -0.8718  0.4214
  123OSM   C10S13074   3.239  -0.242   7.420  0.1237  0.7984  0.6030
  123OSM   H10S13075   3.323  -0.306   7.387 -0.0471  1.8130 -2.0149
  123OSM   H10T13076   3.190  -0.300   7.501  1.2513 -0.8269  0.1645
  123OSM   C11S13077   3.296  -0.111   7.463 -0.2642 -0.3591  0.3399
  123OSM   H11S13078   3.212  -0.039   7.474 -0.4418 -0.8037  2.0264
  123OSM   H11T13079   3.360  -0.084   7.376 -0.8390 -0.9154 -0.2759
  123OSM   C12S13080   3.383  -0.130   7.582  0.7574 -0.0894  0.4353
  123OSM   H12S13081   3.447  -0.040   7.596 -0.6521  0.8281  1.2618
  123OSM   H12T13082   3.454  -0.216   7.583 -0.1085 -0.8944 -2.0059
  123OSM   C13S13083   3.295  -0.127   7.711 -0.1776  0.0010 -0.2962
  123OSM   H13S13084   3.229  -0.217   7.709  0.0619 -0.1788 -0.2013
  123OSM   H13T13085   3.222  -0.044   7.705  1.2340  1.3250  0.1661
  123OSM   C14S13086   3.384  -0.119   7.836 -0.7258  0.3709  0.3888
  123OSM   H14S13087   3.446  -0.028   7.850 -0.0349 -0.2182  1.2805
  123OSM   H14T13088   3.456  -0.202   7.821 -0.0059  1.1988 -0.9402
  123OSM   C15S13089   3.295  -0.138   7.962 -0.1434 -0.0951 -0.8038
  123OSM   H15S13090   3.245  -0.238   7.968 -0.4420 -0.0220 -1.7964
  123OSM   H15T13091   3.198  -0.085   7.947 -1.2459 -0.8903  2.6229
  123OSM   C16S13092   3.357  -0.115   8.099 -0.8595 -0.2864  0.2605
  123OSM   H16S13093   3.275  -0.128   8.173 -0.8897  1.4860  0.5712
  123OSM   H16T13094   3.396  -0.012   8.110 -1.7907  0.2610 -1.2805
  123OSM   C17S13095   3.464  -0.220   8.135  0.9749 -0.2699  0.2955
  123OSM   H17S13096   3.439  -0.322   8.096  0.9185 -0.5583  1.0664
  123OSM   H17T13097   3.469  -0.225   8.246  0.7968  2.4523  0.4825
  123OSM   C18S13098   3.605  -0.186   8.103  0.1119  0.5266 -0.3769
  123OSM   H18S13099   3.652  -0.096   8.148  1.7010  0.4213 -1.7515
  123OSM   H18T13100   3.613  -0.167   7.994  0.3281  1.9622 -0.1364
  123OSM   H18U13101   3.668  -0.270   8.139 -3.3085 -2.2329 -0.2970
  123OSM    C1F13102   3.062  -0.348   6.522 -0.3678 -0.0852  0.2442
  123OSM     OF13103   3.076  -0.239   6.460 -0.2462  0.0115 -0.3348
  123OSM    C2F13104   3.152  -0.464   6.516 -0.1721 -0.6010 -0.2668
  123OSM    H2F13105   3.154  -0.506   6.413  2.5695 -0.6816 -0.2526
  123OSM    H2G13106   3.110  -0.547   6.576 -1.4926  1.1631  1.3826
  123OSM    C3F13107   3.295  -0.425   6.562  0.0791 -0.0873  0.7271
  123OSM    H3F13108   3.332  -0.345   6.494 -1.1204 -0.4137 -0.3502
  123OSM    H3G13109   3.371  -0.504   6.541  0.8135  1.4055 -2.9355
  123OSM    C4F13110   3.307  -0.351   6.697  0.5707  0.4227 -0.7160
  123OSM    H4F13111   3.243  -0.405   6.770  1.6461 -0.3943 -0.3559
  123OSM    H4G13112   3.271  -0.246   6.692  0.0079  0.3003  0.4240
  123OSM    C5F13113   3.449  -0.363   6.751  0.0771  0.0238  0.2067
  123OSM    H5F13114   3.516  -0.277   6.730  0.8924 -0.6200  0.1093
  123OSM    H5G13115   3.500  -0.458   6.723  0.0895 -0.6685  2.3707
  123OSM    C6F13116   3.446  -0.382   6.903 -0.0216  0.3414 -0.7744
  123OSM    H6F13117   3.532  -0.443   6.939 -1.1134 -0.0168  1.4374
  123OSM    H6G13118   3.359  -0.443   6.938  1.2325 -1.4853 -0.6784
  123OSM    C7F13119   3.439  -0.257   6.982  1.0643  0.7969 -0.1307
  123OSM    H7F13120   3.338  -0.259   7.028  1.1873  0.4251  0.1309
  123OSM    H7G13121   3.444  -0.165   6.919 -0.7898  1.2660  0.3655
  123OSM    C8F13122   3.540  -0.248   7.090  0.1865 -0.3851 -0.7326
  123OSM    H8F13123   3.531  -0.330   7.165 -1.7279  0.0428 -0.4530
  123OSM    H8G13124   3.523  -0.159   7.154  1.6236 -1.1992  0.8766
  123OSM    C9F13125   3.676  -0.225   7.031  0.0908 -0.0556 -0.0330
  123OSM    H9F13126   3.680  -0.202   6.923  1.0902 -0.3496 -0.0710
  123OSM   C10F13127   3.793  -0.260   7.099 -0.5398  0.2185 -0.0725
  123OSM   H10F13128   3.890  -0.237   7.054  0.3871 -2.2139  0.5411
  123OSM   C11F13129   3.805  -0.318   7.239 -0.0932  0.1405  0.4504
  123OSM   H11F13130   3.879  -0.401   7.239 -0.4658 -0.1975  0.2358
  123OSM   H11G13131   3.706  -0.356   7.273 -0.5071  1.7260  1.1157
  123OSM   C12F13132   3.853  -0.211   7.339  0.6548  0.0979 -0.6419
  123OSM   H12F13133   3.786  -0.122   7.341  1.6721  0.8690  0.3479
  123OSM   H12G13134   3.944  -0.152   7.316 -0.2699  1.3782 -1.1795
  123OSM   C13F13135   3.827  -0.256   7.480 -0.6519  0.2549  0.2203
  123OSM   H13F13136   3.879  -0.353   7.496  1.3791  0.5581 -3.2408
  123OSM   H13G13137   3.720  -0.269   7.506 -1.1732  1.8391 -0.9765
  123OSM   C14F13138   3.885  -0.156   7.582 -0.0118 -0.0839 -0.3044
  123OSM   H14F13139   3.819  -0.068   7.569  0.8688  0.4914 -1.0032
  123OSM   H14G13140   3.989  -0.135   7.549  0.1786 -1.9249 -1.0122
  123OSM   C15F13141   3.864  -0.193   7.721 -0.6113  1.2200 -0.5022
  123OSM   H15F13142   3.774  -0.258   7.722 -0.1414  0.5469  1.2157
  123OSM   H15G13143   3.830  -0.108   7.784 -1.6713 -0.3143  1.0913
  123OSM   C16F13144   3.984  -0.274   7.775  0.3424 -0.4297 -0.2319
  123OSM   H16F13145   4.069  -0.205   7.763  0.6978 -0.8413 -0.1030
  123OSM   H16G13146   3.993  -0.370   7.720 -2.1459 -2.2459  2.2438
  123OSM   C17F13147   3.972  -0.313   7.925  0.1649 -0.0896 -0.4285
  123OSM   H17F13148   3.918  -0.230   7.977  1.2033 -1.1765  2.6191
  123OSM   H17G13149   4.073  -0.316   7.970 -0.3956  1.1284  1.0153
  123OSM   C18F13150   3.888  -0.430   7.973 -0.2187  0.0921  0.0655
  123OSM   H18F13151   3.905  -0.454   8.080 -0.0425  1.0614  0.2630
  123OSM   H18G13152   3.905  -0.521   7.911  0.2376  0.7532 -0.7917
  123OSM   H18H13153   3.780  -0.403   7.972 -0.7431 -1.6811  1.5194
  124OSM      N13154   6.039   4.034   6.459  0.0109  1.3337  0.7543
  124OSM    C1513155   6.010   4.085   6.595  0.9131 -0.1413  0.0152
  124OSM   H15A13156   5.913   4.050   6.624  0.5436  0.8970  0.0749
  124OSM   H15B13157   6.003   4.192   6.606 -1.3900 -0.3664  1.3429
  124OSM   H15C13158   6.080   4.039   6.664  1.2598 -3.5548 -2.3832
  124OSM    C1413159   6.060   3.884   6.453  0.2955  0.0897  0.4336
  124OSM   H14A13160   6.143   3.847   6.512  0.7415 -0.0722 -0.2846
  124OSM   H14B13161   6.083   3.851   6.353  3.6295 -1.2753  1.5221
  124OSM   H14C13162   5.973   3.835   6.494 -0.2634  1.3312  0.7821
  124OSM    C1313163   5.915   4.064   6.392  0.7688  0.2837 -0.0592
  124OSM   H13A13164   5.897   4.170   6.380  1.6261  0.5100  0.5967
  124OSM   H13B13165   5.835   4.009   6.441  0.3978 -2.0051 -2.9304
  124OSM   H13C13166   5.901   4.018   6.295 -0.1926 -2.1993  1.1624
  124OSM    C1213167   6.164   4.090   6.406 -0.1688 -0.2766 -0.2442
  124OSM   H12A13168   6.160   4.084   6.298  0.6648 -0.6157 -0.2598
  124OSM   H12B13169   6.241   4.024   6.442 -0.3776 -1.2295 -1.4746
  124OSM    C1113170   6.194   4.244   6.435  0.0521 -0.6088 -1.0083
  124OSM   H11A13171   6.287   4.278   6.385  2.5247  0.0052  3.4802
  124OSM   H11B13172   6.212   4.261   6.543 -0.8468  0.0082 -0.9528
  124OSM      P13173   6.057   4.483   6.424 -0.1785 -0.0664 -0.3934
  124OSM    O1313174   6.115   4.564   6.303 -0.0373  0.6019  0.4831
  124OSM    O1413175   5.919   4.507   6.460  0.1343 -0.4806  0.4174
  124OSM    O1113176   6.157   4.522   6.547  0.1059  0.7024  1.2982
  124OSM    O1213177   6.086   4.330   6.403 -0.1963  0.1360  0.0940
  124OSM    C1S13178   6.186   4.662   6.584  0.1823  0.0084 -0.2900
  124OSM    H1S13179   6.147   4.742   6.517  2.0694  3.4663  2.4189
  124OSM    H1T13180   6.296   4.671   6.571  0.4035 -2.7289 -0.9610
  124OSM     NF13181   6.156   4.820   6.752 -0.4861 -0.3846 -0.1718
  124OSM    HNF13182   6.241   4.855   6.790 -0.7271 -0.1548  0.1713
  124OSM    C2S13183   6.155   4.679   6.733 -0.0673  0.2639 -0.8614
  124OSM    H2S13184   6.051   4.643   6.751 -1.1035  2.3972 -2.1671
  124OSM    C3S13185   6.255   4.594   6.819 -0.1851 -0.9453 -0.1922
  124OSM    H3S13186   6.355   4.643   6.814 -0.0347 -1.3362 -1.5081
  124OSM     O313187   6.294   4.465   6.771  0.3893 -0.0915 -0.5175
  124OSM    HO313188   6.248   4.474   6.687  1.3472  1.6490 -0.9164
  124OSM    C4S13189   6.220   4.605   6.968 -0.2296  0.6132 -0.2105
  124OSM    H4S13190   6.272   4.690   7.016  1.2629 -1.4562  2.0518
  124OSM    C5S13191   6.155   4.520   7.042  0.2592  0.1478 -0.6935
  124OSM    H5S13192   6.103   4.431   7.002 -0.3741 -1.4713  3.2808
  124OSM    C6S13193   6.127   4.529   7.188  0.1720 -0.3253  0.8545
  124OSM    H6S13194   6.172   4.438   7.232 -0.3852 -1.7784 -1.4152
  124OSM    H6T13195   6.016   4.526   7.194  0.0347 -0.8164 -1.2829
  124OSM    C7S13196   6.181   4.656   7.253  0.2915 -0.4654 -0.6436
  124OSM    H7S13197   6.166   4.751   7.197  1.9497  0.4704  0.3946
  124OSM    H7T13198   6.291   4.644   7.264  0.2459 -1.3628 -1.1107
  124OSM    C8S13199   6.116   4.673   7.394  0.4962 -0.0925  0.1239
  124OSM    H8S13200   6.009   4.701   7.378  0.4106  1.0788  2.3823
  124OSM    H8T13201   6.175   4.753   7.443  2.0384 -1.3758  0.4213
  124OSM    C9S13202   6.117   4.546   7.485  0.3719 -0.3599  0.7462
  124OSM    H9S13203   6.223   4.528   7.514  0.8805 -0.4640 -1.0231
  124OSM    H9T13204   6.072   4.456   7.438 -0.6722  0.8017 -0.5662
  124OSM   C10S13205   6.042   4.589   7.607 -0.4511  0.7319 -0.3521
  124OSM   H10S13206   5.932   4.595   7.594 -0.5495  0.5041  0.3458
  124OSM   H10T13207   6.091   4.685   7.636  0.7191  0.2247 -0.6116
  124OSM   C11S13208   6.055   4.495   7.730  0.3526  0.1106  0.8921
  124OSM   H11S13209   6.151   4.441   7.718 -0.3029 -1.1181  0.9974
  124OSM   H11T13210   5.980   4.414   7.720  0.5344  0.1657 -1.1914
  124OSM   C12S13211   6.039   4.555   7.865 -0.0418  0.4756 -0.3615
  124OSM   H12S13212   6.016   4.463   7.924 -2.4611  0.7670 -0.7763
  124OSM   H12T13213   5.942   4.608   7.871  0.0334  0.6127 -0.3531
  124OSM   C13S13214   6.155   4.638   7.914 -0.2503 -0.1000  0.4361
  124OSM   H13S13215   6.145   4.675   8.018 -0.6806 -0.9370  0.7093
  124OSM   H13T13216   6.160   4.728   7.849 -1.5973 -0.6517 -0.4863
  124OSM   C14S13217   6.299   4.562   7.919 -0.0728 -0.4009 -0.1490
  124OSM   H14S13218   6.316   4.514   7.820 -0.9007  0.4615 -0.7252
  124OSM   H14T13219   6.278   4.481   7.992 -0.2141 -0.0692  0.1817
  124OSM   C15S13220   6.408   4.644   7.981 -0.4357  0.1832  0.4702
  124OSM   H15S13221   6.491   4.576   8.009  0.3899  1.0181  0.0720
  124OSM   H15T13222   6.369   4.697   8.071 -0.0198 -0.1377  0.8383
  124OSM   C16S13223   6.482   4.731   7.875 -1.3426  0.5950 -0.8376
  124OSM   H16S13224   6.415   4.816   7.848 -0.4287  0.8993 -2.2575
  124OSM   H16T13225   6.513   4.674   7.785 -0.3937  0.8212 -0.6602
  124OSM   C17S13226   6.621   4.775   7.924  0.9229  0.1674  0.1869
  124OSM   H17S13227   6.685   4.691   7.957  2.3552  1.1677  0.0654
  124OSM   H17T13228   6.592   4.822   8.021 -0.5528  0.5569 -0.4049
  124OSM   C18S13229   6.702   4.863   7.831 -0.2828 -0.9429  0.0932
  124OSM   H18S13230   6.632   4.928   7.775 -0.9361 -0.2431  1.6695
  124OSM   H18T13231   6.769   4.814   7.757 -1.5347  0.2781 -1.9307
  124OSM   H18U13232   6.770   4.921   7.897 -0.0774  1.0166 -1.7555
  124OSM    C1F13233   6.048   4.892   6.715  0.0952 -0.5501  0.6463
  124OSM     OF13234   5.946   4.837   6.682 -0.1200  0.5046 -0.3121
  124OSM    C2F13235   6.053   5.042   6.706  0.2531  0.0404 -0.0560
  124OSM    H2F13236   6.002   5.066   6.610  1.8818 -2.8429 -1.8314
  124OSM    H2G13237   6.161   5.069   6.714  0.5365 -0.9153 -0.4719
  124OSM    C3F13238   5.986   5.120   6.814  0.2149  0.0394 -0.4734
  124OSM    H3F13239   5.880   5.093   6.831  0.2988 -1.0214 -1.4720
  124OSM    H3G13240   5.994   5.227   6.785 -0.4710 -0.5582 -3.1667
  124OSM    C4F13241   6.044   5.100   6.957  0.9095 -0.0213  0.6285
  124OSM    H4F13242   6.148   5.138   6.953  1.0412 -0.4802 -0.9469
  124OSM    H4G13243   6.046   4.992   6.983 -2.8476 -0.3941 -0.0290
  124OSM    C5F13244   5.959   5.180   7.063 -0.3968  0.0736 -0.2332
  124OSM    H5F13245   5.857   5.135   7.067  0.5751 -2.2807 -0.1740
  124OSM    H5G13246   5.960   5.289   7.047  2.2378  0.0600 -0.5821
  124OSM    C6F13247   6.017   5.155   7.205 -0.5845  0.1763  0.1346
  124OSM    H6F13248   6.122   5.191   7.215 -1.0428  1.2634  1.3360
  124OSM    H6G13249   6.016   5.044   7.219  1.2923 -0.0587 -1.2407
  124OSM    C7F13250   5.935   5.216   7.323  0.1404 -0.1192 -0.2126
  124OSM    H7F13251   5.838   5.162   7.335 -0.6515  1.1039 -0.8019
  124OSM    H7G13252   5.919   5.323   7.297  0.0955 -0.4323 -1.5828
  124OSM    C8F13253   6.017   5.204   7.451 -0.1081 -0.5617  0.3856
  124OSM    H8F13254   5.985   5.286   7.518 -0.7420  0.1037 -0.7159
  124OSM    H8G13255   6.123   5.231   7.431 -0.2048 -0.2921  0.2344
  124OSM    C9F13256   6.014   5.065   7.503 -0.5949 -0.1353 -0.3083
  124OSM    H9F13257   6.063   4.998   7.432 -1.7610  0.0758 -1.3513
  124OSM   C10F13258   5.983   5.010   7.625  0.0369 -0.6404  0.4721
  124OSM   H10F13259   6.003   4.901   7.628  0.5171 -0.6665 -1.7788
  124OSM   C11F13260   5.931   5.072   7.744 -0.3477  0.3752 -0.1028
  124OSM   H11F13261   5.872   5.001   7.807  1.7444 -2.2033 -0.8466
  124OSM   H11G13262   5.854   5.148   7.719 -0.3258 -0.0381 -1.4985
  124OSM   C12F13263   6.033   5.131   7.846  0.5176  1.2258  0.9216
  124OSM   H12F13264   5.973   5.166   7.933 -1.0844 -1.2611  0.9039
  124OSM   H12G13265   6.068   5.222   7.793  0.0646 -0.0024 -1.6048
  124OSM   C13F13266   6.148   5.040   7.887 -0.2920 -0.2357  0.2374
  124OSM   H13F13267   6.212   5.023   7.798  1.2562  0.5151  1.1655
  124OSM   H13G13268   6.107   4.949   7.935  1.0690 -1.2019 -0.3815
  124OSM   C14F13269   6.232   5.110   7.996 -0.5095  0.4525 -0.5633
  124OSM   H14F13270   6.160   5.141   8.075 -0.2800  0.1853 -0.2488
  124OSM   H14G13271   6.279   5.206   7.966 -1.0865  0.9490  0.0824
  124OSM   C15F13272   6.346   5.027   8.052  0.8804  0.4969  0.2251
  124OSM   H15F13273   6.417   5.009   7.969 -3.0572 -0.1208 -3.3767
  124OSM   H15G13274   6.309   4.923   8.068  1.1120 -0.0313 -2.1987
  124OSM   C16F13275   6.428   5.084   8.169  0.3875 -0.1634 -0.6141
  124OSM   H16F13276   6.481   5.179   8.145  0.0929  0.4676  1.1190
  124OSM   H16G13277   6.502   5.005   8.192 -0.0014 -0.4679 -0.3942
  124OSM   C17F13278   6.345   5.107   8.299  0.2494 -0.9276 -0.7502
  124OSM   H17F13279   6.263   5.033   8.296 -1.5124  0.8993  0.2809
  124OSM   H17G13280   6.311   5.212   8.288  2.8516 -0.2168 -3.4436
  124OSM   C18F13281   6.414   5.103   8.434  0.5957  0.0204 -0.5087
  124OSM   H18F13282   6.464   5.008   8.463 -1.1657 -1.5182 -2.1894
  124OSM   H18G13283   6.338   5.130   8.510 -0.7927  0.9729 -2.1516
  124OSM   H18H13284   6.493   5.181   8.436  0.3566  0.2630 -0.5547
  125OSM      N13285   4.637   6.205   6.230 -0.5978 -0.3275 -0.8213
  125OSM    C1513286   4.699   6.173   6.361 -0.3313  0.1431  0.0006
  125OSM   H15A13287   4.786   6.112   6.343 -0.1009 -0.0804  1.6682
  125OSM   H15B13288   4.637   6.115   6.427  0.7928  0.4792  1.4071
  125OSM   H15C13289   4.722   6.258   6.424  0.3243 -1.1246  1.5344
  125OSM    C1413290   4.504   6.268   6.253  0.0048  0.1062 -0.0745
  125OSM   H14A13291   4.512   6.366   6.299 -1.2709 -0.3033  1.0935
  125OSM   H14B13292   4.440   6.211   6.319  0.0587 -1.2133 -1.1231
  125OSM   H14C13293   4.446   6.292   6.165  0.3356  3.6090  0.4912
  125OSM    C1313294   4.720   6.314   6.175 -0.0879  0.4844  0.0627
  125OSM   H13A13295   4.750   6.383   6.252  0.7297 -1.1037  1.2330
  125OSM   H13B13296   4.678   6.362   6.088 -2.0298 -1.8606 -0.4096
  125OSM   H13C13297   4.808   6.265   6.136  0.1044  2.7933 -2.6950
  125OSM    C1213298   4.631   6.088   6.134 -0.8404 -1.0140  0.7572
  125OSM   H12A13299   4.599   6.136   6.042 -0.1766 -0.0826  0.9959
  125OSM   H12B13300   4.555   6.020   6.168 -1.3671  0.1105  1.9138
  125OSM    C1113301   4.759   6.010   6.096 -0.0713  0.1500  0.0438
  125OSM   H11A13302   4.837   6.084   6.069 -2.4464  1.9848 -2.3137
  125OSM   H11B13303   4.763   5.941   6.009  0.4157 -1.7802  1.5168
  125OSM      P13304   4.742   5.793   6.238 -0.1723 -0.3691  0.0528
  125OSM    O1313305   4.593   5.801   6.257 -0.0915  0.2406  0.6163
  125OSM    O1413306   4.788   5.710   6.134 -0.0566 -0.1463  0.6339
  125OSM    O1113307   4.812   5.745   6.365 -0.1521  0.1067  0.1043
  125OSM    O1213308   4.808   5.934   6.209 -0.4696 -0.5398  0.2378
  125OSM    C1S13309   4.801   5.799   6.493 -0.5123  0.1682  0.2220
  125OSM    H1S13310   4.785   5.909   6.483  0.0626  0.4389  2.0763
  125OSM    H1T13311   4.900   5.795   6.542 -0.7326 -1.9104  0.6050
  125OSM     NF13312   4.671   5.802   6.703  1.0374 -0.4951  0.0352
  125OSM    HNF13313   4.682   5.752   6.789 -1.0895 -0.1546  0.5689
  125OSM    C2S13314   4.692   5.732   6.579  0.1167  0.2240 -0.5193
  125OSM    H2S13315   4.600   5.743   6.518 -1.7596 -2.1342  1.6811
  125OSM    C3S13316   4.720   5.575   6.593 -0.9674 -0.0643  1.0149
  125OSM    H3S13317   4.812   5.572   6.656  3.0226  1.8629 -4.0206
  125OSM     O313318   4.757   5.501   6.471  0.2805  0.0004  0.0436
  125OSM    HO313319   4.775   5.581   6.421 -2.1427  1.9020  1.9533
  125OSM    C4S13320   4.595   5.504   6.648 -0.1659 -0.1242 -0.2067
  125OSM    H4S13321   4.506   5.520   6.585  0.5423  0.1107 -1.1808
  125OSM    C5S13322   4.581   5.424   6.758 -0.0675  0.0622 -0.2235
  125OSM    H5S13323   4.667   5.396   6.821 -1.0702 -1.6132  0.4618
  125OSM    C6S13324   4.454   5.371   6.802  0.5249  0.1168  0.5191
  125OSM    H6S13325   4.381   5.413   6.730  0.7007 -0.7921 -0.2066
  125OSM    H6T13326   4.415   5.393   6.904 -0.2563 -2.0411  0.7467
  125OSM    C7S13327   4.443   5.216   6.800  0.4793 -0.5990 -0.1103
  125OSM    H7S13328   4.461   5.170   6.700  1.8547 -2.4479  0.9310
  125OSM    H7T13329   4.340   5.199   6.838 -0.5981 -0.0465 -2.5154
  125OSM    C8S13330   4.541   5.140   6.893  0.5616  0.0881 -0.0353
  125OSM    H8S13331   4.646   5.171   6.873  0.2030  0.6472 -1.1485
  125OSM    H8T13332   4.526   5.033   6.867  0.2708  0.0883  0.1257
  125OSM    C9S13333   4.499   5.144   7.047 -0.0977 -0.3939 -0.4265
  125OSM    H9S13334   4.390   5.127   7.060 -0.5421  1.0256 -2.0776
  125OSM    H9T13335   4.526   5.243   7.090 -0.5282  0.2529 -1.6293
  125OSM   C10S13336   4.589   5.052   7.128  0.6400 -0.1249 -0.7812
  125OSM   H10S13337   4.684   5.110   7.137  0.1114  0.9653 -1.9030
  125OSM   H10T13338   4.594   4.959   7.068 -2.1004  0.1054 -1.4826
  125OSM   C11S13339   4.536   5.040   7.273 -0.1440  0.1776  0.2151
  125OSM   H11S13340   4.431   5.008   7.260  0.5497 -1.3032 -2.6598
  125OSM   H11T13341   4.544   5.146   7.305  0.2593  1.5190 -3.7111
  125OSM   C12S13342   4.634   4.957   7.343 -0.1782 -0.4313 -0.0527
  125OSM   H12S13343   4.743   4.973   7.329 -0.2186  2.0019  1.7113
  125OSM   H12T13344   4.621   4.852   7.310  1.2726 -0.5410 -0.3442
  125OSM   C13S13345   4.599   4.961   7.500 -0.3051 -0.0880  0.2727
  125OSM   H13S13346   4.493   4.993   7.511 -0.0739  0.5003  0.8415
  125OSM   H13T13347   4.674   5.029   7.545  0.1669 -0.8644  0.6882
  125OSM   C14S13348   4.616   4.820   7.555 -0.4322  0.1653 -0.7475
  125OSM   H14S13349   4.723   4.797   7.570 -0.3851  0.6649 -0.2528
  125OSM   H14T13350   4.574   4.750   7.480 -1.9744 -0.3408  0.5160
  125OSM   C15S13351   4.552   4.798   7.691 -0.5961  0.4622 -0.6843
  125OSM   H15S13352   4.571   4.692   7.721  3.8426  1.2033 -0.1845
  125OSM   H15T13353   4.445   4.826   7.689 -1.6971 -3.2153 -1.5291
  125OSM   C16S13354   4.613   4.870   7.814  0.3385  1.0945 -0.0283
  125OSM   H16S13355   4.658   4.968   7.788 -1.0071  1.5057 -0.8834
  125OSM   H16T13356   4.700   4.815   7.856  2.5388  3.5618 -1.0555
  125OSM   C17S13357   4.502   4.899   7.915 -0.0192 -0.0357  0.1772
  125OSM   H17S13358   4.434   4.812   7.929 -0.9978  0.7619  0.4861
  125OSM   H17T13359   4.439   4.972   7.861  0.5395 -1.0209 -1.9149
  125OSM   C18S13360   4.555   4.947   8.053 -0.2064  0.3178 -0.2063
  125OSM   H18S13361   4.607   4.868   8.111  0.7036  0.9750 -0.1111
  125OSM   H18T13362   4.474   4.978   8.122 -0.2906 -3.4297  1.6540
  125OSM   H18U13363   4.632   5.027   8.049 -0.3021  0.5595  1.7984
  125OSM    C1F13364   4.641   5.935   6.698 -0.0680 -0.2758 -0.9834
  125OSM     OF13365   4.592   5.981   6.595 -0.1467 -0.3277  0.7973
  125OSM    C2F13366   4.695   6.019   6.813  0.5929 -0.0942 -0.1469
  125OSM    H2F13367   4.789   6.065   6.777 -0.3640  0.3960 -2.1844
  125OSM    H2G13368   4.718   5.960   6.904  0.0472  2.2974  1.6515
  125OSM    C3F13369   4.596   6.135   6.855 -0.1560 -0.5645 -0.1560
  125OSM    H3F13370   4.496   6.099   6.884 -0.7635  1.1701  0.0380
  125OSM    H3G13371   4.570   6.199   6.768 -0.1934 -1.2403 -0.6534
  125OSM    C4F13372   4.652   6.221   6.978  0.4985 -0.5028  1.1189
  125OSM    H4F13373   4.616   6.326   6.974  2.0538  0.0356 -0.7357
  125OSM    H4G13374   4.762   6.225   6.965  0.3088 -1.0486 -1.0994
  125OSM    C5F13375   4.616   6.145   7.110 -0.0323 -0.3430 -0.5679
  125OSM    H5F13376   4.677   6.053   7.112 -1.0174 -1.0239  2.4111
  125OSM    H5G13377   4.506   6.125   7.114  0.1641 -1.3067  0.3169
  125OSM    C6F13378   4.651   6.234   7.235 -0.6866 -0.6589  0.0389
  125OSM    H6F13379   4.591   6.326   7.218 -0.5735 -0.4173  0.8739
  125OSM    H6G13380   4.755   6.274   7.240 -2.0854  3.4419  0.2887
  125OSM    C7F13381   4.619   6.166   7.369  0.7042 -0.6119  0.1189
  125OSM    H7F13382   4.663   6.064   7.370  1.6961 -0.1946  1.6478
  125OSM    H7G13383   4.509   6.148   7.363  0.7768 -1.1962  0.5082
  125OSM    C8F13384   4.660   6.250   7.493 -0.4260 -0.0532 -0.1203
  125OSM    H8F13385   4.582   6.327   7.512 -1.6052 -0.9575 -1.1438
  125OSM    H8G13386   4.756   6.305   7.479 -1.4803  2.1030  0.6349
  125OSM    C9F13387   4.674   6.169   7.616 -0.0234 -0.0410 -0.3917
  125OSM    H9F13388   4.698   6.062   7.606  2.4015  0.5436 -1.7792
  125OSM   C10F13389   4.672   6.212   7.743  0.5229  0.6554 -0.0125
  125OSM   H10F13390   4.699   6.136   7.818 -0.1479 -1.2496 -1.6079
  125OSM   C11F13391   4.653   6.356   7.783  0.5299  0.1297  0.6880
  125OSM   H11F13392   4.594   6.406   7.703  1.5663  0.4590  0.1217
  125OSM   H11G13393   4.754   6.400   7.776  1.7396 -2.3713  1.4172
  125OSM   C12F13394   4.583   6.387   7.919 -0.0611  0.4588  0.2889
  125OSM   H12F13395   4.555   6.495   7.921  1.5959  0.9057  0.5439
  125OSM   H12G13396   4.656   6.368   8.000 -0.6977  1.2028  1.0577
  125OSM   C13F13397   4.460   6.305   7.937  0.7321 -0.2496 -0.9503
  125OSM   H13F13398   4.484   6.197   7.944  2.5164  0.0024 -2.2536
  125OSM   H13G13399   4.397   6.342   7.853 -2.3072 -0.8300  0.9254
  125OSM   C14F13400   4.370   6.357   8.048  0.1193 -0.1885 -0.1065
  125OSM   H14F13401   4.283   6.290   8.067  1.4070 -2.4978 -1.7929
  125OSM   H14G13402   4.341   6.461   8.024 -2.1341 -0.9465 -1.0280
  125OSM   C15F13403   4.449   6.341   8.182 -0.5988  0.1531  0.7651
  125OSM   H15F13404   4.548   6.391   8.178 -1.7371  2.4253 -1.7260
  125OSM   H15G13405   4.463   6.232   8.200 -0.7432 -0.2588 -1.3293
  125OSM   C16F13406   4.360   6.392   8.297  0.0126  0.7023  0.1224
  125OSM   H16F13407   4.420   6.367   8.387 -0.9831 -2.6812 -0.0123
  125OSM   H16G13408   4.269   6.329   8.304  1.0437 -1.0927 -1.4400
  125OSM   C17F13409   4.330   6.545   8.300  0.1450  0.2477 -0.6344
  125OSM   H17F13410   4.247   6.565   8.371 -0.3139 -0.8063 -0.8555
  125OSM   H17G13411   4.302   6.584   8.200  0.2367 -0.4793 -0.9474
  125OSM   C18F13412   4.450   6.625   8.368  0.8997 -0.0554  0.1606
  125OSM   H18F13413   4.428   6.734   8.361 -1.2524 -0.2766  1.9288
  125OSM   H18G13414   4.548   6.609   8.320  1.3974  0.3596  1.0141
  125OSM   H18H13415   4.449   6.596   8.476 -0.6255 -1.0518 -0.0852
  126OSM      N13416   2.392   4.783   6.415 -0.1995  0.3059  0.0666
  126OSM    C1513417   2.387   4.904   6.505 -0.4111  0.1534  0.4567
  126OSM   H15A13418   2.395   4.870   6.607  0.3944  0.0419  0.3653
  126OSM   H15B13419   2.290   4.948   6.486 -0.1780  0.0083 -1.3273
  126OSM   H15C13420   2.472   4.968   6.483 -1.2667  1.3899  0.6398
  126OSM    C1413421   2.372   4.826   6.275  0.1571  0.1974  0.0806
  126OSM   H14A13422   2.399   4.749   6.204  2.4837  2.2800 -1.4436
  126OSM   H14B13423   2.439   4.906   6.248 -0.3031  0.3423 -0.6461
  126OSM   H14C13424   2.268   4.848   6.259  0.0155 -0.0552  0.6375
  126OSM    C1313425   2.529   4.724   6.423  0.1726  0.9844 -0.9786
  126OSM   H13A13426   2.534   4.626   6.377  0.0757  0.7323 -0.4626
  126OSM   H13B13427   2.561   4.712   6.525  0.8852 -2.8594 -1.5005
  126OSM   H13C13428   2.603   4.782   6.371  0.1102  1.7634 -0.2297
  126OSM    C1213429   2.279   4.692   6.456 -0.7424 -0.1010  0.4080
  126OSM   H12A13430   2.306   4.651   6.552  2.3348  0.6801  0.0126
  126OSM   H12B13431   2.268   4.608   6.389 -1.8733  0.3558  0.0056
  126OSM    C1113432   2.137   4.750   6.456 -0.1862  0.1919  0.4093
  126OSM   H11A13433   2.102   4.763   6.352  0.8732 -2.9161 -0.4406
  126OSM   H11B13434   2.129   4.847   6.511 -2.8927 -0.6961  1.7620
  126OSM      P13435   1.925   4.688   6.593  0.1259  0.2970  0.2070
  126OSM    O1313436   1.822   4.734   6.493 -0.0129 -0.2464  0.1028
  126OSM    O1413437   1.882   4.572   6.673  0.5128  0.1013 -0.6877
  126OSM    O1113438   1.964   4.810   6.684 -0.7027 -0.0286  0.3841
  126OSM    O1213439   2.061   4.646   6.518 -0.0753  0.0838  0.6144
  126OSM    C1S13440   1.905   4.821   6.818 -0.0161 -0.3501  0.2397
  126OSM    H1S13441   1.802   4.781   6.806  0.2764 -0.9277 -0.4690
  126OSM    H1T13442   1.894   4.928   6.846 -1.8586 -0.4632  0.0598
  126OSM     NF13443   1.923   4.786   7.056  0.4449 -0.2357  0.6182
  126OSM    HNF13444   1.947   4.871   7.103 -0.5313  0.7169 -0.5423
  126OSM    C2S13445   1.987   4.766   6.934  0.1243 -0.6274  0.1443
  126OSM    H2S13446   1.999   4.656   6.921  2.3589 -0.4588  0.4374
  126OSM    C3S13447   2.138   4.819   6.947  0.0850 -0.2287 -0.4134
  126OSM    H3S13448   2.124   4.928   6.964  0.2336 -0.0720 -1.2616
  126OSM     O313449   2.205   4.802   6.819 -0.0063  0.0281 -0.4218
  126OSM    HO313450   2.137   4.767   6.763 -0.8409  1.2898 -0.2396
  126OSM    C4S13451   2.214   4.741   7.050 -0.4205 -1.2000  0.8795
  126OSM    H4S13452   2.244   4.638   7.026  1.1878 -0.5490 -0.0851
  126OSM    C5S13453   2.251   4.783   7.173 -0.1603  1.2236 -0.4529
  126OSM    H5S13454   2.221   4.881   7.212 -0.9293  0.5993  0.5842
  126OSM    C6S13455   2.326   4.690   7.274 -0.1544 -0.0257  0.3316
  126OSM    H6S13456   2.262   4.669   7.362 -1.3555  0.0359 -0.5073
  126OSM    H6T13457   2.413   4.743   7.319  0.2262 -1.9047  1.9375
  126OSM    C7S13458   2.357   4.548   7.218 -0.9845 -0.5283 -0.0109
  126OSM    H7S13459   2.424   4.564   7.131 -2.0651  1.0317 -0.5947
  126OSM    H7T13460   2.263   4.500   7.185 -1.6022  1.7223 -1.7590
  126OSM    C8S13461   2.446   4.467   7.320  0.0055  0.0907 -0.5207
  126OSM    H8S13462   2.502   4.546   7.373  0.1405 -1.8487  2.4744
  126OSM    H8T13463   2.510   4.394   7.267  0.5432  0.7267 -0.7521
  126OSM    C9S13464   2.354   4.400   7.422 -0.4409  0.0471  0.0113
  126OSM    H9S13465   2.276   4.354   7.358  0.7842  0.3202 -1.7503
  126OSM    H9T13466   2.316   4.474   7.495  1.8724  1.6583 -0.3205
  126OSM   C10S13467   2.423   4.289   7.492  0.2975  0.7311 -0.6876
  126OSM   H10S13468   2.505   4.326   7.558  1.1677  0.6047 -1.6620
  126OSM   H10T13469   2.471   4.215   7.425 -0.5961 -1.1033  0.6044
  126OSM   C11S13470   2.330   4.211   7.586  0.0280 -0.3499  0.2107
  126OSM   H11S13471   2.359   4.108   7.615 -0.1519 -1.2250 -2.5015
  126OSM   H11T13472   2.238   4.190   7.528  1.7000  1.2118 -3.2592
  126OSM   C12S13473   2.298   4.294   7.715  0.1467  0.2706  0.0269
  126OSM   H12S13474   2.193   4.275   7.748  0.0686  1.8255  0.7485
  126OSM   H12T13475   2.316   4.401   7.694  0.2554  0.3247  0.4057
  126OSM   C13S13476   2.381   4.252   7.830  0.3024  0.4645 -0.0925
  126OSM   H13S13477   2.488   4.278   7.813  0.6605  0.3748  1.8422
  126OSM   H13T13478   2.372   4.142   7.841  1.5856  0.2367 -1.0292
  126OSM   C14S13479   2.336   4.327   7.952 -0.3147 -0.4726  0.6311
  126OSM   H14S13480   2.230   4.305   7.974 -0.6281  1.8288  1.6391
  126OSM   H14T13481   2.342   4.438   7.945  0.4922 -0.4513  1.4368
  126OSM   C15S13482   2.417   4.287   8.078  0.0851  0.5373 -0.0719
  126OSM   H15S13483   2.505   4.351   8.103 -0.3365  0.8952  0.5159
  126OSM   H15T13484   2.452   4.182   8.068 -1.6525 -0.2776  1.7703
  126OSM   C16S13485   2.326   4.276   8.206  0.3721  0.4633  0.3895
  126OSM   H16S13486   2.262   4.186   8.201 -0.1407  0.8702 -0.6887
  126OSM   H16T13487   2.272   4.372   8.222 -1.9021 -0.7088  0.0622
  126OSM   C17S13488   2.408   4.253   8.333  0.8117 -0.3911 -0.7130
  126OSM   H17S13489   2.476   4.340   8.347 -1.9996  1.7602  0.3843
  126OSM   H17T13490   2.468   4.159   8.326 -0.0107 -1.0851  1.0209
  126OSM   C18S13491   2.306   4.253   8.448 -0.9732 -0.0974 -0.0965
  126OSM   H18S13492   2.225   4.177   8.443  0.6113 -1.9311  0.5190
  126OSM   H18T13493   2.240   4.342   8.450 -1.2603 -0.1504 -3.1683
  126OSM   H18U13494   2.359   4.237   8.545  0.5210 -0.5415 -0.9475
  126OSM    C1F13495   1.808   4.739   7.089  0.5308 -0.5400 -0.1175
  126OSM     OF13496   1.773   4.634   7.035 -0.6224 -0.4033 -0.2720
  126OSM    C2F13497   1.727   4.803   7.195  0.3881 -1.0834  0.2785
  126OSM    H2F13498   1.742   4.913   7.192  1.1376 -1.1156  1.8945
  126OSM    H2G13499   1.768   4.777   7.295  1.5953 -0.4807 -0.0439
  126OSM    C3F13500   1.580   4.769   7.188  0.1178  0.3486 -0.3485
  126OSM    H3F13501   1.555   4.664   7.216  0.9779 -0.6581 -2.9855
  126OSM    H3G13502   1.565   4.782   7.079  2.3921  1.2377 -0.6177
  126OSM    C4F13503   1.494   4.877   7.250  0.1500 -0.3917 -0.5462
  126OSM    H4F13504   1.384   4.863   7.245 -0.2856  2.7453 -1.4756
  126OSM    H4G13505   1.508   4.980   7.211  1.1289 -0.1727  0.3169
  126OSM    C5F13506   1.513   4.900   7.404  0.6779 -0.4449 -0.4132
  126OSM    H5F13507   1.441   4.978   7.436  0.1912 -1.2254  0.4194
  126OSM    H5G13508   1.612   4.945   7.426 -1.2398  3.3380  1.4280
  126OSM    C6F13509   1.495   4.772   7.487 -0.8047 -0.3222 -0.7196
  126OSM    H6F13510   1.594   4.721   7.489 -0.3383  0.5002 -1.5844
  126OSM    H6G13511   1.422   4.696   7.453 -0.0708 -0.6237 -1.6634
  126OSM    C7F13512   1.460   4.812   7.627 -0.0431 -0.1154  0.0254
  126OSM    H7F13513   1.360   4.859   7.613  0.7538  1.5288 -0.3350
  126OSM    H7G13514   1.525   4.895   7.663  0.4840 -1.1416  1.5722
  126OSM    C8F13515   1.442   4.704   7.739 -0.3005  0.6034  0.7225
  126OSM    H8F13516   1.361   4.635   7.709  0.9910 -1.7870  2.4163
  126OSM    H8G13517   1.408   4.752   7.834  1.0166  1.1488  0.9408
  126OSM    C9F13518   1.574   4.623   7.755  0.4400  0.6543  0.3938
  126OSM    H9F13519   1.581   4.550   7.673 -1.1435  0.9750 -0.0558
  126OSM   C10F13520   1.666   4.644   7.848 -0.9061 -0.3421  0.2935
  126OSM   H10F13521   1.765   4.597   7.838 -0.3356  0.7956  0.4330
  126OSM   C11F13522   1.667   4.760   7.949  0.5155  0.2823  0.1999
  126OSM   H11F13523   1.597   4.844   7.928 -0.4802 -0.6659 -0.3550
  126OSM   H11G13524   1.768   4.806   7.957  1.2854 -0.9724 -1.5365
  126OSM   C12F13525   1.621   4.728   8.095 -0.8118 -0.2958  0.0356
  126OSM   H12F13526   1.671   4.636   8.134  1.5903  0.5984 -0.7631
  126OSM   H12G13527   1.512   4.711   8.082 -0.7184  0.6338 -2.4685
  126OSM   C13F13528   1.656   4.854   8.187 -0.0614 -0.0492  0.2099
  126OSM   H13F13529   1.592   4.938   8.150  1.1637  1.6710  1.8041
  126OSM   H13G13530   1.766   4.866   8.182  0.0506  0.7360  3.0082
  126OSM   C14F13531   1.631   4.838   8.337  0.3778  0.0442 -0.4461
  126OSM   H14F13532   1.687   4.751   8.376 -2.0237 -1.4591 -0.1617
  126OSM   H14G13533   1.524   4.810   8.343  0.2609  0.1721 -1.7571
  126OSM   C15F13534   1.658   4.967   8.418 -0.7436 -0.1495  0.3544
  126OSM   H15F13535   1.615   5.055   8.366 -1.2167 -0.4260  0.2756
  126OSM   H15G13536   1.769   4.971   8.424 -0.7208  0.4609 -0.3417
  126OSM   C16F13537   1.600   4.957   8.559  0.4174  0.3504 -0.1115
  126OSM   H16F13538   1.609   4.856   8.604 -1.6749  0.9086  1.7677
  126OSM   H16G13539   1.489   4.967   8.556  0.5185  3.3649  2.1521
  126OSM   C17F13540   1.665   5.060   8.656  0.5653  0.3609  0.1604
  126OSM   H17F13541   1.773   5.071   8.632  0.4498  0.9275 -0.1218
  126OSM   H17G13542   1.635   5.043   8.761 -1.8061  2.8357 -0.0138
  126OSM   C18F13543   1.602   5.195   8.627  0.6604 -0.5914  0.1252
  126OSM   H18F13544   1.646   5.271   8.696  1.1749  0.4971 -1.3607
  126OSM   H18G13545   1.492   5.191   8.648 -0.0306 -5.4278 -2.9829
  126OSM   H18H13546   1.621   5.234   8.525  2.6087 -3.2663 -0.6384
  127OSM      N13547   3.916   4.308   6.310 -0.0297 -0.0633  0.2527
  127OSM    C1513548   3.816   4.315   6.423 -0.2776 -0.1770  0.2445
  127OSM   H15A13549   3.784   4.220   6.463  0.6763 -1.8115 -2.5620
  127OSM   H15B13550   3.721   4.359   6.397  1.2408  3.3918  0.1708
  127OSM   H15C13551   3.858   4.389   6.490 -0.2348  0.6739 -0.6842
  127OSM    C1413552   3.853   4.242   6.196  0.7025  0.3145  1.3031
  127OSM   H14A13553   3.811   4.146   6.219 -0.3659  0.6348  0.7833
  127OSM   H14B13554   3.928   4.231   6.119 -0.7354  1.4612 -0.3510
  127OSM   H14C13555   3.779   4.307   6.152  0.5406 -0.3942  0.5106
  127OSM    C1313556   3.965   4.445   6.269 -0.0777  0.0635 -0.2199
  127OSM   H13A13557   3.898   4.508   6.212  0.7961  1.3399  0.1159
  127OSM   H13B13558   4.061   4.438   6.221  0.2072  0.9169  0.1956
  127OSM   H13C13559   3.988   4.511   6.351  0.0605  1.1658 -1.1215
  127OSM    C1213560   4.049   4.238   6.368  0.2547  0.6243  0.3814
  127OSM   H12A13561   4.019   4.139   6.397 -2.0448  1.2406  0.3125
  127OSM   H12B13562   4.080   4.296   6.454  0.4077 -3.1489  3.1185
  127OSM    C1113563   4.176   4.218   6.279 -0.2844 -0.0438 -0.3324
  127OSM   H11A13564   4.146   4.173   6.182  0.3137  0.2245 -0.6520
  127OSM   H11B13565   4.231   4.139   6.334 -2.0992  0.1627  1.9225
  127OSM      P13566   4.404   4.357   6.294 -0.0896  0.8700 -0.1675
  127OSM    O1313567   4.470   4.240   6.231  0.3354  0.2132  0.2941
  127OSM    O1413568   4.440   4.493   6.245  0.1244 -0.0852 -0.3839
  127OSM    O1113569   4.419   4.340   6.451 -0.0262  0.1373 -0.1876
  127OSM    O1213570   4.248   4.342   6.273  0.7610  0.5379 -0.0004
  127OSM    C1S13571   4.327   4.401   6.552 -0.1657  0.9101  0.0078
  127OSM    H1S13572   4.229   4.435   6.511 -1.8292 -2.1692  1.1268
  127OSM    H1T13573   4.379   4.483   6.607 -2.0003  1.4399  1.0206
  127OSM     NF13574   4.216   4.370   6.758  0.2396 -0.4831  0.7113
  127OSM    HNF13575   4.254   4.420   6.835 -1.4797  0.3398  1.0798
  127OSM    C2S13576   4.292   4.294   6.661 -0.1427  0.1770  0.0846
  127OSM    H2S13577   4.226   4.214   6.621 -0.8012  0.9977 -0.5024
  127OSM    C3S13578   4.420   4.224   6.729  0.2964 -0.2217 -0.1817
  127OSM    H3S13579   4.482   4.302   6.777  1.5242 -1.2489 -0.0531
  127OSM     O313580   4.511   4.176   6.635 -0.4877  0.7870  0.1913
  127OSM    HO313581   4.497   4.226   6.554  2.0553  1.3724  0.0242
  127OSM    C4S13582   4.375   4.125   6.834  0.1737 -0.0879 -0.1405
  127OSM    H4S13583   4.289   4.065   6.802 -0.5207  0.5780  0.4441
  127OSM    C5S13584   4.412   4.106   6.961  0.8466 -0.8241  0.0167
  127OSM    H5S13585   4.492   4.167   7.005  0.3285 -0.5675  0.6230
  127OSM    C6S13586   4.344   4.012   7.056  0.3123  0.7895  0.5641
  127OSM    H6S13587   4.421   3.932   7.067  1.0104  1.1554 -1.2177
  127OSM    H6T13588   4.263   3.964   6.997  1.1405  0.7191 -0.5488
  127OSM    C7S13589   4.297   4.074   7.181  0.1546 -0.6320 -0.9099
  127OSM    H7S13590   4.230   4.158   7.151  1.2330  0.5717 -0.0793
  127OSM    H7T13591   4.385   4.113   7.236 -0.2821  0.5222 -0.9864
  127OSM    C8S13592   4.217   4.000   7.286 -0.2023  0.4066  0.5021
  127OSM    H8S13593   4.110   3.999   7.259 -0.3207  0.2316  0.9594
  127OSM    H8T13594   4.220   4.066   7.376  0.6892  0.6077  0.3384
  127OSM    C9S13595   4.255   3.853   7.308  0.2609  1.0906  0.2649
  127OSM    H9S13596   4.355   3.850   7.356 -0.0988  1.9145  1.0939
  127OSM    H9T13597   4.254   3.795   7.213  1.4857  2.0665 -0.3778
  127OSM   C10S13598   4.149   3.787   7.397  0.1316 -0.6604 -0.2678
  127OSM   H10S13599   4.045   3.801   7.358 -0.1395 -0.5960  0.4667
  127OSM   H10T13600   4.137   3.834   7.497 -1.6063  0.3040 -0.8700
  127OSM   C11S13601   4.154   3.635   7.410  1.0940  0.2142  0.1015
  127OSM   H11S13602   4.252   3.623   7.461  1.1427  0.3503  0.0422
  127OSM   H11T13603   4.168   3.576   7.317 -1.4587 -4.4394  2.3388
  127OSM   C12S13604   4.041   3.589   7.499 -0.3154 -0.0517  0.0004
  127OSM   H12S13605   3.945   3.572   7.446  0.4812 -0.8146 -1.2554
  127OSM   H12T13606   4.013   3.655   7.583 -1.9987 -1.5868  0.7137
  127OSM   C13S13607   4.068   3.452   7.580  0.0159 -0.3893  0.0335
  127OSM   H13S13608   4.171   3.452   7.622  1.5050 -2.2135 -3.2320
  127OSM   H13T13609   4.062   3.374   7.501 -0.4249 -0.0437 -0.2842
  127OSM   C14S13610   3.968   3.433   7.689 -0.4540  0.1327  0.4249
  127OSM   H14S13611   3.861   3.446   7.661 -0.4042 -1.3753 -0.5653
  127OSM   H14T13612   3.982   3.504   7.774 -2.5867  0.8892  0.2069
  127OSM   C15S13613   3.978   3.287   7.750 -1.1595 -0.9326  0.4728
  127OSM   H15S13614   4.088   3.272   7.759 -0.7685  0.5620 -1.3242
  127OSM   H15T13615   3.937   3.215   7.676 -0.1941 -0.9384 -0.0789
  127OSM   C16S13616   3.913   3.255   7.886 -1.1395 -0.5327  0.0357
  127OSM   H16S13617   3.946   3.150   7.900  1.0017  0.0977 -0.0012
  127OSM   H16T13618   3.804   3.275   7.880 -1.2399 -0.9507  0.4396
  127OSM   C17S13619   3.982   3.339   7.991  0.2184 -0.2038 -0.1433
  127OSM   H17S13620   3.966   3.443   7.955  2.3276 -0.6772 -2.7237
  127OSM   H17T13621   4.089   3.313   8.003 -0.2061 -1.9510  0.1769
  127OSM   C18S13622   3.921   3.311   8.133 -0.0242  0.3104  0.0496
  127OSM   H18S13623   3.961   3.380   8.210  2.0141 -0.6087 -0.1268
  127OSM   H18T13624   3.953   3.208   8.158 -1.7653  0.0170  1.2804
  127OSM   H18U13625   3.810   3.307   8.125 -0.1016  0.2699  1.0502
  127OSM    C1F13626   4.088   4.393   6.746 -0.9398  0.8876 -0.0315
  127OSM     OF13627   4.025   4.327   6.662 -0.1280 -0.2165  0.2936
  127OSM    C2F13628   4.027   4.504   6.828 -0.6949 -0.1419  0.1257
  127OSM    H2F13629   4.005   4.586   6.757  1.4222  2.2442  2.0283
  127OSM    H2G13630   4.099   4.535   6.906 -0.6582  0.6969 -0.2274
  127OSM    C3F13631   3.908   4.450   6.920 -0.1884 -0.5998 -0.2953
  127OSM    H3F13632   3.833   4.385   6.871  0.4169 -0.4719 -1.4321
  127OSM    H3G13633   3.852   4.536   6.963 -1.8022 -2.3160  1.2447
  127OSM    C4F13634   3.960   4.360   7.038 -0.0582 -0.1575  0.1014
  127OSM    H4F13635   4.036   4.420   7.092 -0.0255 -0.2792  0.1916
  127OSM    H4G13636   4.004   4.265   7.000  1.0426  0.9400 -1.4873
  127OSM    C5F13637   3.854   4.308   7.134  0.3886  0.3964  0.1328
  127OSM    H5F13638   3.819   4.209   7.097 -0.4974 -0.0082  1.9237
  127OSM    H5G13639   3.769   4.378   7.148 -1.2742 -1.4224 -0.4772
  127OSM    C6F13640   3.928   4.287   7.268 -0.2686  0.1732 -0.1174
  127OSM    H6F13641   3.980   4.381   7.293 -0.4967 -0.4596  3.1947
  127OSM    H6G13642   4.002   4.205   7.254 -2.2242 -1.9624  1.1830
  127OSM    C7F13643   3.836   4.249   7.385 -0.4895  0.6282 -0.0520
  127OSM    H7F13644   3.801   4.146   7.361 -0.9821  0.7637  0.0649
  127OSM    H7G13645   3.744   4.311   7.391  0.0440  1.4623 -0.4068
  127OSM    C8F13646   3.905   4.255   7.514  1.1764 -0.1945 -0.5955
  127OSM    H8F13647   4.011   4.223   7.498  1.7594  0.0780  2.2457
  127OSM    H8G13648   3.865   4.178   7.583  0.8024  2.9628  3.0350
  127OSM    C9F13649   3.898   4.394   7.590 -0.5312  0.9799  0.3076
  127OSM    H9F13650   3.972   4.465   7.549  1.9340 -1.4146  0.3379
  127OSM   C10F13651   3.832   4.434   7.705 -0.2229  0.1250  0.1110
  127OSM   H10F13652   3.848   4.536   7.743  0.3786  1.0797 -2.4838
  127OSM   C11F13653   3.734   4.347   7.782 -0.4673 -0.4223 -0.2404
  127OSM   H11F13654   3.659   4.297   7.716 -0.9597 -1.4940  1.0764
  127OSM   H11G13655   3.667   4.416   7.837 -1.5878 -1.9508  0.4063
  127OSM   C12F13656   3.794   4.250   7.880  0.7110  0.1202  0.8442
  127OSM   H12F13657   3.868   4.301   7.945  1.7590  1.1669 -1.0776
  127OSM   H12G13658   3.850   4.171   7.825 -0.3470 -0.7321  0.9486
  127OSM   C13F13659   3.685   4.189   7.971  0.1913 -0.3695  0.3705
  127OSM   H13F13660   3.608   4.128   7.918 -1.0861  1.9601 -0.6309
  127OSM   H13G13661   3.628   4.269   8.022 -0.3915  0.5858 -1.6515
  127OSM   C14F13662   3.756   4.101   8.077 -0.0083  0.0971 -0.1277
  127OSM   H14F13663   3.827   4.043   8.014  2.1516  1.7816  0.6419
  127OSM   H14G13664   3.682   4.026   8.111  3.9045 -2.6523  3.3071
  127OSM   C15F13665   3.828   4.168   8.190 -0.2525  0.7541 -0.2124
  127OSM   H15F13666   3.826   4.279   8.194  0.5289  0.7566  0.4955
  127OSM   H15G13667   3.933   4.142   8.163 -0.4583 -0.5077  0.1288
  127OSM   C16F13668   3.786   4.105   8.324 -0.0122  0.2909 -0.4295
  127OSM   H16F13669   3.788   3.994   8.320 -1.2077  0.2940 -2.2610
  127OSM   H16G13670   3.686   4.133   8.363  0.5526  0.9644  0.6229
  127OSM   C17F13671   3.886   4.138   8.442 -0.5972 -0.3500  0.4052
  127OSM   H17F13672   3.958   4.218   8.415 -0.0200 -0.5149  1.4125
  127OSM   H17G13673   3.956   4.051   8.445 -1.0023 -0.9200 -2.8377
  127OSM   C18F13674   3.833   4.166   8.580 -0.4488 -0.4038  0.9285
  127OSM   H18F13675   3.773   4.082   8.621 -2.7382  0.2530 -0.8237
  127OSM   H18G13676   3.771   4.259   8.582  0.6304  0.3549  0.5058
  127OSM   H18H13677   3.924   4.200   8.634  0.1324  0.2531 -0.4072
  128OSM      N13678   6.456   0.290   6.247  0.5022 -0.1768 -0.4454
  128OSM    C1513679   6.525   0.396   6.328  0.2650  0.0188  0.7460
  128OSM   H15A13680   6.587   0.352   6.405  0.8142 -1.0057 -0.2382
  128OSM   H15B13681   6.460   0.477   6.357 -0.8450 -1.0083  1.1934
  128OSM   H15C13682   6.594   0.439   6.256  0.2264 -1.6309 -0.3409
  128OSM    C1413683   6.384   0.352   6.132 -0.1633 -0.4013  0.0656
  128OSM   H14A13684   6.294   0.395   6.174 -0.4621 -0.8792 -0.0773
  128OSM   H14B13685   6.361   0.276   6.059 -0.8254  0.0074 -0.1632
  128OSM   H14C13686   6.446   0.431   6.093  0.0457 -0.2745  0.6403
  128OSM    C1313687   6.566   0.211   6.184  0.3114 -0.3511  0.3827
  128OSM   H13A13688   6.650   0.272   6.154 -0.1994  0.4749  0.6094
  128OSM   H13B13689   6.529   0.150   6.103 -0.1548  0.7073 -0.2094
  128OSM   H13C13690   6.609   0.147   6.261  2.8538  1.0767  0.2658
  128OSM    C1213691   6.364   0.205   6.326  0.2768 -0.0050 -0.5645
  128OSM   H12A13692   6.430   0.167   6.403  2.1292  4.4921  0.3997
  128OSM   H12B13693   6.329   0.131   6.256  0.8562  0.6525 -1.5672
  128OSM    C1113694   6.246   0.282   6.395  0.0430 -0.6669  0.3206
  128OSM   H11A13695   6.283   0.377   6.439  0.1614 -0.6286  0.1415
  128OSM   H11B13696   6.212   0.217   6.478 -0.4391 -2.5193 -1.2506
  128OSM      P13697   6.066   0.189   6.254  0.7607  0.4450 -0.0433
  128OSM    O1313698   6.061   0.210   6.112  0.0596  0.1464  1.0705
  128OSM    O1413699   6.130   0.061   6.294  0.0514  0.2346  0.1109
  128OSM    O1113700   5.921   0.200   6.315  0.1506 -0.4528 -0.2813
  128OSM    O1213701   6.141   0.312   6.310  0.5693 -0.0958  0.0418
  128OSM    C1S13702   5.894   0.171   6.453  0.0756  0.6705  0.1361
  128OSM    H1S13703   5.961   0.088   6.485  2.0873  0.7300 -3.3932
  128OSM    H1T13704   5.792   0.129   6.462  0.1121  0.6036  0.2383
  128OSM     NF13705   5.876   0.263   6.690  0.5200 -0.2256  0.1413
  128OSM    HNF13706   5.792   0.296   6.733  1.6434  0.7085  1.6896
  128OSM    C2S13707   5.905   0.296   6.549 -0.1896 -0.2024 -0.4168
  128OSM    H2S13708   6.007   0.339   6.556 -0.8608  1.6105 -1.2533
  128OSM    C3S13709   5.801   0.409   6.506 -1.0451  0.9472  1.1582
  128OSM    H3S13710   5.693   0.384   6.513 -0.7345 -0.3908  1.4137
  128OSM     O313711   5.804   0.442   6.363  0.5387  0.5564  0.6435
  128OSM    HO313712   5.848   0.371   6.316  2.5393  1.5871  0.8730
  128OSM    C4S13713   5.832   0.531   6.590  0.6423 -0.0008  0.2413
  128OSM    H4S13714   5.939   0.556   6.600  0.6082  0.5803 -0.7374
  128OSM    C5S13715   5.739   0.614   6.643 -1.0374  0.0448 -0.4131
  128OSM    H5S13716   5.631   0.605   6.624 -0.6184 -2.7705 -2.0412
  128OSM    C6S13717   5.786   0.740   6.717 -0.3697  0.3866 -0.4823
  128OSM    H6S13718   5.750   0.834   6.669 -0.5272  1.7756  2.1858
  128OSM    H6T13719   5.897   0.747   6.714 -0.2001 -1.6625 -0.5152
  128OSM    C7S13720   5.745   0.735   6.865 -0.3876  0.1183 -0.4289
  128OSM    H7S13721   5.797   0.650   6.912 -0.6609  0.1758 -0.0151
  128OSM    H7T13722   5.638   0.710   6.880 -0.8449  2.6414  1.1877
  128OSM    C8S13723   5.775   0.865   6.942  0.1493 -0.1121  0.7014
  128OSM    H8S13724   5.694   0.936   6.918 -0.5034 -0.6558  1.2668
  128OSM    H8T13725   5.867   0.916   6.906 -0.6660  1.2273  0.4432
  128OSM    C9S13726   5.794   0.867   7.097 -0.7485 -0.2281 -0.1098
  128OSM    H9S13727   5.758   0.961   7.145 -2.1904 -0.9985  0.3924
  128OSM    H9T13728   5.903   0.870   7.115 -0.5635  2.6391 -1.1491
  128OSM   C10S13729   5.706   0.760   7.177  0.0625  0.2007 -0.2651
  128OSM   H10S13730   5.743   0.659   7.149 -2.7467 -1.4929  1.6231
  128OSM   H10T13731   5.602   0.775   7.141  0.9625  0.0456 -3.2356
  128OSM   C11S13732   5.706   0.751   7.329  0.0199  0.4495  0.5831
  128OSM   H11S13733   5.806   0.736   7.375  0.0076 -1.2197  0.1133
  128OSM   H11T13734   5.647   0.659   7.352 -0.7305  0.3779 -1.4786
  128OSM   C12S13735   5.626   0.866   7.384  0.3172 -0.7628  0.3961
  128OSM   H12S13736   5.533   0.871   7.325 -0.0858 -1.4484  0.9471
  128OSM   H12T13737   5.682   0.961   7.376  2.3327 -1.8381  0.9672
  128OSM   C13S13738   5.602   0.840   7.531  0.0406 -0.5711 -0.2295
  128OSM   H13S13739   5.697   0.847   7.587 -0.0331 -1.6975  0.0724
  128OSM   H13T13740   5.581   0.732   7.550  1.3833 -0.7960  0.1114
  128OSM   C14S13741   5.499   0.927   7.593  0.2315 -0.2257 -0.7180
  128OSM   H14S13742   5.398   0.903   7.552 -1.2355  2.0377  1.3147
  128OSM   H14T13743   5.517   1.033   7.566  1.9235  0.0243  1.2053
  128OSM   C15S13744   5.484   0.915   7.747 -0.3212  0.0151 -0.7309
  128OSM   H15S13745   5.588   0.935   7.780  1.4221 -0.4544 -5.1505
  128OSM   H15T13746   5.456   0.811   7.772 -0.2120  0.0730 -0.3722
  128OSM   C16S13747   5.404   1.021   7.824 -0.3880 -0.6307 -0.1145
  128OSM   H16S13748   5.302   1.038   7.784 -1.4584 -1.7210  1.9470
  128OSM   H16T13749   5.466   1.113   7.830 -2.1637  0.7396 -1.7913
  128OSM   C17S13750   5.387   0.974   7.973 -0.1296 -0.2311  0.0694
  128OSM   H17S13751   5.484   0.935   8.012  0.6985  0.3997 -1.2741
  128OSM   H17T13752   5.323   0.886   7.951 -0.5037 -0.5159  2.0659
  128OSM   C18S13753   5.316   1.073   8.064 -0.8049 -0.3933 -0.2022
  128OSM   H18S13754   5.364   1.169   8.093 -3.4312  0.3490  2.1365
  128OSM   H18T13755   5.302   1.018   8.159 -0.9593  0.8096  0.4968
  128OSM   H18U13756   5.215   1.091   8.020 -0.5107 -1.6457 -1.4524
  128OSM    C1F13757   5.949   0.190   6.770  0.0504  0.5345  1.0824
  128OSM     OF13758   6.029   0.111   6.718 -0.0730  0.2800  0.5615
  128OSM    C2F13759   5.918   0.192   6.913 -0.3371  0.4865  0.4413
  128OSM    H2F13760   6.003   0.143   6.966  0.8677 -0.6878 -2.3837
  128OSM    H2G13761   5.823   0.134   6.919  0.9251 -2.0555 -1.8340
  128OSM    C3F13762   5.894   0.337   6.970  0.6902  0.1475 -0.0378
  128OSM    H3F13763   5.817   0.392   6.911  2.0387  1.6690 -0.4658
  128OSM    H3G13764   5.986   0.391   6.938 -1.1334  2.7050 -1.3072
  128OSM    C4F13765   5.874   0.337   7.118 -0.1171 -0.2501  0.8258
  128OSM    H4F13766   5.836   0.439   7.142 -1.1997  0.4954 -3.3661
  128OSM    H4G13767   5.964   0.321   7.181  0.7457  0.1580 -0.2893
  128OSM    C5F13768   5.769   0.232   7.170  0.3703 -0.0077 -0.5476
  128OSM    H5F13769   5.800   0.125   7.161  0.5228  0.1031 -1.4392
  128OSM    H5G13770   5.675   0.228   7.111 -1.3695 -1.7336  2.1482
  128OSM    C6F13771   5.723   0.251   7.313  0.0773 -1.0398 -0.0333
  128OSM    H6F13772   5.626   0.201   7.334  0.1942 -1.2466  0.0089
  128OSM    H6G13773   5.705   0.360   7.328  0.3141 -0.9430 -0.4613
  128OSM    C7F13774   5.825   0.202   7.421  0.0224  0.1216 -0.4301
  128OSM    H7F13775   5.926   0.245   7.402  0.0187  2.0680  3.1234
  128OSM    H7G13776   5.838   0.092   7.411  0.6130  0.1047  0.4631
  128OSM    C8F13777   5.782   0.225   7.566 -0.4645 -0.2670  0.4353
  128OSM    H8F13778   5.825   0.152   7.637 -0.6896 -0.2730  0.5638
  128OSM    H8G13779   5.673   0.205   7.575 -0.6452  0.9460  1.2873
  128OSM    C9F13780   5.817   0.357   7.612  0.5890 -0.9871 -0.3737
  128OSM    H9F13781   5.769   0.435   7.552  2.0965  1.3093  1.2331
  128OSM   C10F13782   5.911   0.393   7.705 -0.0375 -0.3361  0.0617
  128OSM   H10F13783   5.927   0.500   7.729  0.5233 -0.1139 -1.2157
  128OSM   C11F13784   5.997   0.299   7.789 -0.0357 -0.1194 -0.2700
  128OSM   H11F13785   6.103   0.332   7.795 -0.1691  0.1451  0.6314
  128OSM   H11G13786   6.007   0.193   7.756 -0.1943  0.0751 -0.9596
  128OSM   C12F13787   5.928   0.303   7.929 -0.0353  0.4043  0.4278
  128OSM   H12F13788   5.833   0.249   7.911  0.6084 -1.1730  1.4700
  128OSM   H12G13789   5.898   0.407   7.952  0.3080  0.8097 -0.9201
  128OSM   C13F13790   6.002   0.220   8.035 -0.0291 -0.8182 -0.2321
  128OSM   H13F13791   6.113   0.226   8.036  0.0595 -1.4016  2.5398
  128OSM   H13G13792   5.979   0.113   8.018 -1.6875 -0.7005  1.0710
  128OSM   C14F13793   5.962   0.249   8.179 -0.2637 -0.1230 -0.0255
  128OSM   H14F13794   5.857   0.285   8.177  0.0398  0.7346 -0.7754
  128OSM   H14G13795   6.031   0.329   8.215 -0.9221  1.1560 -1.5209
  128OSM   C15F13796   5.970   0.121   8.270  0.0321  0.0323 -0.1277
  128OSM   H15F13797   6.052   0.054   8.238  0.1019 -0.3668  0.8626
  128OSM   H15G13798   5.877   0.065   8.247  1.0120 -1.5638 -0.3597
  128OSM   C16F13799   5.982   0.148   8.418  0.3242 -1.2249 -0.0426
  128OSM   H16F13800   5.917   0.237   8.434  0.1457 -1.0757 -1.4277
  128OSM   H16G13801   6.089   0.173   8.433 -0.1211  1.0009 -0.1413
  128OSM   C17F13802   5.934   0.038   8.505  0.0642 -0.3593  0.7188
  128OSM   H17F13803   6.009  -0.044   8.496 -0.6691 -1.3641  3.0296
  128OSM   H17G13804   5.832   0.020   8.463 -0.8065  3.0712  1.0609
  128OSM   C18F13805   5.920   0.070   8.651 -0.7814 -0.4394 -0.7334
  128OSM   H18F13806   5.820   0.052   8.695 -0.2888 -1.8736 -0.1103
  128OSM   H18G13807   5.954   0.175   8.660 -0.2529 -0.4156 -2.6134
  128OSM   H18H13808   5.979  -0.007   8.707 -1.1962 -1.4483 -1.6415
  129OSM      N13809   3.389   3.486   5.891  0.3320 -0.3924  0.2191
  129OSM    C1513810   3.342   3.393   5.787 -0.2038 -0.5140 -0.3698
  129OSM   H15A13811   3.430   3.344   5.747  2.4422  2.5541  1.2670
  129OSM   H15B13812   3.302   3.452   5.706  1.1139 -2.0272 -2.2165
  129OSM   H15C13813   3.270   3.317   5.816 -0.9050 -0.2567 -1.3602
  129OSM    C1413814   3.492   3.585   5.839  0.3905 -0.4522  0.1668
  129OSM   H14A13815   3.582   3.535   5.807  1.3638  1.7507 -0.7674
  129OSM   H14B13816   3.525   3.642   5.925 -0.0563 -0.5530  0.4095
  129OSM   H14C13817   3.439   3.645   5.766 -0.7164 -0.6415  0.7834
  129OSM    C1313818   3.267   3.557   5.941 -1.1169  0.5316  0.6295
  129OSM   H13A13819   3.239   3.636   5.873 -0.7877  0.6641  0.6472
  129OSM   H13B13820   3.303   3.604   6.031  0.1728 -0.3877  0.6331
  129OSM   H13C13821   3.188   3.487   5.964  0.0217 -1.1968 -0.4998
  129OSM    C1213822   3.454   3.400   6.002 -0.5601  0.0069 -1.1249
  129OSM   H12A13823   3.536   3.338   5.970 -0.8328 -0.2908 -1.2463
  129OSM   H12B13824   3.371   3.342   6.038 -0.9495  0.1607 -1.7536
  129OSM    C1113825   3.514   3.475   6.130  0.1881 -0.0331  0.5613
  129OSM   H11A13826   3.596   3.539   6.090 -1.0433  1.3555  0.1465
  129OSM   H11B13827   3.553   3.393   6.193  2.0045  0.5349  0.2373
  129OSM      P13828   3.316   3.497   6.291 -0.2495 -0.0196 -0.5533
  129OSM    O1313829   3.198   3.582   6.307  0.2034  0.1271 -0.2891
  129OSM    O1413830   3.293   3.360   6.243 -0.5927  0.6548  0.2614
  129OSM    O1113831   3.381   3.484   6.431  0.8517 -0.5429 -1.3821
  129OSM    O1213832   3.423   3.564   6.199  0.3637  0.0760 -0.0585
  129OSM    C1S13833   3.477   3.576   6.480  0.1052 -0.0311  0.0726
  129OSM    H1S13834   3.435   3.678   6.485 -0.7223 -0.3883  0.6586
  129OSM    H1T13835   3.568   3.576   6.415  0.0864  2.3767 -0.0326
  129OSM     NF13836   3.606   3.649   6.681 -0.6100 -0.1661  0.2343
  129OSM    HNF13837   3.699   3.660   6.649 -1.1877 -1.0883 -1.9201
  129OSM    C2S13838   3.527   3.542   6.622 -0.2499  0.7088 -0.3471
  129OSM    H2S13839   3.437   3.514   6.682  0.6334 -0.2762  0.5563
  129OSM    C3S13840   3.606   3.402   6.620  0.5489  0.4234  0.5415
  129OSM    H3S13841   3.703   3.417   6.567  0.9452 -1.5146  0.6628
  129OSM     O313842   3.553   3.291   6.541  0.1088  0.1703  0.2817
  129OSM    HO313843   3.486   3.342   6.493 -1.8764  0.4856  3.1045
  129OSM    C4S13844   3.629   3.356   6.759  0.0289  0.0578 -0.2798
  129OSM    H4S13845   3.545   3.342   6.829  1.7648  0.0544  1.9250
  129OSM    C5S13846   3.749   3.346   6.815  0.1204 -0.9555 -0.1917
  129OSM    H5S13847   3.842   3.375   6.764  1.2187 -0.5777  1.9010
  129OSM    C6S13848   3.765   3.324   6.966  0.2214  0.0354  0.4789
  129OSM    H6S13849   3.853   3.383   7.000 -0.5592  0.7624  1.2849
  129OSM    H6T13850   3.792   3.218   6.985  0.7156  0.1076  0.1811
  129OSM    C7S13851   3.660   3.369   7.066  0.6723 -0.0934 -0.1233
  129OSM    H7S13852   3.563   3.319   7.047  1.2579 -1.2144 -0.2780
  129OSM    H7T13853   3.640   3.478   7.059  1.4525 -0.0706 -3.6082
  129OSM    C8S13854   3.688   3.338   7.218 -0.1885  0.5655  0.4072
  129OSM    H8S13855   3.787   3.382   7.242  0.2125 -0.9951  1.7839
  129OSM    H8T13856   3.709   3.230   7.229 -0.7914  0.2731 -1.0903
  129OSM    C9S13857   3.580   3.376   7.318  0.1566  0.2239  0.2098
  129OSM    H9S13858   3.496   3.304   7.303 -0.4433  0.8502  0.4867
  129OSM    H9T13859   3.562   3.483   7.296  1.2547  0.5330  0.7854
  129OSM   C10S13860   3.627   3.359   7.465  0.6706  0.6064 -0.4076
  129OSM   H10S13861   3.720   3.416   7.485  0.4133  0.3465  1.7449
  129OSM   H10T13862   3.649   3.251   7.469  1.7332  0.8387  0.4039
  129OSM   C11S13863   3.518   3.389   7.568  0.3745 -0.5063 -0.6648
  129OSM   H11S13864   3.432   3.326   7.537  0.1494 -0.1584 -0.7524
  129OSM   H11T13865   3.490   3.495   7.585  1.3879 -0.2919 -0.2451
  129OSM   C12S13866   3.559   3.337   7.706  0.9195 -0.1102  0.2557
  129OSM   H12S13867   3.663   3.371   7.727  1.4166 -0.8409 -0.8920
  129OSM   H12T13868   3.558   3.227   7.692 -3.4752 -0.1239 -0.8108
  129OSM   C13S13869   3.456   3.367   7.817  0.5249 -0.1304  0.0435
  129OSM   H13S13870   3.359   3.320   7.789 -0.2764  1.6137 -0.2231
  129OSM   H13T13871   3.431   3.475   7.820  0.3920 -0.0483 -2.1912
  129OSM   C14S13872   3.508   3.317   7.959 -0.2628  0.2645 -0.1929
  129OSM   H14S13873   3.610   3.358   7.972  1.0578 -2.5142 -1.0459
  129OSM   H14T13874   3.517   3.208   7.942 -0.9459 -0.3978  3.0866
  129OSM   C15S13875   3.409   3.344   8.075  0.2825 -0.2753 -0.2934
  129OSM   H15S13876   3.308   3.311   8.045 -0.0018  0.8451 -0.5993
  129OSM   H15T13877   3.410   3.454   8.091  2.1429 -0.0656 -1.5059
  129OSM   C16S13878   3.437   3.268   8.210  0.7835  0.0144 -0.4285
  129OSM   H16S13879   3.543   3.294   8.231  1.1966 -0.9577 -1.2377
  129OSM   H16T13880   3.422   3.161   8.184  0.0175 -0.0825  0.3737
  129OSM   C17S13881   3.343   3.310   8.315  0.6110  0.2133 -0.0950
  129OSM   H17S13882   3.239   3.286   8.284  0.3495  1.7447 -0.4835
  129OSM   H17T13883   3.345   3.421   8.323 -3.0506  0.4229 -0.3551
  129OSM   C18S13884   3.365   3.238   8.449  0.2170  0.0435  0.3242
  129OSM   H18S13885   3.282   3.251   8.521  0.9439  5.0236  0.6427
  129OSM   H18T13886   3.460   3.275   8.494  1.0120  0.5711 -1.6524
  129OSM   H18U13887   3.385   3.135   8.413  1.4924 -0.4922  2.3811
  129OSM    C1F13888   3.544   3.756   6.728  0.3239 -0.3485 -0.2772
  129OSM     OF13889   3.420   3.759   6.729  0.0823 -0.1440 -0.1841
  129OSM    C2F13890   3.616   3.869   6.785 -0.1143  0.3135 -0.4553
  129OSM    H2F13891   3.691   3.897   6.708  0.3400  2.1524  0.5989
  129OSM    H2G13892   3.674   3.834   6.873  0.0442 -0.5326 -0.8835
  129OSM    C3F13893   3.526   3.982   6.832  0.1569 -0.1879  0.4907
  129OSM    H3F13894   3.458   3.940   6.909 -0.0360  0.5735  0.7525
  129OSM    H3G13895   3.448   4.014   6.759  2.4173  2.1519 -1.0623
  129OSM    C4F13896   3.604   4.097   6.889 -0.1871  0.6488 -0.0971
  129OSM    H4F13897   3.654   4.135   6.797  1.2083 -1.7391 -0.3944
  129OSM    H4G13898   3.682   4.059   6.958 -0.1327 -0.3214 -0.6707
  129OSM    C5F13899   3.513   4.193   6.967  0.3473  0.2536 -0.1052
  129OSM    H5F13900   3.433   4.241   6.906  0.5169 -1.8314 -2.0979
  129OSM    H5G13901   3.582   4.278   6.986  0.8621 -0.0375 -0.6354
  129OSM    C6F13902   3.449   4.156   7.105  0.7570  0.1692  0.1727
  129OSM    H6F13903   3.530   4.113   7.168 -1.0296 -1.4055  1.4876
  129OSM    H6G13904   3.382   4.071   7.080  0.6953 -0.3125  1.8575
  129OSM    C7F13905   3.377   4.269   7.183 -0.1821 -1.0047  0.0028
  129OSM    H7F13906   3.300   4.311   7.115 -0.1227 -0.2308  0.3997
  129OSM    H7G13907   3.459   4.341   7.205  0.0123 -0.5947 -1.9116
  129OSM    C8F13908   3.303   4.238   7.317 -1.0083 -0.2671  0.1914
  129OSM    H8F13909   3.224   4.169   7.281 -0.0289 -0.0918 -2.5670
  129OSM    H8G13910   3.265   4.337   7.352  1.0613  0.5976  0.1531
  129OSM    C9F13911   3.394   4.169   7.422  0.5813 -0.0667 -0.6346
  129OSM    H9F13912   3.434   4.072   7.387  0.5275 -0.6622  0.8891
  129OSM   C10F13913   3.421   4.208   7.546 -0.4633 -0.3085  0.5610
  129OSM   H10F13914   3.489   4.147   7.608  2.0858  0.6013 -1.1645
  129OSM   C11F13915   3.360   4.333   7.602 -0.0803 -0.3040  0.1678
  129OSM   H11F13916   3.347   4.413   7.525  0.5547 -0.0960  0.2684
  129OSM   H11G13917   3.428   4.377   7.678  0.6244 -1.3011  0.1214
  129OSM   C12F13918   3.232   4.307   7.688  0.0827  0.2878  0.4434
  129OSM   H12F13919   3.148   4.288   7.616  0.4200 -0.5652  0.2529
  129OSM   H12G13920   3.202   4.405   7.729  0.8350  0.5786  0.3054
  129OSM   C13F13921   3.241   4.203   7.793  0.5123 -0.1830 -0.2631
  129OSM   H13F13922   3.285   4.105   7.765  2.5649  0.3562  0.9252
  129OSM   H13G13923   3.132   4.192   7.816  0.1593  1.2692 -1.1328
  129OSM   C14F13924   3.315   4.255   7.923  0.8460  0.2402  0.6873
  129OSM   H14F13925   3.263   4.350   7.947 -0.5126 -0.7828  2.0031
  129OSM   H14G13926   3.422   4.278   7.904  0.5778  1.0885  0.1630
  129OSM   C15F13927   3.305   4.160   8.040  0.0820 -0.0371 -0.2255
  129OSM   H15F13928   3.361   4.067   8.013 -1.0599 -0.7418 -0.2061
  129OSM   H15G13929   3.197   4.139   8.055  0.2820  0.4509  2.3826
  129OSM   C16F13930   3.355   4.211   8.172  0.0556 -0.7758  0.4723
  129OSM   H16F13931   3.297   4.304   8.186  0.5019  0.1408 -2.9302
  129OSM   H16G13932   3.462   4.243   8.170  0.8151 -3.0600  1.1324
  129OSM   C17F13933   3.340   4.114   8.283 -0.5966 -0.5937  0.6053
  129OSM   H17F13934   3.407   4.028   8.261  0.3165  0.2423  0.0696
  129OSM   H17G13935   3.233   4.084   8.281 -0.4929 -0.9937 -1.7352
  129OSM   C18F13936   3.379   4.190   8.410  0.3690 -0.4784 -0.3846
  129OSM   H18F13937   3.401   4.109   8.484  0.4753 -0.4608 -0.3981
  129OSM   H18G13938   3.286   4.235   8.451  1.6878 -1.0721  3.7649
  129OSM   H18H13939   3.459   4.265   8.398 -2.0799  2.0279 -2.1782
  130OSM      N13940   0.047   5.872   5.809 -0.0699  0.4056  0.2839
  130OSM    C1513941   0.018   5.739   5.865 -0.1708  0.0577  0.0284
  130OSM   H15A13942  -0.087   5.717   5.854 -0.4468  1.1354  0.3506
  130OSM   H15B13943   0.033   5.739   5.972 -1.4210 -2.4670  0.2803
  130OSM   H15C13944   0.071   5.658   5.817  0.0103 -0.9770  1.9034
  130OSM    C1413945   0.199   5.896   5.808  0.2639 -0.1376  0.1330
  130OSM   H14A13946   0.224   6.001   5.808 -1.1298  0.2352 -0.8993
  130OSM   H14B13947   0.251   5.852   5.725  0.7826  1.4253 -0.4085
  130OSM   H14C13948   0.242   5.866   5.903  0.0296  0.6897  0.5127
  130OSM    C1313949  -0.005   5.885   5.664  0.0884 -0.6516 -0.4613
  130OSM   H13A13950  -0.112   5.879   5.677 -0.1293 -1.0721 -2.2256
  130OSM   H13B13951   0.032   5.808   5.598 -1.4507  0.9726 -3.4534
  130OSM   H13C13952   0.015   5.985   5.628 -0.1129  0.1056  1.3914
  130OSM    C1213953  -0.023   5.976   5.890 -0.0673  0.0442  0.5733
  130OSM   H12A13954  -0.129   5.975   5.873 -0.2817 -1.6956  1.7764
  130OSM   H12B13955   0.017   6.068   5.849  2.3406 -1.2746 -0.2872
  130OSM    C1113956  -0.008   5.985   6.047 -0.4369  0.3069  0.7215
  130OSM   H11A13957  -0.051   6.072   6.101  1.1386 -0.7078  3.8767
  130OSM   H11B13958   0.103   5.992   6.053 -0.4166  1.5720 -0.7170
  130OSM      P13959   0.015   5.798   6.240  0.3469  0.1540 -0.1844
  130OSM    O1313960  -0.086   5.750   6.334  0.1825 -0.0945  0.3343
  130OSM    O1413961   0.107   5.695   6.188 -0.3817  0.0630 -0.1883
  130OSM    O1113962   0.106   5.910   6.306  0.6059 -0.0774 -1.1842
  130OSM    O1213963  -0.053   5.861   6.109 -0.1144 -0.0194 -0.5013
  130OSM    C1S13964   0.066   5.988   6.424  0.1938 -0.6485 -0.1011
  130OSM    H1S13965  -0.045   5.991   6.425 -0.0513 -4.6536 -0.1326
  130OSM    H1T13966   0.093   6.094   6.407  0.1606 -0.4623  0.9459
  130OSM     NF13967   0.117   6.045   6.665 -0.0600  0.4042 -0.3019
  130OSM    HNF13968   0.204   6.079   6.701  0.2835 -0.7859  0.0479
  130OSM    C2S13969   0.126   5.941   6.560 -0.4457  0.1835  0.2868
  130OSM    H2S13970   0.079   5.847   6.596 -1.9416  1.8607  3.0845
  130OSM    C3S13971   0.279   5.890   6.543  0.2457 -0.0020  0.0253
  130OSM    H3S13972   0.337   5.973   6.497  1.0136 -0.7240 -0.3367
  130OSM     O313973   0.303   5.781   6.462  0.5388  0.1655  0.3448
  130OSM    HO313974   0.220   5.791   6.415  1.3925  1.0343 -1.0596
  130OSM    C4S13975   0.339   5.857   6.679 -0.0590  0.5202 -0.2322
  130OSM    H4S13976   0.276   5.793   6.742 -0.9181  1.1518 -0.4303
  130OSM    C5S13977   0.451   5.906   6.737 -0.0625  0.3395  0.2894
  130OSM    H5S13978   0.517   5.975   6.682 -0.9999  0.6555 -0.4766
  130OSM    C6S13979   0.506   5.864   6.872  0.6953 -0.0801 -0.7206
  130OSM    H6S13980   0.497   5.945   6.947  0.2255  0.1459 -1.0170
  130OSM    H6T13981   0.615   5.851   6.858  0.6436 -0.0791 -1.1214
  130OSM    C7S13982   0.456   5.730   6.919 -0.1221 -0.1553 -0.3816
  130OSM    H7S13983   0.467   5.655   6.837  1.8836  0.4452 -0.7259
  130OSM    H7T13984   0.348   5.743   6.940  0.1046 -0.4368  1.0772
  130OSM    C8S13985   0.523   5.688   7.053  0.1351 -0.4986 -0.8482
  130OSM    H8S13986   0.633   5.702   7.049  0.4552 -1.7411  1.4761
  130OSM    H8T13987   0.509   5.579   7.065 -2.9631 -0.1052 -0.1674
  130OSM    C9S13988   0.434   5.742   7.172 -0.0455 -0.2536  0.5281
  130OSM    H9S13989   0.391   5.839   7.141  1.2981  0.2613  0.1830
  130OSM    H9T13990   0.507   5.759   7.254  0.9527  0.2441 -0.4422
  130OSM   C10S13991   0.330   5.643   7.221 -0.3411 -0.2373  0.2419
  130OSM   H10S13992   0.360   5.538   7.242  1.9198  0.5463  1.1471
  130OSM   H10T13993   0.259   5.646   7.135  0.7545 -2.6989 -0.8649
  130OSM   C11S13994   0.253   5.694   7.347 -0.2652  0.0718 -0.0590
  130OSM   H11S13995   0.164   5.629   7.361  0.1930 -0.5356  0.0741
  130OSM   H11T13996   0.213   5.793   7.317 -1.3810  0.1128  1.4502
  130OSM   C12S13997   0.340   5.704   7.476  0.1876  0.6694  0.0542
  130OSM   H12S13998   0.421   5.780   7.465  0.3757  0.9972  3.0296
  130OSM   H12T13999   0.393   5.609   7.498 -0.9050  0.8317  4.0821
  130OSM   C13S14000   0.255   5.736   7.598 -0.5231 -0.2973  0.2564
  130OSM   H13S14001   0.179   5.656   7.615 -2.1117  1.5378  2.3783
  130OSM   H13T14002   0.191   5.825   7.584 -2.4641 -1.5289  0.8535
  130OSM   C14S14003   0.339   5.745   7.729 -0.2263 -0.4936  0.2808
  130OSM   H14S14004   0.393   5.842   7.720  1.0635 -1.3039 -1.2160
  130OSM   H14T14005   0.415   5.665   7.743  0.6066  0.4301  1.3082
  130OSM   C15S14006   0.242   5.732   7.853  0.1814  0.3653 -0.1702
  130OSM   H15S14007   0.174   5.646   7.834  0.9226  0.2369 -2.6277
  130OSM   H15T14008   0.181   5.824   7.865  1.0875  0.9929 -0.3260
  130OSM   C16S14009   0.325   5.717   7.974  0.2724  0.1683 -0.2598
  130OSM   H16S14010   0.407   5.788   7.997 -0.5813  0.8452  0.7819
  130OSM   H16T14011   0.383   5.623   7.966  1.4551  0.7292  1.1635
  130OSM   C17S14012   0.241   5.717   8.105 -0.9240 -0.2779  0.8153
  130OSM   H17S14013   0.307   5.665   8.177 -2.7707 -2.5351  1.0015
  130OSM   H17T14014   0.145   5.667   8.081 -1.2838  0.8866 -0.3012
  130OSM   C18S14015   0.224   5.865   8.141 -0.3892  0.1113 -0.0266
  130OSM   H18S14016   0.159   5.923   8.073  0.9508  0.2835 -1.2168
  130OSM   H18T14017   0.326   5.909   8.140 -0.3096 -0.0764 -0.7659
  130OSM   H18U14018   0.179   5.872   8.243  0.2545  0.0486  0.2717
  130OSM    C1F14019  -0.006   6.072   6.714 -0.1370  0.3999  0.1541
  130OSM     OF14020  -0.108   6.034   6.655 -0.1908 -0.0509 -0.7574
  130OSM    C2F14021  -0.021   6.142   6.846 -0.3555  0.0501  0.7340
  130OSM    H2F14022   0.014   6.247   6.831 -2.3600  0.6553 -0.0879
  130OSM    H2G14023   0.039   6.086   6.921  2.0052 -1.2757 -1.9525
  130OSM    C3F14024  -0.170   6.169   6.895 -0.9202 -0.2918  0.4585
  130OSM    H3F14025  -0.227   6.074   6.911  1.4344 -2.0449 -0.8936
  130OSM    H3G14026  -0.230   6.214   6.813 -1.3682 -1.1076  0.3189
  130OSM    C4F14027  -0.178   6.266   7.012 -0.2008  0.2286 -0.5263
  130OSM    H4F14028  -0.285   6.263   7.041 -0.5195 -0.6982 -1.7479
  130OSM    H4G14029  -0.150   6.367   6.977  2.7849 -0.6091 -0.8514
  130OSM    C5F14030  -0.082   6.224   7.128 -0.1555  0.0001  0.3521
  130OSM    H5F14031   0.018   6.272   7.114 -0.4402  0.0404 -1.9532
  130OSM    H5G14032  -0.075   6.113   7.130  1.1032  0.0709  0.9706
  130OSM    C6F14033  -0.156   6.260   7.260  0.3932  0.4401 -0.1234
  130OSM    H6F14034  -0.244   6.194   7.271  0.6053  0.2602  0.5359
  130OSM    H6G14035  -0.180   6.368   7.263 -0.7720  0.1735  1.4195
  130OSM    C7F14036  -0.072   6.231   7.385 -0.6981 -0.1424 -0.6483
  130OSM    H7F14037   0.018   6.295   7.375 -1.8377  1.8916  1.2794
  130OSM    H7G14038  -0.036   6.126   7.376 -0.1494  0.0440 -0.7018
  130OSM    C8F14039  -0.150   6.269   7.515 -0.4275 -0.5186 -0.5128
  130OSM    H8F14040  -0.248   6.218   7.520 -1.3315  1.1523 -0.6103
  130OSM    H8G14041  -0.183   6.373   7.496 -0.4506 -0.7583 -1.9331
  130OSM    C9F14042  -0.069   6.260   7.643  0.4894  0.6100 -0.2598
  130OSM    H9F14043   0.033   6.243   7.606 -1.0810  0.1715 -5.1982
  130OSM   C10F14044  -0.108   6.268   7.772  0.2389 -0.1535  0.6487
  130OSM   H10F14045  -0.035   6.247   7.851 -0.0264  0.2456  1.0060
  130OSM   C11F14046  -0.250   6.292   7.819 -0.0649 -0.2725  0.3792
  130OSM   H11F14047  -0.298   6.192   7.815 -1.1672  0.2590 -0.6935
  130OSM   H11G14048  -0.317   6.360   7.760 -1.5011  1.4636  3.7399
  130OSM   C12F14049  -0.280   6.355   7.960 -0.1782  0.1277  0.3800
  130OSM   H12F14050  -0.218   6.447   7.954 -0.6876  0.4018 -0.9389
  130OSM   H12G14051  -0.246   6.289   8.043 -1.5897  0.3851  1.1847
  130OSM   C13F14052  -0.433   6.381   7.984 -0.2935  0.1338  0.7687
  130OSM   H13F14053  -0.488   6.285   7.976 -0.5834  0.3056  0.6417
  130OSM   H13G14054  -0.474   6.438   7.897  0.6624  0.0787  0.2696
  130OSM   C14F14055  -0.476   6.457   8.111  0.4302 -0.3340 -0.1714
  130OSM   H14F14056  -0.586   6.470   8.106  0.5989  1.3689 -0.0603
  130OSM   H14G14057  -0.426   6.556   8.099  0.6673 -0.5101 -0.6682
  130OSM   C15F14058  -0.433   6.386   8.234 -0.4587  0.0250  0.2363
  130OSM   H15F14059  -0.325   6.397   8.260 -0.7151  2.9126  0.3944
  130OSM   H15G14060  -0.474   6.283   8.241 -0.2469  0.0314  2.1144
  130OSM   C16F14061  -0.496   6.448   8.365 -0.1098  1.0335 -0.3471
  130OSM   H16F14062  -0.607   6.445   8.370 -0.0401  0.0226  1.2961
  130OSM   H16G14063  -0.470   6.554   8.383  0.3007  1.0105 -0.7751
  130OSM   C17F14064  -0.451   6.380   8.497 -0.8265  0.1312  0.1349
  130OSM   H17F14065  -0.341   6.384   8.494 -0.8397  0.6054  0.2449
  130OSM   H17G14066  -0.478   6.273   8.483 -2.9342  0.8237 -1.8313
  130OSM   C18F14067  -0.499   6.433   8.631  0.4015  0.0331 -0.3762
  130OSM   H18F14068  -0.422   6.418   8.710  2.9749  0.8078 -2.5969
  130OSM   H18G14069  -0.585   6.367   8.653  0.5869 -0.3372 -0.7360
  130OSM   H18H14070  -0.527   6.540   8.622  0.8955  0.0437 -2.4211
  131OSM      N14071   4.287   3.453   5.744 -0.8221 -0.4668 -0.4597
  131OSM    C1514072   4.396   3.354   5.774  0.1004  0.3063  0.0242
  131OSM   H15A14073   4.353   3.277   5.836 -0.5865  0.4894 -0.2126
  131OSM   H15B14074   4.484   3.404   5.810  2.2147 -2.8337 -0.4092
  131OSM   H15C14075   4.442   3.300   5.692  1.3288 -0.6514  1.3137
  131OSM    C1414076   4.309   3.538   5.626 -0.2888 -0.1213  0.3482
  131OSM   H14A14077   4.333   3.473   5.543  0.9517 -2.1194  2.1480
  131OSM   H14B14078   4.396   3.602   5.631 -0.2413  0.0112 -1.4355
  131OSM   H14C14079   4.222   3.596   5.602  0.6552  0.1726 -2.8757
  131OSM    C1314080   4.164   3.378   5.716 -0.3679  0.2993 -0.2294
  131OSM   H13A14081   4.130   3.322   5.802  0.4400 -2.0225 -1.3201
  131OSM   H13B14082   4.171   3.316   5.628  0.6810 -1.0771  0.7749
  131OSM   H13C14083   4.090   3.454   5.700 -1.0349 -0.2284  0.2797
  131OSM    C1214084   4.262   3.549   5.862 -0.3897 -0.0775  0.0196
  131OSM   H12A14085   4.167   3.589   5.833 -0.3714 -1.3133 -1.9397
  131OSM   H12B14086   4.340   3.624   5.866 -0.3799 -0.1150  0.6823
  131OSM    C1114087   4.250   3.487   5.999 -0.4973 -0.1231 -1.1829
  131OSM   H11A14088   4.248   3.566   6.078  0.4774 -1.4924  0.2885
  131OSM   H11B14089   4.336   3.422   6.025 -1.2370 -0.4767  0.5620
  131OSM      P14090   3.995   3.474   6.017  0.2408  0.0212  0.0857
  131OSM    O1314091   4.006   3.620   5.988 -0.0768  0.2682  0.1312
  131OSM    O1414092   3.896   3.414   5.923  0.6267  0.1833  0.2082
  131OSM    O1114093   3.948   3.443   6.163 -0.2177 -0.7873 -0.5523
  131OSM    O1214094   4.133   3.398   6.007  0.1762 -0.2143 -0.3492
  131OSM    C1S14095   4.003   3.504   6.278  0.2615 -0.7064  0.7390
  131OSM    H1S14096   3.962   3.607   6.289  2.4499  0.2885  0.0540
  131OSM    H1T14097   4.113   3.514   6.269  0.2017 -0.5679  0.0585
  131OSM     NF14098   4.004   3.484   6.519  0.3610 -0.3282 -0.2639
  131OSM    HNF14099   4.095   3.457   6.548 -0.8289 -3.1879  1.2022
  131OSM    C2S14100   3.954   3.419   6.403  0.3919 -1.1396 -0.3034
  131OSM    H2S14101   3.843   3.420   6.402  0.3673 -1.3047  1.0081
  131OSM    C3S14102   3.996   3.270   6.394 -0.1818 -0.6913  0.0044
  131OSM    H3S14103   4.104   3.272   6.365  0.0938 -2.3899  0.7800
  131OSM     O314104   3.930   3.203   6.285  0.0212  0.1857 -0.6837
  131OSM    HO314105   3.924   3.262   6.210 -0.1764 -0.6772 -1.3766
  131OSM    C4S14106   3.959   3.202   6.523  0.1549  0.1668  0.8516
  131OSM    H4S14107   3.852   3.208   6.548 -0.1874 -1.6389 -0.0105
  131OSM    C5S14108   4.051   3.151   6.611 -0.0682  0.0214  0.6217
  131OSM    H5S14109   4.154   3.173   6.582 -0.2415  0.1836  0.1152
  131OSM    C6S14110   4.026   3.091   6.748  0.5098  0.0947 -0.3433
  131OSM    H6S14111   4.024   3.182   6.812 -1.2316 -1.8262  2.5913
  131OSM    H6T14112   4.111   3.038   6.796  0.6094 -0.3282 -0.9848
  131OSM    C7S14113   3.892   3.005   6.755 -0.0593 -0.5067  0.0167
  131OSM    H7S14114   3.899   2.921   6.682 -0.5232  0.8006 -1.5946
  131OSM    H7T14115   3.807   3.070   6.725 -2.1160 -2.4958  1.1879
  131OSM    C8S14116   3.861   2.940   6.883  0.0040 -0.5021 -0.3552
  131OSM    H8S14117   3.776   2.870   6.868 -0.7867  0.1607  0.8536
  131OSM    H8T14118   3.822   3.012   6.958 -0.3451 -0.3674 -0.6677
  131OSM    C9S14119   3.971   2.859   6.957  1.0004  0.0590 -0.1811
  131OSM    H9S14120   4.044   2.934   6.991  0.0230  0.9101  0.0850
  131OSM    H9T14121   4.028   2.799   6.883 -0.9686  0.0007 -1.7477
  131OSM   C10S14122   3.909   2.768   7.065 -0.0447  0.1835  0.1763
  131OSM   H10S14123   3.862   2.677   7.020 -1.7917  1.0169  0.2486
  131OSM   H10T14124   3.824   2.815   7.119 -1.5953 -1.7997 -0.3908
  131OSM   C11S14125   4.011   2.724   7.165 -0.3414  0.0260 -0.0846
  131OSM   H11S14126   4.072   2.807   7.208  1.7219 -1.1148 -0.6595
  131OSM   H11T14127   4.081   2.669   7.098 -1.9011 -1.5816 -0.4695
  131OSM   C12S14128   3.962   2.634   7.279 -0.9031  0.1286  1.4937
  131OSM   H12S14129   3.910   2.558   7.217  0.2928 -0.1979  0.8701
  131OSM   H12T14130   3.887   2.680   7.347 -2.9979 -0.1623 -0.4977
  131OSM   C13S14131   4.084   2.582   7.353  0.1225 -0.8645 -0.0213
  131OSM   H13S14132   4.124   2.669   7.409  1.0095  0.2465 -2.2365
  131OSM   H13T14133   4.160   2.553   7.277 -0.3114  1.3837 -1.4204
  131OSM   C14S14134   4.043   2.458   7.434  0.2723 -0.5486 -0.1275
  131OSM   H14S14135   4.129   2.391   7.453 -0.5137 -2.5033 -2.8516
  131OSM   H14T14136   3.974   2.391   7.378 -0.0691 -1.1410  0.9791
  131OSM   C15S14137   3.975   2.504   7.564  0.5170 -0.4961 -0.8004
  131OSM   H15S14138   3.874   2.538   7.531  1.0075  0.9133 -0.8993
  131OSM   H15T14139   4.030   2.577   7.626 -0.9808 -1.0638  1.3360
  131OSM   C16S14140   3.955   2.388   7.673 -0.0883  0.7013  0.5811
  131OSM   H16S14141   4.050   2.331   7.681 -0.6453 -0.4674 -0.7125
  131OSM   H16T14142   3.878   2.313   7.644  0.6544 -0.4306  1.4443
  131OSM   C17S14143   3.918   2.435   7.810 -0.3630 -0.4341  0.2961
  131OSM   H17S14144   3.821   2.489   7.801  0.5931  1.1425 -1.2044
  131OSM   H17T14145   3.990   2.515   7.837  0.8429 -1.4086  0.0765
  131OSM   C18S14146   3.916   2.323   7.922  0.1028 -0.1770  0.5032
  131OSM   H18S14147   3.853   2.234   7.898  0.5081 -0.8645  1.8931
  131OSM   H18T14148   3.878   2.356   8.021 -1.8074  1.7315 -0.7887
  131OSM   H18U14149   4.023   2.293   7.930  0.8913  2.5915  1.2158
  131OSM    C1F14150   3.952   3.591   6.574  1.1979 -0.5106  0.8874
  131OSM     OF14151   3.838   3.626   6.554  0.3880  0.3114 -0.1774
  131OSM    C2F14152   4.041   3.667   6.674 -0.0262 -0.4142  0.5349
  131OSM    H2F14153   4.098   3.750   6.627  0.8201 -0.7920  0.8829
  131OSM    H2G14154   4.119   3.596   6.710 -0.9039 -0.9875  1.3547
  131OSM    C3F14155   3.958   3.722   6.793 -0.2476  0.7134  0.2348
  131OSM    H3F14156   3.910   3.632   6.839  0.3074  0.0439 -0.4754
  131OSM    H3G14157   3.886   3.793   6.747 -0.3251 -1.3398 -3.1665
  131OSM    C4F14158   4.037   3.806   6.899 -0.0891  0.0402  0.4375
  131OSM    H4F14159   4.096   3.884   6.846 -0.1519 -0.9311 -1.1144
  131OSM    H4G14160   4.105   3.735   6.951 -1.6904 -1.0091  1.1965
  131OSM    C5F14161   3.950   3.879   6.994  0.1292  0.5656  1.0070
  131OSM    H5F14162   3.874   3.942   6.942  2.3281  1.7339 -1.0315
  131OSM    H5G14163   4.001   3.962   7.048 -0.6444  0.8413  1.3339
  131OSM    C6F14164   3.882   3.798   7.102 -0.3477  0.3780  0.3526
  131OSM    H6F14165   3.966   3.748   7.155 -0.8172 -0.4778  0.3066
  131OSM    H6G14166   3.834   3.718   7.041  0.5105  0.5375 -0.5631
  131OSM    C7F14167   3.791   3.869   7.199  0.9987 -0.3588  0.5686
  131OSM    H7F14168   3.715   3.919   7.135  0.3007  0.5849  2.0586
  131OSM    H7G14169   3.854   3.932   7.265  0.3393 -0.8649  1.7179
  131OSM    C8F14170   3.717   3.771   7.298 -1.0688 -0.5000 -0.4799
  131OSM    H8F14171   3.798   3.718   7.353 -0.0302  0.2771 -1.2033
  131OSM    H8G14172   3.669   3.685   7.247  0.6895 -2.4169  0.9465
  131OSM    C9F14173   3.623   3.836   7.392  0.1223  0.3369  0.2680
  131OSM    H9F14174   3.527   3.874   7.354 -0.6006  1.0561  2.6223
  131OSM   C10F14175   3.649   3.869   7.520 -0.2748  0.6699 -0.3815
  131OSM   H10F14176   3.563   3.916   7.571 -1.4666 -1.1704 -0.5893
  131OSM   C11F14177   3.775   3.845   7.602  0.7901 -0.0765 -0.1342
  131OSM   H11F14178   3.788   3.936   7.664 -0.1281  1.3896 -1.9784
  131OSM   H11G14179   3.868   3.832   7.542  0.8843  0.4509 -0.1077
  131OSM   C12F14180   3.760   3.736   7.704  0.1940 -0.0544  0.2598
  131OSM   H12F14181   3.858   3.712   7.752  0.3682 -0.1927 -0.1593
  131OSM   H12G14182   3.716   3.648   7.653  2.6273 -0.2383 -1.7223
  131OSM   C13F14183   3.671   3.783   7.819 -0.0825  0.2381 -0.3873
  131OSM   H13F14184   3.563   3.781   7.790 -0.3054 -0.6841  0.4533
  131OSM   H13G14185   3.704   3.881   7.861 -1.0969  0.3423  0.2067
  131OSM   C14F14186   3.698   3.687   7.934  0.5217  0.3984  0.8980
  131OSM   H14F14187   3.807   3.680   7.954  0.4662  2.6146  2.3628
  131OSM   H14G14188   3.661   3.590   7.894  0.8426 -0.2116  2.0572
  131OSM   C15F14189   3.628   3.721   8.065 -0.4323  0.0851 -0.2557
  131OSM   H15F14190   3.518   3.732   8.056 -0.3948  0.0440 -0.8108
  131OSM   H15G14191   3.677   3.815   8.095 -1.5189  0.2354  1.1304
  131OSM   C16F14192   3.662   3.616   8.170  0.0990 -0.2455  0.0082
  131OSM   H16F14193   3.768   3.623   8.205  0.6489 -2.5492 -1.0131
  131OSM   H16G14194   3.652   3.514   8.127 -0.2636 -0.7547  1.2401
  131OSM   C17F14195   3.569   3.637   8.286 -0.6280  0.2879 -0.0854
  131OSM   H17F14196   3.576   3.562   8.368  0.3145 -0.2584 -0.6594
  131OSM   H17G14197   3.461   3.636   8.258 -0.2370  0.1946 -1.6562
  131OSM   C18F14198   3.590   3.771   8.356 -0.0339  0.0339 -0.0757
  131OSM   H18F14199   3.573   3.868   8.304 -0.0348  0.5459  0.8436
  131OSM   H18G14200   3.682   3.783   8.418  0.3379  1.2691 -0.8322
  131OSM   H18H14201   3.509   3.773   8.433 -0.4733  2.1158 -0.5366
  132OSM      N14202   0.055   2.513   6.261  1.0077 -0.1903  0.1097
  132OSM    C1514203  -0.037   2.466   6.149 -0.4108 -0.3771 -0.9602
  132OSM   H15A14204  -0.136   2.439   6.182 -0.1564  1.4903  1.7614
  132OSM   H15B14205   0.011   2.389   6.092 -0.6906  0.4665 -2.3739
  132OSM   H15C14206  -0.059   2.545   6.078 -0.0476  1.3595  0.7527
  132OSM    C1414207   0.118   2.395   6.334  0.8046 -0.3465  0.0469
  132OSM   H14A14208   0.206   2.366   6.279  0.3995 -1.2145 -0.1696
  132OSM   H14B14209   0.046   2.314   6.338 -0.5616  0.8384  0.1264
  132OSM   H14C14210   0.156   2.432   6.428 -0.1112  1.2687 -0.1861
  132OSM    C1314211   0.166   2.599   6.224 -0.2452  0.3908  0.1418
  132OSM   H13A14212   0.129   2.678   6.161  0.3622  1.7352  1.4228
  132OSM   H13B14213   0.250   2.556   6.170  1.0612  0.4128  2.0802
  132OSM   H13C14214   0.200   2.653   6.310 -2.0725  1.3425  0.3122
  132OSM    C1214215  -0.029   2.582   6.368 -0.2415 -0.4116  0.4269
  132OSM   H12A14216   0.038   2.638   6.431  2.2542 -0.2307 -2.1687
  132OSM   H12B14217  -0.085   2.501   6.413 -1.5382 -0.6326 -1.4889
  132OSM    C1114218  -0.129   2.683   6.311 -0.1217 -0.3270  0.1407
  132OSM   H11A14219  -0.092   2.756   6.236  0.1245  0.0245  0.6010
  132OSM   H11B14220  -0.164   2.750   6.393 -0.9310 -1.9366  1.1696
  132OSM      P14221  -0.356   2.550   6.337  0.2652 -0.1502  0.0867
  132OSM    O1314222  -0.483   2.606   6.297 -0.1030 -0.1306  0.7784
  132OSM    O1414223  -0.356   2.403   6.324 -0.7772  0.3395  0.6985
  132OSM    O1114224  -0.319   2.578   6.491 -0.1482 -0.2798  0.1706
  132OSM    O1214225  -0.240   2.612   6.255  0.0984 -0.0362  0.5642
  132OSM    C1S14226  -0.443   2.585   6.569  0.0887  0.2263 -0.1430
  132OSM    H1S14227  -0.478   2.481   6.585  0.8104 -0.2156 -1.2698
  132OSM    H1T14228  -0.514   2.647   6.510  1.5483  0.0707 -2.1847
  132OSM     NF14229  -0.530   2.593   6.789  0.5296 -0.2361 -0.1537
  132OSM    HNF14230  -0.598   2.661   6.813 -0.0871 -1.4040  1.6237
  132OSM    C2S14231  -0.417   2.637   6.716  0.4169  0.7369  0.2969
  132OSM    H2S14232  -0.323   2.594   6.757  0.5550  1.6222  0.9421
  132OSM    C3S14233  -0.420   2.791   6.706 -0.6980  0.0128 -0.0116
  132OSM    H3S14234  -0.521   2.830   6.680  0.0660  2.3542  0.2492
  132OSM     O314235  -0.337   2.840   6.597 -0.1784 -0.3211 -0.2569
  132OSM    HO314236  -0.311   2.757   6.556 -0.6063 -1.4420  1.6098
  132OSM    C4S14237  -0.388   2.858   6.840  0.1256  0.0481 -0.3287
  132OSM    H4S14238  -0.464   2.847   6.919  1.1978  0.3721  0.7970
  132OSM    C5S14239  -0.264   2.899   6.880 -1.2898 -0.2932  0.5326
  132OSM    H5S14240  -0.176   2.884   6.816  0.0076  3.3865  1.1781
  132OSM    C6S14241  -0.240   2.964   7.017 -0.7378  0.4229  0.7143
  132OSM    H6S14242  -0.180   3.055   6.994 -0.8880  0.6410  1.1650
  132OSM    H6T14243  -0.186   2.894   7.084 -1.8953  0.1666  1.4089
  132OSM    C7S14244  -0.363   3.016   7.096  0.8224 -0.4788 -0.9015
  132OSM    H7S14245  -0.435   2.934   7.112  0.2013  0.3575  0.8592
  132OSM    H7T14246  -0.410   3.103   7.044  1.3705  0.8598  0.7322
  132OSM    C8S14247  -0.344   3.070   7.242  0.0181  0.1697 -0.0816
  132OSM    H8S14248  -0.256   3.138   7.234 -0.5196  0.8033 -0.7615
  132OSM    H8T14249  -0.329   2.986   7.313  0.1326  2.2817  2.5299
  132OSM    C9S14250  -0.464   3.154   7.298 -0.8648  0.2684  0.1507
  132OSM    H9S14251  -0.557   3.096   7.284  0.4458 -1.7341 -0.8151
  132OSM    H9T14252  -0.456   3.239   7.227  1.2618  0.1905  0.2301
  132OSM   C10S14253  -0.444   3.215   7.433 -0.5025 -0.4404  0.8665
  132OSM   H10S14254  -0.355   3.282   7.432 -0.4930 -0.4084 -1.4534
  132OSM   H10T14255  -0.403   3.138   7.502  2.5265  1.4565  1.3574
  132OSM   C11S14256  -0.558   3.298   7.492 -0.4428  0.0641 -0.0398
  132OSM   H11S14257  -0.660   3.264   7.464 -0.7794 -0.4982  1.7016
  132OSM   H11T14258  -0.546   3.395   7.439 -0.6271  0.1477  0.0675
  132OSM   C12S14259  -0.544   3.319   7.649 -0.4871  0.1899 -0.0840
  132OSM   H12S14260  -0.608   3.403   7.682  1.6377  0.8703  2.6268
  132OSM   H12T14261  -0.435   3.338   7.662 -0.6759  1.5308 -0.3871
  132OSM   C13S14262  -0.604   3.205   7.736  0.3278  0.6130 -0.2743
  132OSM   H13S14263  -0.550   3.109   7.724 -0.7780  0.1032 -1.3813
  132OSM   H13T14264  -0.711   3.202   7.707 -0.6098 -0.3245  2.8579
  132OSM   C14S14265  -0.588   3.236   7.884  0.1079 -0.3531 -0.4232
  132OSM   H14S14266  -0.665   3.310   7.915 -1.5016 -1.8386 -0.6991
  132OSM   H14T14267  -0.495   3.292   7.906  0.1440 -0.2729 -0.7667
  132OSM   C15S14268  -0.621   3.109   7.965  0.3103 -0.5912  0.1530
  132OSM   H15S14269  -0.538   3.035   7.968  1.9108  0.8383 -3.2964
  132OSM   H15T14270  -0.716   3.071   7.921 -0.0824  0.8311 -0.2683
  132OSM   C16S14271  -0.657   3.143   8.111 -0.6806 -0.4906  0.1954
  132OSM   H16S14272  -0.718   3.235   8.126  0.4600 -0.0268  2.3455
  132OSM   H16T14273  -0.564   3.153   8.172 -1.1230 -1.0864  0.9784
  132OSM   C17S14274  -0.741   3.036   8.174 -0.4792  1.3247  0.2514
  132OSM   H17S14275  -0.838   3.021   8.121 -0.0630  2.1689 -0.7860
  132OSM   H17T14276  -0.760   3.079   8.275 -1.0089  2.6158 -0.3774
  132OSM   C18S14277  -0.667   2.898   8.199  0.8011 -0.0787  0.2978
  132OSM   H18S14278  -0.658   2.845   8.102 -1.3920  1.7529 -1.0062
  132OSM   H18T14279  -0.733   2.840   8.267  3.2075 -1.5753  1.4794
  132OSM   H18U14280  -0.570   2.908   8.253  0.0280 -1.7608  2.0968
  132OSM    C1F14281  -0.536   2.473   6.843  0.6223 -0.4515 -0.4169
  132OSM     OF14282  -0.440   2.400   6.840 -0.3169 -0.0123  0.4904
  132OSM    C2F14283  -0.649   2.424   6.924  0.3056 -0.0732 -0.4447
  132OSM    H2F14284  -0.740   2.477   6.891  0.1218  0.2619  0.5549
  132OSM    H2G14285  -0.622   2.447   7.030  1.0907 -2.0952 -0.1540
  132OSM    C3F14286  -0.686   2.277   6.905  0.0722 -0.1771  0.5636
  132OSM    H3F14287  -0.606   2.205   6.931 -0.3052 -0.7743  0.1041
  132OSM    H3G14288  -0.710   2.263   6.797  0.2294  1.8991  0.2318
  132OSM    C4F14289  -0.805   2.233   6.998  0.2758  0.4444 -0.1833
  132OSM    H4F14290  -0.875   2.163   6.949  1.0072 -1.5762  1.4906
  132OSM    H4G14291  -0.865   2.323   7.025  2.2666  1.0784  2.6622
  132OSM    C5F14292  -0.763   2.161   7.123  0.7137 -0.8576 -0.5788
  132OSM    H5F14293  -0.705   2.069   7.101  1.2591 -1.8653  4.0191
  132OSM    H5G14294  -0.857   2.125   7.170  1.5380 -1.2377  0.8267
  132OSM    C6F14295  -0.684   2.243   7.232  0.4617 -0.2809 -0.0632
  132OSM    H6F14296  -0.720   2.346   7.250  1.8098  0.0553  0.8335
  132OSM    H6G14297  -0.577   2.254   7.206  0.7040 -0.3672  0.8473
  132OSM    C7F14298  -0.682   2.173   7.371  0.3906  0.2747 -0.8077
  132OSM    H7F14299  -0.644   2.069   7.363  0.2380  0.2158 -0.7823
  132OSM    H7G14300  -0.789   2.169   7.401  0.5244  4.4813  0.9555
  132OSM    C8F14301  -0.593   2.237   7.472 -0.1398 -0.7559 -0.0152
  132OSM    H8F14302  -0.629   2.340   7.493 -0.2532 -0.6106 -0.8920
  132OSM    H8G14303  -0.493   2.252   7.427  0.0506  1.0926  0.9171
  132OSM    C9F14304  -0.599   2.173   7.607 -0.3820 -0.4437  0.6204
  132OSM    H9F14305  -0.701   2.143   7.637 -0.5367  0.0877  0.6532
  132OSM   C10F14306  -0.496   2.158   7.688  0.5720  0.1649 -0.5268
  132OSM   H10F14307  -0.512   2.117   7.789  2.1828  2.5760  0.8257
  132OSM   C11F14308  -0.355   2.189   7.664  0.5006 -0.3577 -0.3084
  132OSM   H11F14309  -0.345   2.246   7.570  0.9781  0.7037  0.3592
  132OSM   H11G14310  -0.293   2.101   7.638  0.9448 -0.4377  0.9541
  132OSM   C12F14311  -0.289   2.274   7.778  0.0798  0.1872 -0.4045
  132OSM   H12F14312  -0.290   2.214   7.871 -0.3096  0.8363  0.0118
  132OSM   H12G14313  -0.342   2.369   7.800  1.2320  1.0716 -1.3364
  132OSM   C13F14314  -0.140   2.307   7.749  0.7404 -0.0421 -0.0469
  132OSM   H13F14315  -0.134   2.380   7.665  2.1856 -0.7085 -0.5582
  132OSM   H13G14316  -0.095   2.210   7.718  0.8823 -0.3946  1.2029
  132OSM   C14F14317  -0.062   2.341   7.875  0.2179  0.2892 -0.7198
  132OSM   H14F14318  -0.132   2.377   7.954  3.0089  1.4780  1.3622
  132OSM   H14G14319   0.015   2.418   7.857  1.4189 -0.6286  0.2927
  132OSM   C15F14320   0.007   2.219   7.927 -0.6900  0.1407  0.2547
  132OSM   H15F14321   0.057   2.169   7.841  0.1635 -0.5469  1.1383
  132OSM   H15G14322  -0.071   2.151   7.968  1.9116 -2.7973  0.6511
  132OSM   C16F14323   0.118   2.254   8.036 -0.1202 -1.2253  0.1045
  132OSM   H16F14324   0.182   2.338   8.001 -2.0640  0.3175  0.0743
  132OSM   H16G14325   0.180   2.165   8.058  0.3494 -0.6527  1.1780
  132OSM   C17F14326   0.055   2.297   8.165 -0.0901 -0.0131 -0.0313
  132OSM   H17F14327  -0.008   2.387   8.151 -0.9947 -0.5844  0.2756
  132OSM   H17G14328   0.137   2.334   8.231  1.1118  1.9778 -2.4902
  132OSM   C18F14329  -0.044   2.193   8.223  0.3582 -0.5932 -0.3551
  132OSM   H18F14330  -0.054   2.199   8.334 -0.6068 -1.2033 -0.3922
  132OSM   H18G14331  -0.008   2.088   8.209  0.6123 -0.7252  1.1334
  132OSM   H18H14332  -0.145   2.210   8.181 -0.0024 -1.3425  0.1731
  133OSM      N14333   0.071   3.726   6.192  0.6062  0.7254  0.7103
  133OSM    C1514334  -0.052   3.783   6.121  0.1908  0.2701 -0.8591
  133OSM   H15A14335  -0.043   3.883   6.083  1.5301  1.0662  1.3415
  133OSM   H15B14336  -0.134   3.772   6.189 -0.4244 -1.3889 -1.8143
  133OSM   H15C14337  -0.074   3.729   6.030  0.7867 -0.0207 -0.8351
  133OSM    C1414338   0.036   3.581   6.221 -0.0537  0.2417 -0.2644
  133OSM   H14A14339  -0.039   3.575   6.299 -0.8218  1.4896 -0.8871
  133OSM   H14B14340   0.124   3.527   6.252 -0.6235 -0.3463  0.3716
  133OSM   H14C14341   0.007   3.527   6.132 -0.2387  1.7079 -1.1259
  133OSM    C1314342   0.175   3.746   6.087 -0.4061 -0.5684  0.3866
  133OSM   H13A14343   0.275   3.740   6.126 -0.4499  0.5874  0.7111
  133OSM   H13B14344   0.186   3.840   6.036 -0.2387 -0.4055  0.7272
  133OSM   H13C14345   0.161   3.671   6.010 -0.2375  0.9187 -1.1402
  133OSM    C1214346   0.115   3.804   6.316 -0.1706  0.2961  0.2558
  133OSM   H12A14347   0.024   3.817   6.372 -1.5707 -0.4624 -1.7132
  133OSM   H12B14348   0.141   3.908   6.301 -1.9545  1.0611  1.9822
  133OSM    C1114349   0.234   3.750   6.397  0.4245  0.5158  0.2915
  133OSM   H11A14350   0.205   3.647   6.429 -0.2237 -0.3200 -2.7309
  133OSM   H11B14351   0.248   3.818   6.484  0.6709  0.4540  0.3009
  133OSM      P14352   0.474   3.641   6.363 -0.0614 -0.0903 -0.2376
  133OSM    O1314353   0.489   3.543   6.255  0.1931 -0.4046 -0.1604
  133OSM    O1414354   0.596   3.711   6.423  0.3765  0.1023 -0.1047
  133OSM    O1114355   0.410   3.554   6.480 -0.4577  0.0129 -0.5245
  133OSM    O1214356   0.355   3.744   6.319  0.1194  0.4235 -0.1297
  133OSM    C1S14357   0.497   3.461   6.548  0.1989  0.1782 -0.4761
  133OSM    H1S14358   0.562   3.520   6.616  0.4920  1.4743 -1.8235
  133OSM    H1T14359   0.555   3.402   6.474  0.9445  1.9278 -1.3290
  133OSM     NF14360   0.516   3.261   6.704 -0.9157 -0.6013  0.3492
  133OSM    HNF14361   0.501   3.163   6.689 -0.1865 -0.6082 -0.4424
  133OSM    C2S14362   0.424   3.350   6.639 -1.0465 -1.2907  0.1561
  133OSM    H2S14363   0.374   3.412   6.716 -1.9788 -1.1427 -0.5484
  133OSM    C3S14364   0.308   3.276   6.563  0.1017 -0.1950 -0.0006
  133OSM    H3S14365   0.358   3.227   6.476 -0.7007  0.1282 -0.6629
  133OSM     O314366   0.215   3.357   6.495  0.0052 -0.1558 -0.2868
  133OSM    HO314367   0.270   3.429   6.463  0.7051 -1.3888 -2.0353
  133OSM    C4S14368   0.247   3.176   6.655  0.9095 -0.2299  0.3854
  133OSM    H4S14369   0.294   3.077   6.666 -1.0160 -1.1388  0.8959
  133OSM    C5S14370   0.141   3.190   6.742 -0.3024  0.5774  0.0462
  133OSM    H5S14371   0.086   3.283   6.723 -1.5040  0.4573  2.5579
  133OSM    C6S14372   0.088   3.094   6.844 -0.2595  0.6152 -0.3935
  133OSM    H6S14373   0.093   2.990   6.806 -0.7136  0.4723 -0.0721
  133OSM    H6T14374  -0.021   3.110   6.837 -0.4551 -0.3183  0.2598
  133OSM    C7S14375   0.120   3.119   6.989 -0.2100  0.0635 -0.0525
  133OSM    H7S14376   0.032   3.106   7.055 -0.2796  1.2240  0.1060
  133OSM    H7T14377   0.160   3.221   7.007 -1.9841  0.8086 -0.1602
  133OSM    C8S14378   0.217   3.012   7.050 -0.2621  0.3439  1.1541
  133OSM    H8S14379   0.315   3.026   7.000  0.3372 -3.8509  0.8065
  133OSM    H8T14380   0.187   2.906   7.038 -0.3293  0.4792 -0.0362
  133OSM    C9S14381   0.249   3.029   7.196  0.3980  0.0925  0.7073
  133OSM    H9S14382   0.222   3.134   7.218 -0.9607  0.4998 -2.3890
  133OSM    H9T14383   0.360   3.023   7.209  0.5405  1.7896  0.4420
  133OSM   C10S14384   0.182   2.930   7.294  1.0878  0.1660 -0.1821
  133OSM   H10S14385   0.216   2.949   7.398  0.0687  0.4786  0.1046
  133OSM   H10T14386   0.208   2.825   7.269 -0.9892  0.1703 -2.7847
  133OSM   C11S14387   0.034   2.944   7.294 -0.4488  0.9560 -0.4567
  133OSM   H11S14388  -0.014   2.898   7.205 -4.3307  3.4402  0.1573
  133OSM   H11T14389  -0.004   3.047   7.303  0.5026  1.2567  0.3355
  133OSM   C12S14390  -0.036   2.878   7.413  0.5568 -0.0185 -0.5706
  133OSM   H12S14391  -0.031   2.767   7.406  0.7934  0.0712 -2.3696
  133OSM   H12T14392  -0.142   2.912   7.400  0.0554 -0.4737  1.8904
  133OSM   C13S14393   0.025   2.908   7.547 -0.1831  0.5506  0.0075
  133OSM   H13S14394   0.038   3.017   7.563  0.4926  0.6258 -0.9698
  133OSM   H13T14395   0.125   2.861   7.556 -0.3537  0.4977  2.0763
  133OSM   C14S14396  -0.056   2.848   7.660 -0.2976  0.0177 -0.1380
  133OSM   H14S14397  -0.019   2.879   7.760 -1.4349 -0.1704  0.3483
  133OSM   H14T14398  -0.065   2.737   7.659  2.4374 -0.3091  1.2779
  133OSM   C15S14399  -0.205   2.904   7.681 -0.5459  1.2458 -0.0857
  133OSM   H15S14400  -0.276   2.856   7.610  2.0968 -0.7941 -1.5202
  133OSM   H15T14401  -0.203   3.012   7.653 -0.7751  1.3705  0.3636
  133OSM   C16S14402  -0.269   2.863   7.820  0.0721 -0.3966 -0.9359
  133OSM   H16S14403  -0.353   2.934   7.836  0.6434  0.2246 -0.6031
  133OSM   H16T14404  -0.211   2.891   7.910 -2.5972 -1.1686  1.1410
  133OSM   C17S14405  -0.296   2.720   7.833 -0.3564 -0.0554  0.3498
  133OSM   H17S14406  -0.207   2.655   7.845 -0.2622  0.3264  1.9054
  133OSM   H17T14407  -0.353   2.687   7.743  1.7507 -2.0769 -0.3339
  133OSM   C18S14408  -0.389   2.695   7.952 -0.5594  0.6480  1.2024
  133OSM   H18S14409  -0.476   2.762   7.958 -2.2863 -1.3794  0.2924
  133OSM   H18T14410  -0.335   2.720   8.046 -2.0287 -0.4866  2.4071
  133OSM   H18U14411  -0.422   2.589   7.952  0.7647  0.1822 -0.5229
  133OSM    C1F14412   0.610   3.305   6.788  0.3536 -0.2620 -0.2991
  133OSM     OF14413   0.610   3.422   6.819 -0.1395 -0.7035 -0.3784
  133OSM    C2F14414   0.710   3.198   6.840  0.7268 -0.3500 -0.2428
  133OSM    H2F14415   0.805   3.215   6.784  1.8121  0.2272  1.6777
  133OSM    H2G14416   0.675   3.095   6.818 -0.2200  0.2021 -1.4590
  133OSM    C3F14417   0.731   3.211   6.996 -0.1293 -0.2349 -0.0109
  133OSM    H3F14418   0.759   3.312   7.034  0.2752  0.2723 -1.5832
  133OSM    H3G14419   0.813   3.138   7.008  0.4570  0.5377  0.7854
  133OSM    C4F14420   0.608   3.158   7.073 -0.1496  0.4405 -0.4661
  133OSM    H4F14421   0.598   3.053   7.039  0.3411  0.4218 -0.5567
  133OSM    H4G14422   0.512   3.211   7.053  0.0525  1.1081  0.2830
  133OSM    C5F14423   0.633   3.157   7.224  0.7484  0.3608  0.4728
  133OSM    H5F14424   0.542   3.122   7.277  0.9488  0.9975  1.2753
  133OSM    H5G14425   0.655   3.260   7.262  2.4495 -0.1544  0.9703
  133OSM    C6F14426   0.741   3.063   7.268  0.2957 -0.4431  0.2897
  133OSM    H6F14427   0.841   3.075   7.221  1.5762 -2.2229  2.3798
  133OSM    H6G14428   0.700   2.964   7.240 -2.1731  0.1723  1.4396
  133OSM    C7F14429   0.761   3.067   7.420  0.3141 -0.1716  0.1211
  133OSM    H7F14430   0.811   3.165   7.436 -1.7104  0.8669  0.3875
  133OSM    H7G14431   0.834   2.989   7.447  0.0047 -0.4600  0.1326
  133OSM    C8F14432   0.640   3.056   7.515  0.4186 -0.6796  0.0888
  133OSM    H8F14433   0.601   2.954   7.498  0.6205 -0.4112 -2.3414
  133OSM    H8G14434   0.551   3.115   7.485 -1.2696 -3.0875  0.1173
  133OSM    C9F14435   0.671   3.076   7.658 -0.7042 -0.2335 -0.1370
  133OSM    H9F14436   0.773   3.058   7.695 -1.0656  0.9190  1.5615
  133OSM   C10F14437   0.581   3.098   7.754 -0.6064 -0.7817 -0.5469
  133OSM   H10F14438   0.618   3.121   7.856 -2.5003 -1.9392  0.4600
  133OSM   C11F14439   0.437   3.105   7.736 -0.0027 -0.5048 -0.6643
  133OSM   H11F14440   0.400   3.097   7.632 -1.7599  1.1517 -0.2475
  133OSM   H11G14441   0.386   3.196   7.776 -0.6614 -1.1924  0.1054
  133OSM   C12F14442   0.374   2.990   7.816 -0.5102  0.7696  0.2014
  133OSM   H12F14443   0.412   2.888   7.797 -0.7915  0.1937  2.4492
  133OSM   H12G14444   0.266   2.985   7.789 -0.3247  0.3939 -0.4917
  133OSM   C13F14445   0.403   3.002   7.968  0.6317  0.8468  0.2890
  133OSM   H13F14446   0.379   3.106   8.001  0.1099  0.7405  0.2534
  133OSM   H13G14447   0.512   2.989   7.989  0.4148 -1.2900  0.3266
  133OSM   C14F14448   0.333   2.897   8.051 -0.5530 -0.1565  0.2874
  133OSM   H14F14449   0.359   2.903   8.159  1.0107  0.3918 -0.0938
  133OSM   H14G14450   0.370   2.802   8.007  0.0082  0.1165  0.1673
  133OSM   C15F14451   0.179   2.896   8.034  0.0453  0.5149 -0.0618
  133OSM   H15F14452   0.148   2.856   7.936 -0.9047 -0.3726  0.5801
  133OSM   H15G14453   0.137   2.999   8.038 -1.4519 -0.0357 -1.1126
  133OSM   C16F14454   0.102   2.798   8.130 -1.1376 -0.1105  0.3156
  133OSM   H16F14455   0.128   2.823   8.235 -0.2584 -0.3706  0.1643
  133OSM   H16G14456   0.134   2.695   8.104 -0.7257  0.5701 -2.1076
  133OSM   C17F14457  -0.044   2.799   8.122  0.7608  0.0233 -0.6795
  133OSM   H17F14458  -0.078   2.781   8.018 -1.2115 -2.4302  0.2760
  133OSM   H17G14459  -0.075   2.903   8.147 -1.1320 -1.0533  1.9302
  133OSM   C18F14460  -0.113   2.717   8.230 -0.7263 -0.1441  0.1703
  133OSM   H18F14461  -0.084   2.611   8.208 -0.7006 -0.1941  0.4496
  133OSM   H18G14462  -0.223   2.719   8.215 -0.3999  1.4719 -2.7036
  133OSM   H18H14463  -0.097   2.737   8.338 -0.8217 -0.3091  0.2162
  134OSM      N14464   1.244   6.201   6.385  0.2279  0.0555 -0.0539
  134OSM    C1514465   1.110   6.140   6.359  0.0527  0.3334  0.3528
  134OSM   H15A14466   1.113   6.032   6.352 -0.2597  0.3504 -0.0942
  134OSM   H15B14467   1.082   6.178   6.261  1.7023  1.2698  0.2147
  134OSM   H15C14468   1.036   6.170   6.431 -3.3898 -2.5822 -1.5841
  134OSM    C1414469   1.289   6.141   6.516 -0.6339 -0.0947 -0.3828
  134OSM   H14A14470   1.232   6.177   6.601  0.4400  0.2128  0.2218
  134OSM   H14B14471   1.387   6.181   6.534 -0.4688 -1.3011  1.6620
  134OSM   H14C14472   1.281   6.033   6.519  0.1377 -0.1380  0.7168
  134OSM    C1314473   1.331   6.164   6.282 -0.1930  0.3258 -0.1294
  134OSM   H13A14474   1.354   6.058   6.289 -2.0031 -0.0766  0.5050
  134OSM   H13B14475   1.422   6.222   6.287 -0.9537  1.7178 -1.6920
  134OSM   H13C14476   1.294   6.173   6.181  0.8466 -0.3753 -0.5931
  134OSM    C1214477   1.232   6.356   6.392  0.2787  0.6685  0.4910
  134OSM   H12A14478   1.190   6.390   6.299  0.5024  2.3528  0.9582
  134OSM   H12B14479   1.334   6.390   6.408  0.5792 -0.1210  0.2801
  134OSM    C1114480   1.143   6.416   6.503  0.7698  0.0811  0.9279
  134OSM   H11A14481   1.157   6.526   6.512 -1.2692  0.7045 -2.0348
  134OSM   H11B14482   1.184   6.373   6.597  1.7788  0.1782  0.5430
  134OSM      P14483   0.892   6.342   6.563  0.0036 -0.1142  0.2080
  134OSM    O1314484   0.781   6.435   6.539  0.2220 -0.0647 -0.6850
  134OSM    O1414485   0.855   6.202   6.532 -0.0023  0.5156  0.1197
  134OSM    O1114486   0.959   6.365   6.704  0.1295 -0.3288  0.5650
  134OSM    O1214487   1.004   6.394   6.476  0.2911 -0.4281 -0.4866
  134OSM    C1S14488   0.901   6.398   6.825 -0.0189 -0.5652 -0.0176
  134OSM    H1S14489   0.791   6.377   6.822 -0.0453 -0.4334  0.0162
  134OSM    H1T14490   0.923   6.503   6.853  0.9448 -0.8151  0.1905
  134OSM     NF14491   0.938   6.388   7.072 -0.3141 -0.0747 -0.0112
  134OSM    HNF14492   1.011   6.442   7.112  1.2731 -1.4574 -0.9009
  134OSM    C2S14493   0.956   6.315   6.948  0.4667  0.2754 -0.4089
  134OSM    H2S14494   0.893   6.223   6.948  1.6319 -0.5453 -0.9062
  134OSM    C3S14495   1.105   6.272   6.927 -0.2017  0.1300 -0.1917
  134OSM    H3S14496   1.170   6.362   6.924 -0.7234  0.5248  0.2489
  134OSM     O314497   1.137   6.206   6.809 -0.1311 -0.2655  0.0933
  134OSM    HO314498   1.058   6.217   6.755  0.0856 -1.2999 -0.4847
  134OSM    C4S14499   1.150   6.176   7.032 -0.5240  0.8215 -0.1302
  134OSM    H4S14500   1.111   6.074   7.026 -0.5840  0.9349 -2.2191
  134OSM    C5S14501   1.227   6.210   7.131  0.0370  0.7419 -0.8141
  134OSM    H5S14502   1.254   6.315   7.153  0.2262  0.7019 -0.8557
  134OSM    C6S14503   1.290   6.112   7.233  0.4663  0.0279 -0.4584
  134OSM    H6S14504   1.364   6.167   7.295  2.2447 -0.0832 -2.3757
  134OSM    H6T14505   1.355   6.040   7.179  1.1312  0.6829 -0.5596
  134OSM    C7S14506   1.199   6.044   7.341  0.3356 -0.4380 -0.0327
  134OSM    H7S14507   1.270   5.983   7.401 -1.9019 -0.9092  2.3176
  134OSM    H7T14508   1.132   5.979   7.281  1.1521 -1.6769  0.3618
  134OSM    C8S14509   1.122   6.149   7.424 -0.0849 -0.7474 -0.4577
  134OSM    H8S14510   1.043   6.192   7.359  1.3226  0.2601 -1.5681
  134OSM    H8T14511   1.198   6.222   7.459  0.4285 -2.1197  1.4508
  134OSM    C9S14512   1.061   6.097   7.553  1.0616 -0.0564 -0.1735
  134OSM    H9S14513   1.058   5.987   7.561 -0.4315 -0.0719 -0.6579
  134OSM    H9T14514   0.956   6.133   7.544  1.5624  1.1930 -1.4422
  134OSM   C10S14515   1.125   6.151   7.682  0.5411  0.3568 -0.2609
  134OSM   H10S14516   1.115   6.260   7.663  0.1307  0.4725  0.5534
  134OSM   H10T14517   1.232   6.128   7.701  0.6533 -1.1041 -2.3769
  134OSM   C11S14518   1.054   6.101   7.813 -0.8563 -0.0385  0.4984
  134OSM   H11S14519   0.947   6.085   7.788 -0.5961 -0.0242 -0.6964
  134OSM   H11T14520   1.050   6.183   7.889  0.2962  0.5833 -0.0970
  134OSM   C12S14521   1.126   5.976   7.866 -0.0825 -0.1500  0.6304
  134OSM   H12S14522   1.235   5.983   7.848 -0.2666  0.7049 -0.2285
  134OSM   H12T14523   1.080   5.889   7.814 -1.8408  1.0409  0.1425
  134OSM   C13S14524   1.094   5.955   8.011  0.0697  0.2180  0.3021
  134OSM   H13S14525   0.984   5.956   8.020 -0.3509 -0.0296 -3.1868
  134OSM   H13T14526   1.136   6.043   8.064 -2.2497  1.8787 -0.4726
  134OSM   C14S14527   1.136   5.820   8.069 -0.5181 -0.8063 -0.0012
  134OSM   H14S14528   1.243   5.817   8.038 -0.8146  2.2159 -1.7817
  134OSM   H14T14529   1.088   5.737   8.013  0.7469 -0.5641 -1.5255
  134OSM   C15S14530   1.137   5.805   8.217 -0.4724  0.5856 -0.4093
  134OSM   H15S14531   1.200   5.888   8.257 -2.1635  0.5217  2.6914
  134OSM   H15T14532   1.193   5.711   8.236 -0.5356  1.0998  2.8977
  134OSM   C16S14533   1.003   5.797   8.288 -0.8279 -0.4450  0.5848
  134OSM   H16S14534   0.934   5.737   8.224 -0.8603  1.0103 -0.8214
  134OSM   H16T14535   0.969   5.901   8.308 -1.9875 -0.8377  0.7491
  134OSM   C17S14536   1.019   5.736   8.423  0.2619  0.4895  0.1687
  134OSM   H17S14537   0.919   5.729   8.470 -0.7714  1.5459 -1.7567
  134OSM   H17T14538   1.080   5.796   8.495  2.7362  0.4539 -1.7486
  134OSM   C18S14539   1.088   5.595   8.447  0.2520 -0.3303 -0.5017
  134OSM   H18S14540   1.191   5.592   8.408  1.0154  0.2390  1.3417
  134OSM   H18T14541   1.024   5.524   8.391  0.1193 -1.1222  0.6097
  134OSM   H18U14542   1.088   5.570   8.556  1.6902 -0.7601 -0.5892
  134OSM    C1F14543   0.816   6.401   7.123  0.2375  0.1701  0.2408
  134OSM     OF14544   0.721   6.356   7.062  0.1601  0.1652  0.2092
  134OSM    C2F14545   0.787   6.498   7.234 -0.9597  0.9174  0.2817
  134OSM    H2F14546   0.681   6.529   7.219 -1.3263  0.2819  1.4471
  134OSM    H2G14547   0.859   6.582   7.226 -1.4521  1.2498 -0.8766
  134OSM    C3F14548   0.804   6.417   7.365  0.1717 -0.9126 -0.1981
  134OSM    H3F14549   0.914   6.409   7.382  0.1098  0.9570  1.4653
  134OSM    H3G14550   0.747   6.324   7.341  0.6658 -1.0856 -0.6954
  134OSM    C4F14551   0.740   6.490   7.488  0.9419 -0.5323 -0.1393
  134OSM    H4F14552   0.629   6.483   7.477 -0.0040  0.6489  5.5802
  134OSM    H4G14553   0.775   6.595   7.489  1.4974 -0.6944 -1.0914
  134OSM    C5F14554   0.765   6.416   7.618  0.6021 -0.4098  0.3547
  134OSM    H5F14555   0.873   6.407   7.645  0.4928  0.2248  1.0263
  134OSM    H5G14556   0.731   6.311   7.606 -1.5956  0.4239 -1.4685
  134OSM    C6F14557   0.696   6.468   7.749  0.7645  0.3627 -0.0062
  134OSM    H6F14558   0.590   6.480   7.718  0.3588  2.2458  1.8280
  134OSM    H6G14559   0.720   6.571   7.784 -1.3177  0.1827  2.2531
  134OSM    C7F14560   0.692   6.371   7.869 -0.3266  0.4076  0.1342
  134OSM    H7F14561   0.796   6.332   7.881  0.2203  2.1801  1.5035
  134OSM    H7G14562   0.628   6.285   7.839  1.6036 -0.1532 -2.8265
  134OSM    C8F14563   0.648   6.430   8.003 -0.3646 -0.0251 -0.7805
  134OSM    H8F14564   0.549   6.481   8.000 -0.1280  0.9104  2.6320
  134OSM    H8G14565   0.722   6.503   8.040  2.2469 -2.7080 -0.2786
  134OSM    C9F14566   0.646   6.333   8.115 -0.4249  0.5416  0.1268
  134OSM    H9F14567   0.560   6.265   8.114 -0.2475  0.3022  0.8082
  134OSM   C10F14568   0.731   6.309   8.215  0.0610  0.3398 -0.2471
  134OSM   H10F14569   0.709   6.237   8.296  0.3130  0.7453  0.1878
  134OSM   C11F14570   0.862   6.375   8.248 -0.4292 -0.3549 -0.2425
  134OSM   H11F14571   0.866   6.416   8.352  0.0297  1.3186 -0.8828
  134OSM   H11G14572   0.866   6.467   8.185  1.0477  0.3413  0.7958
  134OSM   C12F14573   0.985   6.291   8.221 -1.0343  0.7552 -0.1250
  134OSM   H12F14574   0.989   6.271   8.112 -0.7660 -0.7491  0.1447
  134OSM   H12G14575   0.968   6.198   8.279  0.6315 -0.7134 -1.8495
  134OSM   C13F14576   1.120   6.353   8.262  0.1316 -0.1273  0.3868
  134OSM   H13F14577   1.124   6.388   8.367 -1.0907  0.4623  0.2493
  134OSM   H13G14578   1.134   6.445   8.201 -2.4831  0.8921  1.1979
  134OSM   C14F14579   1.231   6.267   8.222 -0.8660  0.1918  0.5282
  134OSM   H14F14580   1.324   6.326   8.209 -0.7937 -0.4570 -2.5667
  134OSM   H14G14581   1.220   6.217   8.124  0.4028 -0.8375  0.8925
  134OSM   C15F14582   1.250   6.151   8.313  0.0500 -0.7621  0.1240
  134OSM   H15F14583   1.345   6.096   8.291  0.5535  0.1834 -0.1061
  134OSM   H15G14584   1.168   6.079   8.292 -2.2538  1.1781  2.0301
  134OSM   C16F14585   1.239   6.191   8.460  0.1596 -0.0827 -0.2478
  134OSM   H16F14586   1.137   6.188   8.505 -0.1895  0.1340 -1.0091
  134OSM   H16G14587   1.271   6.297   8.459 -1.6812  0.5358  0.6670
  134OSM   C17F14588   1.329   6.103   8.545 -0.0600 -0.0118 -0.4130
  134OSM   H17F14589   1.354   6.152   8.642 -0.0352  0.2223 -0.5367
  134OSM   H17G14590   1.419   6.098   8.481  0.6720  0.1471  0.5885
  134OSM   C18F14591   1.282   5.959   8.580  0.3031 -0.3020  0.0107
  134OSM   H18F14592   1.358   5.898   8.633  0.5987  1.0564  1.1875
  134OSM   H18G14593   1.250   5.906   8.487 -2.4093  0.0775  0.6496
  134OSM   H18H14594   1.185   5.962   8.634 -0.3911 -1.0485 -1.1326
  135OSM      N14595   0.561   6.123   6.239 -0.3963  0.0977 -0.3289
  135OSM    C1514596   0.420   6.073   6.220 -0.4405  0.0581  0.2836
  135OSM   H15A14597   0.431   5.966   6.228  1.4180 -0.0336 -2.2380
  135OSM   H15B14598   0.386   6.094   6.119  0.4222  0.8005  0.1398
  135OSM   H15C14599   0.348   6.129   6.279  0.4137  1.1383  0.3301
  135OSM    C1414600   0.665   6.023   6.197  0.0667  0.2468  0.6162
  135OSM   H14A14601   0.650   5.997   6.093  0.6466  0.3721  0.4985
  135OSM   H14B14602   0.654   5.940   6.266  1.4720  0.7882  1.5175
  135OSM   H14C14603   0.764   6.062   6.213 -0.2794  0.8865  1.1896
  135OSM    C1314604   0.574   6.245   6.159  0.0157  0.2954  0.5702
  135OSM   H13A14605   0.579   6.225   6.053  4.3494  0.1390  0.6062
  135OSM   H13B14606   0.666   6.300   6.172  1.4250 -1.3325 -1.7612
  135OSM   H13C14607   0.494   6.311   6.190  1.2940  1.3899  1.6966
  135OSM    C1214608   0.584   6.164   6.385 -0.1038  0.1155  0.1282
  135OSM   H12A14609   0.669   6.230   6.389  0.9985 -1.0984 -1.6080
  135OSM   H12B14610   0.613   6.074   6.437 -1.1171 -0.8931 -0.9888
  135OSM    C1114611   0.469   6.242   6.453  0.2831  0.9473  0.1773
  135OSM   H11A14612   0.514   6.248   6.555  1.9581  0.5568 -0.5079
  135OSM   H11B14613   0.378   6.179   6.461  0.8229  0.3652  4.1689
  135OSM      P14614   0.319   6.455   6.435 -0.0767  0.1073  0.5841
  135OSM    O1314615   0.350   6.594   6.390 -0.4513  0.3902 -0.3782
  135OSM    O1414616   0.189   6.401   6.387  0.4448  0.4541  0.0839
  135OSM    O1114617   0.320   6.446   6.592  0.0740 -0.2552 -0.6778
  135OSM    O1214618   0.441   6.365   6.394 -0.1955 -0.1097 -0.3465
  135OSM    C1S14619   0.441   6.488   6.665  0.8619 -0.0714 -0.2637
  135OSM    H1S14620   0.455   6.597   6.649  0.7688  0.1769  1.1922
  135OSM    H1T14621   0.533   6.436   6.629  0.9914  0.1763 -0.2906
  135OSM     NF14622   0.535   6.526   6.899  0.0898 -0.7033 -0.4157
  135OSM    HNF14623   0.588   6.455   6.945 -1.4651 -1.8435 -0.2848
  135OSM    C2S14624   0.432   6.454   6.815  0.1853 -0.2799  0.2058
  135OSM    H2S14625   0.335   6.499   6.847 -0.0383 -0.2604 -0.4730
  135OSM    C3S14626   0.424   6.299   6.829  0.1926 -0.0217 -0.2358
  135OSM    H3S14627   0.511   6.251   6.779  0.6566 -0.8608  1.3036
  135OSM     O314628   0.322   6.244   6.752 -0.1044  0.2419  0.1889
  135OSM    HO314629   0.296   6.317   6.696  2.2089  1.4456  0.5594
  135OSM    C4S14630   0.424   6.261   6.974  0.4211 -0.6140  0.5192
  135OSM    H4S14631   0.515   6.212   7.012  0.0913 -0.7617  1.1363
  135OSM    C5S14632   0.324   6.257   7.059  1.1358 -0.3829 -0.2613
  135OSM    H5S14633   0.231   6.311   7.037 -0.5021 -2.0173  2.0737
  135OSM    C6S14634   0.338   6.208   7.203  0.6372  0.1746 -0.3254
  135OSM    H6S14635   0.296   6.105   7.206 -0.6387  0.6427 -1.1872
  135OSM    H6T14636   0.264   6.263   7.265  1.2857  1.9403 -1.0523
  135OSM    C7S14637   0.471   6.217   7.274  0.0836  0.2286 -0.0738
  135OSM    H7S14638   0.501   6.323   7.286  2.0183 -0.4766  2.1107
  135OSM    H7T14639   0.546   6.173   7.206 -2.5640  0.8845 -3.7127
  135OSM    C8S14640   0.471   6.157   7.412 -0.0813 -0.6828 -0.8083
  135OSM    H8S14641   0.575   6.153   7.451 -0.0921 -3.3671 -0.8583
  135OSM    H8T14642   0.436   6.052   7.412  0.7297 -0.9653 -0.2537
  135OSM    C9S14643   0.374   6.242   7.502 -0.3233  0.3376 -0.1214
  135OSM    H9S14644   0.271   6.257   7.463  0.0247 -0.6166 -1.5003
  135OSM    H9T14645   0.414   6.345   7.513  0.7494  0.2094 -2.2862
  135OSM   C10S14646   0.361   6.174   7.642 -0.3380 -0.1563  0.1495
  135OSM   H10S14647   0.457   6.124   7.668 -0.1227  1.1852  2.2023
  135OSM   H10T14648   0.275   6.103   7.643 -1.9675  1.7119 -0.3876
  135OSM   C11S14649   0.335   6.286   7.751  0.2712  0.4864  0.0183
  135OSM   H11S14650   0.244   6.334   7.709  0.6329 -0.0925 -1.5055
  135OSM   H11T14651   0.422   6.353   7.769  0.9976 -0.5224  0.3811
  135OSM   C12S14652   0.294   6.222   7.884 -0.3523  0.2326 -0.3921
  135OSM   H12S14653   0.379   6.172   7.933 -0.6366 -0.6653 -0.7869
  135OSM   H12T14654   0.230   6.137   7.851  0.1452 -0.2322 -0.1791
  135OSM   C13S14655   0.227   6.314   7.989  0.2665 -0.4585 -0.6990
  135OSM   H13S14656   0.133   6.351   7.941 -0.3743  0.0108  0.8497
  135OSM   H13T14657   0.297   6.398   8.007 -0.2287  0.1215 -1.4206
  135OSM   C14S14658   0.203   6.254   8.127 -0.3201  0.7245 -0.1058
  135OSM   H14S14659   0.306   6.240   8.164 -0.6831  1.0713  1.1077
  135OSM   H14T14660   0.150   6.157   8.121 -1.0172  1.1404 -0.8667
  135OSM   C15S14661   0.136   6.351   8.228  0.1601  0.2071  0.1926
  135OSM   H15S14662   0.029   6.372   8.208 -0.1735 -0.4509  1.1641
  135OSM   H15T14663   0.192   6.447   8.238 -0.0159  0.4276 -0.8838
  135OSM   C16S14664   0.119   6.290   8.371 -0.9652  0.0818 -0.1786
  135OSM   H16S14665   0.047   6.343   8.436  2.1108  1.8114  2.1394
  135OSM   H16T14666   0.216   6.288   8.426 -0.5892  0.9654 -0.7795
  135OSM   C17S14667   0.070   6.140   8.372 -0.2419  0.2740 -0.2240
  135OSM   H17S14668   0.066   6.105   8.478 -0.6844 -2.5124 -1.0812
  135OSM   H17T14669   0.132   6.071   8.312 -1.5296 -0.5003 -0.7035
  135OSM   C18S14670  -0.074   6.114   8.320 -0.7892  0.4287 -0.4900
  135OSM   H18S14671  -0.138   6.184   8.378 -0.2366  1.1316 -0.7145
  135OSM   H18T14672  -0.104   6.008   8.337 -0.6007  0.3491 -0.6381
  135OSM   H18U14673  -0.094   6.141   8.214 -3.5495 -0.8965 -0.3833
  135OSM    C1F14674   0.542   6.659   6.918 -0.2006 -0.1419  0.1489
  135OSM     OF14675   0.450   6.725   6.875  0.1807 -0.1735 -0.1073
  135OSM    C2F14676   0.667   6.728   6.987  0.8516  0.0998  0.2213
  135OSM    H2F14677   0.696   6.799   6.906  0.7258  0.9736  0.9310
  135OSM    H2G14678   0.758   6.666   7.001  2.8299  2.4742 -1.3995
  135OSM    C3F14679   0.628   6.801   7.118 -0.9286  0.3330 -0.1600
  135OSM    H3F14680   0.610   6.732   7.203 -1.4901  0.4864 -0.1514
  135OSM    H3G14681   0.535   6.863   7.112 -1.1910  0.1908  1.7727
  135OSM    C4F14682   0.735   6.899   7.167 -0.7926  0.2371  0.1488
  135OSM    H4F14683   0.790   6.952   7.087  0.4046 -0.9301  0.1581
  135OSM    H4G14684   0.813   6.830   7.206  0.3401 -0.9299 -3.7124
  135OSM    C5F14685   0.706   6.998   7.273  0.0747 -0.1693  0.0770
  135OSM    H5F14686   0.623   7.067   7.248  1.8930  2.2136  0.2658
  135OSM    H5G14687   0.790   7.070   7.284 -0.3459  0.1976  0.9100
  135OSM    C6F14688   0.677   6.931   7.403  0.8257  0.4374 -0.3393
  135OSM    H6F14689   0.761   6.865   7.434 -0.4697 -0.5036  1.3784
  135OSM    H6G14690   0.587   6.866   7.398  0.4306  0.7530  1.7663
  135OSM    C7F14691   0.669   7.044   7.509  0.0208 -0.7133 -0.5570
  135OSM    H7F14692   0.576   7.101   7.491  0.3593  0.3452  0.8352
  135OSM    H7G14693   0.759   7.109   7.510  0.2399 -1.0095  0.6977
  135OSM    C8F14694   0.632   6.991   7.646  0.4417  0.4182  0.6759
  135OSM    H8F14695   0.542   6.930   7.623  1.1801 -0.5640  0.2702
  135OSM    H8G14696   0.590   7.068   7.714 -1.1702 -1.3960  1.8494
  135OSM    C9F14697   0.729   6.896   7.700  0.4084 -0.5017 -0.2230
  135OSM    H9F14698   0.782   6.824   7.636 -2.6396 -2.4975 -0.7304
  135OSM   C10F14699   0.737   6.877   7.828  0.1954 -0.7539  0.6398
  135OSM   H10F14700   0.819   6.812   7.863  1.9524  0.3749 -1.1252
  135OSM   C11F14701   0.665   6.942   7.947 -0.2338  0.9083  0.1231
  135OSM   H11F14702   0.570   6.991   7.915 -0.9039 -1.3336 -1.5327
  135OSM   H11G14703   0.721   7.030   7.984  1.3344  0.4865 -1.1346
  135OSM   C12F14704   0.631   6.847   8.069 -0.2549 -0.2131 -0.4512
  135OSM   H12F14705   0.593   6.750   8.030 -0.4137 -0.2731 -0.1509
  135OSM   H12G14706   0.543   6.886   8.124 -0.2581  0.6738 -1.0590
  135OSM   C13F14707   0.759   6.818   8.149  0.5616  0.1148  0.4140
  135OSM   H13F14708   0.842   6.827   8.076 -0.9715 -1.9299 -1.7454
  135OSM   H13G14709   0.738   6.714   8.183 -3.1075  1.0092  1.3944
  135OSM   C14F14710   0.780   6.917   8.257 -0.5705 -0.2833 -0.4294
  135OSM   H14F14711   0.694   6.913   8.327 -2.1236  1.3643 -2.1305
  135OSM   H14G14712   0.798   7.014   8.205 -0.0562 -0.3507 -0.3854
  135OSM   C15F14713   0.902   6.879   8.338 -0.0825 -0.4911  0.1690
  135OSM   H15F14714   0.989   6.847   8.276 -0.0119 -1.5757  0.8018
  135OSM   H15G14715   0.865   6.783   8.380  1.3483 -1.0225  0.2885
  135OSM   C16F14716   0.937   6.968   8.465 -0.4505  0.1555 -0.3826
  135OSM   H16F14717   0.839   7.002   8.505 -0.2646 -0.3279  0.5022
  135OSM   H16G14718   0.995   7.056   8.429 -0.1610  0.2383  0.2717
  135OSM   C17F14719   1.014   6.890   8.574  0.4483  0.0691  0.4616
  135OSM   H17F14720   1.106   6.840   8.539 -0.1245 -1.4650  1.0649
  135OSM   H17G14721   0.948   6.814   8.622  3.5573 -2.0417  1.6728
  135OSM   C18F14722   1.057   6.984   8.681 -0.1230  0.6956 -0.6009
  135OSM   H18F14723   1.124   6.930   8.753 -0.2242  1.3175 -0.0365
  135OSM   H18G14724   0.968   7.031   8.726  0.1771  2.0134 -1.3551
  135OSM   H18H14725   1.116   7.070   8.644  1.6626  0.9767  2.4972
  136OSM      N14726   5.579   2.009   6.110  0.0727 -0.9821  0.0121
  136OSM    C1514727   5.696   2.100   6.089  0.6756 -0.3351 -0.2081
  136OSM   H15A14728   5.695   2.174   6.168  2.4317  0.0288 -0.4870
  136OSM   H15B14729   5.691   2.155   5.996 -0.3880 -2.1091 -1.2463
  136OSM   H15C14730   5.791   2.050   6.099  0.2320 -1.0597  0.4413
  136OSM    C1414731   5.460   2.101   6.102  0.1326 -0.0736  0.0722
  136OSM   H14A14732   5.465   2.182   6.174  0.7457 -0.2757  0.2657
  136OSM   H14B14733   5.386   2.033   6.142  1.8288 -1.5116  0.9611
  136OSM   H14C14734   5.429   2.132   6.004  2.8869  1.8166 -0.3180
  136OSM    C1314735   5.563   1.915   6.005 -0.0955  0.1985 -0.4098
  136OSM   H13A14736   5.634   1.836   6.024 -0.7337 -0.2108  0.3117
  136OSM   H13B14737   5.564   1.948   5.902 -1.8972  0.5981 -0.3193
  136OSM   H13C14738   5.472   1.862   6.027 -0.9564  2.5958  2.2739
  136OSM    C1214739   5.604   1.943   6.249  0.4518  0.5184  0.3441
  136OSM   H12A14740   5.641   2.011   6.324 -0.5806  2.2150 -0.6101
  136OSM   H12B14741   5.688   1.877   6.232  0.3877  0.7564 -1.0835
  136OSM    C1114742   5.487   1.856   6.308  0.5268  0.0192  0.5496
  136OSM   H11A14743   5.390   1.907   6.291 -0.5099 -2.1201 -0.1980
  136OSM   H11B14744   5.518   1.851   6.414 -0.7199 -0.2449  0.9065
  136OSM      P14745   5.364   1.630   6.281  0.0105 -0.0157  0.0106
  136OSM    O1314746   5.237   1.689   6.228  0.1896 -0.7310 -0.1575
  136OSM    O1414747   5.421   1.504   6.229 -0.3645  0.5813  0.1780
  136OSM    O1114748   5.358   1.641   6.438 -0.1855 -0.2648 -0.1043
  136OSM    O1214749   5.481   1.733   6.245  0.0324  0.3065 -0.1300
  136OSM    C1S14750   5.468   1.593   6.522 -0.2861  0.8679  0.1903
  136OSM    H1S14751   5.569   1.634   6.500  1.2169 -2.2816  0.7599
  136OSM    H1T14752   5.490   1.486   6.507  1.1310  1.0044  1.0701
  136OSM     NF14753   5.550   1.601   6.751  0.0219 -0.2974 -0.1162
  136OSM    HNF14754   5.539   1.529   6.819  0.5396 -2.2040 -1.9408
  136OSM    C2S14755   5.434   1.621   6.670  0.4295 -0.0289 -0.9781
  136OSM    H2S14756   5.413   1.730   6.664 -0.5449 -0.0176  1.3354
  136OSM    C3S14757   5.305   1.546   6.723 -0.0691 -0.0828  0.2868
  136OSM    H3S14758   5.324   1.438   6.743 -1.6453 -0.3017  0.7173
  136OSM     O314759   5.196   1.554   6.635 -0.1442  0.2574  0.6407
  136OSM    HO314760   5.229   1.584   6.550  0.0160 -2.3996 -0.3399
  136OSM    C4S14761   5.268   1.604   6.861  0.6059 -0.2239  0.1538
  136OSM    H4S14762   5.321   1.556   6.945  2.7994  0.3155 -0.8582
  136OSM    C5S14763   5.182   1.711   6.884 -0.5446 -0.2074 -0.1745
  136OSM    H5S14764   5.116   1.762   6.812  0.1512  0.7811 -0.1210
  136OSM    C6S14765   5.141   1.758   7.026 -0.0140  0.0405 -0.1800
  136OSM    H6S14766   5.031   1.759   7.037 -0.3764  3.4698 -2.3979
  136OSM    H6T14767   5.163   1.867   7.024  0.7341 -0.1080 -0.8950
  136OSM    C7S14768   5.208   1.705   7.152 -0.6603 -0.4020 -0.9935
  136OSM    H7S14769   5.318   1.693   7.138 -0.7225 -0.6646 -1.2673
  136OSM    H7T14770   5.164   1.605   7.175  0.9234 -0.6783  1.1824
  136OSM    C8S14771   5.184   1.792   7.281  0.3571  0.1086 -0.0811
  136OSM    H8S14772   5.081   1.777   7.320 -0.5353  0.0393 -2.3157
  136OSM    H8T14773   5.190   1.900   7.254  0.4480  0.2858  0.6245
  136OSM    C9S14774   5.290   1.774   7.398  0.4537 -1.5113 -0.2174
  136OSM    H9S14775   5.389   1.800   7.355  1.0506 -1.0155  1.3832
  136OSM    H9T14776   5.282   1.667   7.428 -0.5657 -1.7628 -1.3226
  136OSM   C10S14777   5.268   1.874   7.505 -0.2828 -0.1261  0.0200
  136OSM   H10S14778   5.274   1.976   7.461  0.1704  0.4342  1.3331
  136OSM   H10T14779   5.356   1.854   7.570 -0.8817 -4.1187 -0.1478
  136OSM   C11S14780   5.141   1.847   7.592 -1.2472  0.2391  0.8634
  136OSM   H11S14781   5.139   1.742   7.630 -1.9658 -0.4047 -0.8519
  136OSM   H11T14782   5.051   1.856   7.526  0.0120 -0.3465 -1.0139
  136OSM   C12S14783   5.134   1.941   7.710 -0.0520  0.2063 -0.7358
  136OSM   H12S14784   5.033   1.937   7.756  0.8505  0.1819  1.4126
  136OSM   H12T14785   5.151   2.041   7.664 -1.0827  0.0473 -1.4752
  136OSM   C13S14786   5.236   1.913   7.822 -0.0701 -0.6324  0.2701
  136OSM   H13S14787   5.324   1.977   7.799 -1.5368  0.6456 -2.1671
  136OSM   H13T14788   5.267   1.807   7.832 -0.3404 -0.7787 -0.3991
  136OSM   C14S14789   5.186   1.961   7.957  0.1283 -0.1346  0.7066
  136OSM   H14S14790   5.099   1.899   7.989  0.0996  0.0629  1.0132
  136OSM   H14T14791   5.150   2.065   7.951 -1.8930 -0.8687 -1.0650
  136OSM   C15S14792   5.287   1.947   8.070  0.5260 -0.0035 -0.1164
  136OSM   H15S14793   5.371   2.018   8.053 -1.2488  2.5070  0.8599
  136OSM   H15T14794   5.331   1.846   8.079 -0.0848 -0.2285  0.4407
  136OSM   C16S14795   5.231   1.973   8.211 -0.0208 -0.0194  0.3880
  136OSM   H16S14796   5.310   1.945   8.284  0.9732  0.7005 -0.3713
  136OSM   H16T14797   5.145   1.905   8.228 -0.1527 -0.0621 -0.4209
  136OSM   C17S14798   5.179   2.116   8.227  0.6090  0.0844  0.8980
  136OSM   H17S14799   5.130   2.152   8.134  1.6249 -1.7826 -0.4292
  136OSM   H17T14800   5.276   2.167   8.240  0.7747 -0.6030  2.6444
  136OSM   C18S14801   5.086   2.138   8.336 -0.4229  0.5399 -0.1139
  136OSM   H18S14802   5.049   2.243   8.340 -1.6182  0.2762 -2.4110
  136OSM   H18T14803   5.115   2.102   8.437 -0.1882  3.4162  0.9467
  136OSM   H18U14804   4.993   2.081   8.315 -0.2197  0.3483 -0.5039
  136OSM    C1F14805   5.651   1.689   6.738 -0.6761 -0.0962 -0.3215
  136OSM     OF14806   5.645   1.790   6.669 -0.7459  0.2354 -0.9397
  136OSM    C2F14807   5.769   1.667   6.825  0.5150  0.0624 -0.0773
  136OSM    H2F14808   5.833   1.590   6.777  1.3888  1.1220 -0.6485
  136OSM    H2G14809   5.735   1.633   6.925 -1.0007 -0.1807 -0.6586
  136OSM    C3F14810   5.855   1.792   6.829 -0.4268  0.4585 -0.7162
  136OSM    H3F14811   5.808   1.882   6.872  2.5729  1.1619  1.4548
  136OSM    H3G14812   5.882   1.804   6.722 -1.7404 -1.5745 -1.3327
  136OSM    C4F14813   5.982   1.773   6.908 -0.5494 -0.3768 -0.6252
  136OSM    H4F14814   6.042   1.867   6.911  1.4924 -1.6237  0.0596
  136OSM    H4G14815   6.040   1.687   6.869  0.9842  0.9992 -1.5508
  136OSM    C5F14816   5.943   1.736   7.055 -0.4558 -0.5601  1.0403
  136OSM    H5F14817   5.904   1.632   7.052  0.3185 -0.8560 -0.9822
  136OSM    H5G14818   5.876   1.807   7.107 -1.4796 -1.5761  1.1238
  136OSM    C6F14819   6.072   1.731   7.144 -0.1202  0.7534  0.4912
  136OSM    H6F14820   6.109   1.831   7.176  2.2386  0.2864 -0.5660
  136OSM    H6G14821   6.154   1.681   7.087  1.1641  0.2875  2.6247
  136OSM    C7F14822   6.033   1.655   7.273  0.2038  0.4832 -0.5160
  136OSM    H7F14823   6.012   1.551   7.241 -2.4339  0.9332 -0.4925
  136OSM    H7G14824   5.941   1.700   7.316 -0.4643  0.1674 -1.5728
  136OSM    C8F14825   6.140   1.656   7.384 -0.1286  0.3471 -0.0582
  136OSM    H8F14826   6.235   1.621   7.337 -0.6525  1.1380 -1.8150
  136OSM    H8G14827   6.108   1.578   7.456  0.5454 -0.4387 -0.5988
  136OSM    C9F14828   6.168   1.784   7.453 -0.0815  0.2417  0.1851
  136OSM    H9F14829   6.201   1.861   7.381 -0.7872  0.0167 -0.3986
  136OSM   C10F14830   6.150   1.801   7.589  0.0565  0.1409  0.3638
  136OSM   H10F14831   6.175   1.899   7.633  0.8542  0.4020 -0.6224
  136OSM   C11F14832   6.105   1.694   7.693  0.4414 -0.2593 -0.0299
  136OSM   H11F14833   6.018   1.637   7.652  1.1705 -1.3263 -0.1496
  136OSM   H11G14834   6.058   1.749   7.777  1.2985 -0.0051  0.2917
  136OSM   C12F14835   6.202   1.585   7.740  0.2193  0.7384 -0.2450
  136OSM   H12F14836   6.299   1.635   7.764  1.0546 -1.5263  1.5172
  136OSM   H12G14837   6.230   1.516   7.658  0.4691  0.3468  0.1643
  136OSM   C13F14838   6.166   1.497   7.859  0.3160  0.2747 -0.2771
  136OSM   H13F14839   6.064   1.454   7.848  0.2213  0.0511  1.2711
  136OSM   H13G14840   6.148   1.564   7.946  1.8232  0.5531 -0.1509
  136OSM   C14F14841   6.274   1.391   7.896  0.8726  0.0340  0.3678
  136OSM   H14F14842   6.370   1.439   7.926  3.0802 -3.7497  0.0178
  136OSM   H14G14843   6.288   1.337   7.800 -0.2146  0.5807 -0.1290
  136OSM   C15F14844   6.232   1.291   8.006  0.3698  0.5455  0.5770
  136OSM   H15F14845   6.307   1.211   7.986  0.3741  0.7660 -0.3657
  136OSM   H15G14846   6.129   1.254   7.987  0.1761  1.2208  0.3037
  136OSM   C16F14847   6.233   1.344   8.153  0.0651 -0.8578 -0.1726
  136OSM   H16F14848   6.178   1.440   8.159 -0.4666 -1.1923  0.4417
  136OSM   H16G14849   6.337   1.361   8.189  0.1245 -3.2657  1.0322
  136OSM   C17F14850   6.146   1.245   8.236  0.1630  0.6036  0.5871
  136OSM   H17F14851   6.144   1.142   8.197  1.5857  0.5853  0.5005
  136OSM   H17G14852   6.040   1.277   8.238  0.6123  2.2576 -0.1897
  136OSM   C18F14853   6.177   1.251   8.378  0.2487 -0.6363 -0.1049
  136OSM   H18F14854   6.119   1.167   8.421 -2.3822  1.2313  0.2749
  136OSM   H18G14855   6.144   1.347   8.423 -0.9550 -0.1888 -1.8338
  136OSM   H18H14856   6.286   1.233   8.381  0.2744 -0.5033 -0.2194
  137OSM      N14857   1.834   5.130   6.523  0.2972  0.3587 -0.5620
  137OSM    C1514858   1.930   5.124   6.639 -0.4331  0.7012  0.7852
  137OSM   H15A14859   2.001   5.205   6.635  0.3942 -0.0264  0.4958
  137OSM   H15B14860   1.980   5.028   6.646 -2.5683 -0.4243  1.5874
  137OSM   H15C14861   1.883   5.136   6.735  1.7023 -0.9398  2.1249
  137OSM    C1414862   1.791   5.268   6.500 -0.9140 -0.0939 -0.4776
  137OSM   H14A14863   1.738   5.265   6.406  1.0456 -1.1491 -1.6084
  137OSM   H14B14864   1.878   5.331   6.493  0.9881 -1.9156  3.5087
  137OSM   H14C14865   1.729   5.297   6.584  2.5642 -1.0389  2.6902
  137OSM    C1314866   1.906   5.085   6.396 -0.6017  0.0782  0.8077
  137OSM   H13A14867   1.936   4.981   6.400 -1.9426 -0.3526  0.2079
  137OSM   H13B14868   1.991   5.150   6.380 -1.2930  0.6528 -0.6177
  137OSM   H13C14869   1.842   5.106   6.312  2.9166  0.4195 -2.0509
  137OSM    C1214870   1.710   5.041   6.547 -0.2137  0.2434 -0.6043
  137OSM   H12A14871   1.742   4.938   6.540 -2.6221 -0.4582 -3.7477
  137OSM   H12B14872   1.638   5.034   6.467 -0.5623  0.3210 -0.3052
  137OSM    C1114873   1.622   5.072   6.678  0.2603 -0.3798  0.3525
  137OSM   H11A14874   1.691   5.073   6.765 -1.6727  0.2200  1.9379
  137OSM   H11B14875   1.554   4.985   6.690  0.3210 -0.4364  0.2903
  137OSM      P14876   1.434   5.214   6.571  0.1765 -0.3909 -0.0991
  137OSM    O1314877   1.447   5.327   6.485  0.4829  0.0028  0.2560
  137OSM    O1414878   1.396   5.089   6.514  0.4062 -0.4763 -0.1049
  137OSM    O1114879   1.323   5.259   6.680  0.4893 -0.2367  0.4490
  137OSM    O1214880   1.566   5.201   6.663  0.0549  0.0398  0.2615
  137OSM    C1S14881   1.265   5.170   6.771 -0.3846 -0.1049  0.4213
  137OSM    H1S14882   1.249   5.074   6.718  0.6435  1.6334 -3.3755
  137OSM    H1T14883   1.160   5.198   6.796 -0.0663  0.3888  1.2692
  137OSM     NF14884   1.256   5.073   6.993 -0.3537  0.0940 -0.1607
  137OSM    HNF14885   1.202   5.113   7.066 -2.6215 -3.0015  0.0575
  137OSM    C2S14886   1.328   5.168   6.908 -0.1407  0.3944  0.7607
  137OSM    H2S14887   1.433   5.133   6.898 -0.3942 -0.7612  1.8812
  137OSM    C3S14888   1.325   5.316   6.970 -0.3203  0.2645  0.3458
  137OSM    H3S14889   1.226   5.365   6.963 -0.3716 -0.0283 -1.3740
  137OSM     O314890   1.395   5.416   6.893  0.0694 -0.0160 -0.4057
  137OSM    HO314891   1.420   5.368   6.814  0.7606 -0.6038  0.1529
  137OSM    C4S14892   1.373   5.304   7.116 -0.2170 -0.1953 -0.3810
  137OSM    H4S14893   1.289   5.290   7.186 -0.3022 -0.0531 -0.4540
  137OSM    C5S14894   1.500   5.313   7.158 -0.4123  1.0817 -0.6292
  137OSM    H5S14895   1.569   5.331   7.074  3.4087 -0.4411  1.9276
  137OSM    C6S14896   1.539   5.298   7.303 -0.4408  0.2543 -0.3181
  137OSM    H6S14897   1.616   5.377   7.319 -1.1071  0.5593  1.6308
  137OSM    H6T14898   1.591   5.200   7.305  0.0017  0.4707 -0.6501
  137OSM    C7S14899   1.433   5.312   7.412  0.2571  0.8534 -0.1629
  137OSM    H7S14900   1.360   5.230   7.390  1.1394  0.2528 -0.9197
  137OSM    H7T14901   1.377   5.407   7.399 -0.4436  0.6372  1.0752
  137OSM    C8S14902   1.489   5.285   7.548  0.7435 -0.0014  0.1200
  137OSM    H8S14903   1.552   5.370   7.582  2.8429 -1.7484  0.8371
  137OSM    H8T14904   1.549   5.192   7.554 -1.6285 -1.5459  1.9018
  137OSM    C9S14905   1.373   5.293   7.644  1.1747 -0.4621  0.0887
  137OSM    H9S14906   1.292   5.225   7.608  0.4146  0.9322 -0.9584
  137OSM    H9T14907   1.329   5.395   7.646  0.9218 -0.4747 -2.1519
  137OSM   C10S14908   1.426   5.271   7.782  0.6500  0.5392 -1.2621
  137OSM   H10S14909   1.516   5.206   7.788  0.9750  1.0689 -0.0561
  137OSM   H10T14910   1.345   5.218   7.835  2.4622  0.2042  1.3809
  137OSM   C11S14911   1.439   5.378   7.886  0.2567 -0.2970  0.0408
  137OSM   H11S14912   1.376   5.463   7.852  0.4706  0.1478  0.7474
  137OSM   H11T14913   1.543   5.416   7.877  0.0806  0.0279 -0.7488
  137OSM   C12S14914   1.409   5.332   8.027 -0.7962  0.3524 -0.5056
  137OSM   H12S14915   1.475   5.245   8.048  1.1207  1.9376  0.3529
  137OSM   H12T14916   1.304   5.303   8.049 -0.7155  0.9132  0.6777
  137OSM   C13S14917   1.442   5.434   8.132  0.7187  0.5368 -0.0637
  137OSM   H13S14918   1.396   5.533   8.116 -1.9131 -0.4269  1.0524
  137OSM   H13T14919   1.549   5.451   8.156  0.0364  2.0655  2.1786
  137OSM   C14S14920   1.382   5.391   8.271 -1.0315 -0.2383 -0.0608
  137OSM   H14S14921   1.390   5.280   8.277  2.0834 -0.0604  0.6801
  137OSM   H14T14922   1.276   5.423   8.280 -1.5207 -1.7701 -0.0681
  137OSM   C15S14923   1.467   5.429   8.395 -0.2643 -0.4275 -0.6201
  137OSM   H15S14924   1.573   5.394   8.387  0.6317  0.5132  4.1348
  137OSM   H15T14925   1.420   5.376   8.480 -0.8643 -0.0094 -0.6894
  137OSM   C16S14926   1.485   5.579   8.421  0.4380  0.2602 -0.4936
  137OSM   H16S14927   1.384   5.621   8.404  0.0953 -0.0462  0.7158
  137OSM   H16T14928   1.551   5.628   8.346  2.6233  0.8996  1.7295
  137OSM   C17S14929   1.522   5.604   8.565  1.1307 -0.2121  0.7703
  137OSM   H17S14930   1.547   5.712   8.574  3.4898 -0.7018  0.6671
  137OSM   H17T14931   1.607   5.535   8.581 -1.0959 -3.3854 -0.0515
  137OSM   C18S14932   1.418   5.557   8.671 -0.2466 -0.5152  0.1435
  137OSM   H18S14933   1.334   5.630   8.673 -0.3775 -0.6942  1.3045
  137OSM   H18T14934   1.471   5.560   8.768  0.8023 -1.9747 -0.3597
  137OSM   H18U14935   1.378   5.455   8.658 -1.8122  0.2063 -1.1535
  137OSM    C1F14936   1.247   4.944   6.972  0.5547  0.3063  1.1949
  137OSM     OF14937   1.291   4.892   6.866  0.5708  0.1358 -0.5968
  137OSM    C2F14938   1.171   4.857   7.071 -0.5523 -0.5217  0.3546
  137OSM    H2F14939   1.064   4.857   7.040 -0.4075  1.9259 -0.3376
  137OSM    H2G14940   1.180   4.899   7.173  0.3586 -3.3380  1.5551
  137OSM    C3F14941   1.213   4.711   7.076  0.1182  0.1694 -0.3212
  137OSM    H3F14942   1.323   4.700   7.086  0.2041  0.8719 -0.4588
  137OSM    H3G14943   1.188   4.662   6.980  1.4882 -1.4681  0.1161
  137OSM    C4F14944   1.114   4.646   7.174 -0.1927  0.3264  0.1965
  137OSM    H4F14945   1.122   4.541   7.140 -2.7330 -0.5575  2.0524
  137OSM    H4G14946   1.012   4.685   7.152 -0.3682 -0.7236 -0.9626
  137OSM    C5F14947   1.160   4.656   7.317  0.1776 -0.2299  0.6218
  137OSM    H5F14948   1.154   4.757   7.361 -0.5593  0.0408 -0.0796
  137OSM    H5G14949   1.270   4.640   7.323  0.4181  1.4615  1.2663
  137OSM    C6F14950   1.077   4.569   7.418  0.3779 -0.0870  0.2614
  137OSM    H6F14951   1.074   4.462   7.390 -0.8362  0.1460 -0.5439
  137OSM    H6G14952   0.975   4.611   7.407  1.1347  2.2257  1.2789
  137OSM    C7F14953   1.126   4.594   7.565  0.6815 -0.5755  0.2414
  137OSM    H7F14954   1.153   4.700   7.583 -1.5220  0.4227 -1.7278
  137OSM    H7G14955   1.218   4.531   7.565  2.4430  1.8647  0.7841
  137OSM    C8F14956   1.021   4.555   7.665  0.1172  0.1549 -0.8282
  137OSM    H8F14957   0.994   4.449   7.650 -1.1970  0.4063 -0.3803
  137OSM    H8G14958   0.929   4.612   7.640 -2.1660 -2.6588  0.6156
  137OSM    C9F14959   1.065   4.576   7.805  0.7907 -0.5704 -0.9149
  137OSM    H9F14960   1.111   4.486   7.849 -2.4998 -1.5730  0.8250
  137OSM   C10F14961   1.071   4.689   7.883  0.5451  0.4478 -0.0620
  137OSM   H10F14962   1.118   4.695   7.983 -0.4169  0.6423  0.3954
  137OSM   C11F14963   1.017   4.828   7.847  0.2814  0.0141 -0.0152
  137OSM   H11F14964   0.924   4.853   7.903 -0.1618 -1.1561 -0.2112
  137OSM   H11G14965   0.979   4.816   7.743  0.4912 -1.2387  0.0374
  137OSM   C12F14966   1.127   4.938   7.852  0.7483  0.1501  0.3885
  137OSM   H12F14967   1.087   5.032   7.809 -0.9149 -0.6943 -0.0070
  137OSM   H12G14968   1.210   4.907   7.785  1.4221  0.0586  1.2515
  137OSM   C13F14969   1.198   4.969   7.983 -0.1932  1.0174 -0.0429
  137OSM   H13F14970   1.268   5.054   7.969 -0.8056  1.3462 -1.2383
  137OSM   H13G14971   1.257   4.884   8.022 -0.3994  1.0608  0.3753
  137OSM   C14F14972   1.106   5.013   8.105 -0.8728  0.3624 -0.5068
  137OSM   H14F14973   1.014   4.952   8.121 -1.4942  2.1180  3.9592
  137OSM   H14G14974   1.075   5.118   8.090 -2.0837  0.5765  2.6127
  137OSM   C15F14975   1.174   5.023   8.242 -0.4784 -0.1951 -0.4802
  137OSM   H15F14976   1.259   5.093   8.233 -0.9005  0.2274 -1.2955
  137OSM   H15G14977   1.210   4.920   8.264  1.9321  0.3811 -1.4304
  137OSM   C16F14978   1.081   5.072   8.349  0.9678 -0.4287 -1.3429
  137OSM   H16F14979   0.985   5.016   8.345  0.1616  0.8213 -0.2363
  137OSM   H16G14980   1.048   5.175   8.327  0.4257 -0.5004 -0.8851
  137OSM   C17F14981   1.118   5.053   8.502  0.5810 -0.5355  0.2856
  137OSM   H17F14982   1.039   5.103   8.561  0.7930 -0.4015  0.4573
  137OSM   H17G14983   1.202   5.120   8.530 -0.0174 -0.1112  1.0969
  137OSM   C18F14984   1.137   4.908   8.543 -0.5558  0.0733  0.0123
  137OSM   H18F14985   1.055   4.851   8.492 -2.3752  1.4258  1.3120
  137OSM   H18G14986   1.135   4.891   8.652 -0.2818  0.4965  0.0868
  137OSM   H18H14987   1.239   4.880   8.510 -0.1528  1.5146 -0.0209
  138OSM      N14988   2.783   1.242   5.941 -0.5195 -0.0809  0.7476
  138OSM    C1514989   2.900   1.272   5.854 -0.1241 -0.1669  0.9149
  138OSM   H15A14990   2.908   1.370   5.811  2.3520 -1.1037 -1.0670
  138OSM   H15B14991   2.910   1.211   5.765  2.9009  2.3494 -0.6517
  138OSM   H15C14992   2.992   1.259   5.908  0.5210 -0.8848 -0.2978
  138OSM    C1414993   2.758   1.364   6.038  0.2686  0.4329  0.0948
  138OSM   H14A14994   2.656   1.356   6.074  0.1840  2.4586  0.3710
  138OSM   H14B14995   2.758   1.455   5.981  0.9346  0.3868  0.0198
  138OSM   H14C14996   2.837   1.365   6.112 -0.3875  0.4083  0.8080
  138OSM    C1314997   2.666   1.224   5.855 -0.0994  0.2620  0.0547
  138OSM   H13A14998   2.655   1.292   5.771 -2.1733  0.6759  0.6020
  138OSM   H13B14999   2.571   1.208   5.903  0.0994 -0.3583  0.2425
  138OSM   H13C15000   2.680   1.128   5.808 -0.4948 -0.4962  1.4595
  138OSM    C1215001   2.799   1.119   6.027  0.0748  0.1234  0.8918
  138OSM   H12A15002   2.793   1.036   5.958  0.6465  1.2609 -0.5715
  138OSM   H12B15003   2.708   1.111   6.086 -0.4835 -0.3833 -0.0113
  138OSM    C1115004   2.930   1.099   6.104  0.2099 -0.3568 -0.9239
  138OSM   H11A15005   2.910   1.030   6.188  0.0218 -0.2561 -0.8857
  138OSM   H11B15006   2.951   1.198   6.150  0.4650 -0.2059 -1.3545
  138OSM      P15007   3.093   0.905   6.028 -0.0308  0.0132  0.3481
  138OSM    O1315008   2.972   0.813   6.015  0.2842  0.2054  0.0982
  138OSM    O1415009   3.197   0.892   5.924  0.3593  0.1921 -0.6970
  138OSM    O1115010   3.159   0.887   6.169  0.2611 -0.3060  0.4535
  138OSM    O1215011   3.042   1.055   6.025  0.0490  0.2407 -0.0647
  138OSM    C1S15012   3.215   1.009   6.232 -0.0284 -0.2735  0.1734
  138OSM    H1S15013   3.131   1.070   6.270  1.7069  1.9674  0.5925
  138OSM    H1T15014   3.283   1.071   6.170  0.0513  0.1161  0.6519
  138OSM     NF15015   3.264   1.054   6.484 -0.0511  0.1496  0.4310
  138OSM    HNF15016   3.334   1.111   6.527  2.2398  0.3679 -3.1847
  138OSM    C2S15017   3.301   0.974   6.360  1.0643 -0.4142 -0.4136
  138OSM    H2S15018   3.276   0.869   6.384 -1.1395 -0.1017 -1.0914
  138OSM    C3S15019   3.451   0.973   6.322 -0.6161 -0.1282  0.4738
  138OSM    H3S15020   3.481   1.072   6.281 -0.1057 -0.6937 -0.5429
  138OSM     O315021   3.470   0.873   6.224 -1.0991  0.7768  0.0393
  138OSM    HO315022   3.380   0.842   6.211 -1.4462  0.0722  3.1607
  138OSM    C4S15023   3.537   0.948   6.443 -0.8114  0.2080  0.6558
  138OSM    H4S15024   3.555   1.041   6.499  2.1516  0.3671 -0.4004
  138OSM    C5S15025   3.592   0.834   6.487 -0.3792  0.2274 -0.0823
  138OSM    H5S15026   3.570   0.735   6.444 -0.5564  0.3595 -0.2973
  138OSM    C6S15027   3.671   0.810   6.617  0.4262 -0.0889 -0.2469
  138OSM    H6S15028   3.659   0.895   6.688  0.5702 -0.5125  0.2897
  138OSM    H6T15029   3.778   0.816   6.590  0.6277 -1.4124  0.1816
  138OSM    C7S15030   3.659   0.683   6.700  1.0635  0.6481 -0.0270
  138OSM    H7S15031   3.679   0.600   6.630  2.3355  1.2054 -0.3522
  138OSM    H7T15032   3.552   0.674   6.727  0.5927  1.6648 -1.4317
  138OSM    C8S15033   3.748   0.678   6.829  0.0763 -0.4821  1.0023
  138OSM    H8S15034   3.740   0.767   6.896 -0.5332 -0.4936  0.9418
  138OSM    H8T15035   3.846   0.673   6.775 -0.8517 -1.0981 -0.6933
  138OSM    C9S15036   3.717   0.562   6.920 -0.0045  0.9606  0.3998
  138OSM    H9S15037   3.698   0.471   6.860  0.8106  0.8646  0.2762
  138OSM    H9T15038   3.629   0.579   6.986  0.1677 -1.2584  1.3129
  138OSM   C10S15039   3.830   0.527   7.018 -0.7548 -0.0766 -0.0468
  138OSM   H10S15040   3.850   0.620   7.076 -1.0333 -0.5837  0.8850
  138OSM   H10T15041   3.923   0.503   6.961 -1.7211  2.5847 -3.0421
  138OSM   C11S15042   3.805   0.419   7.120  0.0146  0.2192 -0.2145
  138OSM   H11S15043   3.790   0.327   7.059  1.0477 -0.9175  1.1633
  138OSM   H11T15044   3.713   0.441   7.177  0.3893  0.9597  0.1245
  138OSM   C12S15045   3.911   0.403   7.225 -0.0640 -0.4424 -0.6185
  138OSM   H12S15046   4.007   0.376   7.178  1.1656 -0.6406  1.8288
  138OSM   H12T15047   3.880   0.321   7.293 -0.0251  1.2596  1.5739
  138OSM   C13S15048   3.929   0.529   7.311  0.4221  0.5432 -0.0812
  138OSM   H13S15049   3.840   0.560   7.369  0.6146  1.8091 -0.4352
  138OSM   H13T15050   3.965   0.609   7.243 -0.6176  0.1985 -1.0854
  138OSM   C14S15051   4.034   0.499   7.416  0.2788 -0.5583  0.3077
  138OSM   H14S15052   4.130   0.474   7.365  1.7418  2.6793  1.2040
  138OSM   H14T15053   4.005   0.420   7.489  2.1366  0.5509  2.3945
  138OSM   C15S15054   4.078   0.623   7.496  0.4174  0.1459  0.1828
  138OSM   H15S15055   3.985   0.670   7.536 -1.1567 -0.2616 -2.7032
  138OSM   H15T15056   4.125   0.699   7.430 -0.4659 -0.8011 -1.5879
  138OSM   C16S15057   4.178   0.620   7.616 -0.7347  0.0871 -0.8893
  138OSM   H16S15058   4.139   0.571   7.708  1.7462  2.0341  1.3504
  138OSM   H16T15059   4.175   0.729   7.635 -0.5087 -0.0775  0.1422
  138OSM   C17S15060   4.316   0.563   7.594  0.3295  0.2088 -0.5523
  138OSM   H17S15061   4.322   0.454   7.575  2.1137  0.2238 -0.2447
  138OSM   H17T15062   4.369   0.577   7.691  0.3816  1.4308 -0.7368
  138OSM   C18S15063   4.388   0.639   7.472  0.1735 -0.2608  0.2423
  138OSM   H18S15064   4.335   0.599   7.384 -0.9750 -1.6333  1.5099
  138OSM   H18T15065   4.498   0.621   7.476  0.0642 -0.8396  0.9399
  138OSM   H18U15066   4.364   0.744   7.498 -0.4033 -0.3107 -0.0889
  138OSM    C1F15067   3.139   1.058   6.525  0.2126  1.1011 -0.4367
  138OSM     OF15068   3.058   0.981   6.475 -0.5917  0.4909 -0.2639
  138OSM    C2F15069   3.112   1.159   6.627  0.2550 -0.1796 -0.0448
  138OSM    H2F15070   3.148   1.255   6.586  4.1501 -0.5887  1.9896
  138OSM    H2G15071   3.154   1.133   6.727 -1.1951  0.4256  0.7627
  138OSM    C3F15072   2.963   1.167   6.660  0.8932 -0.2295 -0.0782
  138OSM    H3F15073   2.905   1.072   6.654 -0.1542  0.2166  2.0529
  138OSM    H3G15074   2.925   1.234   6.580  0.6693  1.2428  1.2176
  138OSM    C4F15075   2.927   1.248   6.786 -0.3940  0.7890 -0.5253
  138OSM    H4F15076   2.854   1.330   6.773 -2.0055 -0.2097  1.6025
  138OSM    H4G15077   3.022   1.289   6.826 -0.5917  0.9944 -0.2631
  138OSM    C5F15078   2.878   1.157   6.898  0.2806  0.2685  0.0443
  138OSM    H5F15079   2.921   1.055   6.898 -0.1818  0.0408  1.8736
  138OSM    H5G15080   2.769   1.137   6.886  0.3013 -1.5637  2.2140
  138OSM    C6F15081   2.892   1.217   7.041  0.1916  0.1962 -0.4268
  138OSM    H6F15082   2.821   1.301   7.049  1.2086  1.0413 -0.0202
  138OSM    H6G15083   2.998   1.243   7.066 -0.0820  1.0699 -0.1348
  138OSM    C7F15084   2.852   1.107   7.143  0.1479  0.6908 -0.2057
  138OSM    H7F15085   2.919   1.023   7.117  0.3789  0.7247  0.2662
  138OSM    H7G15086   2.751   1.067   7.119  0.3857  0.8168 -1.4492
  138OSM    C8F15087   2.876   1.156   7.286  0.3507  0.6438  0.6778
  138OSM    H8F15088   2.804   1.239   7.302 -2.0455 -1.2055  0.1384
  138OSM    H8G15089   2.975   1.205   7.292  0.9215 -0.4425  0.3229
  138OSM    C9F15090   2.858   1.047   7.386  0.1400  0.0500 -0.3708
  138OSM    H9F15091   2.766   0.991   7.364  0.3855 -0.3233 -0.4592
  138OSM   C10F15092   2.935   1.024   7.496 -0.5374  0.1712 -0.0457
  138OSM   H10F15093   2.897   0.956   7.574 -1.0440 -0.3039 -0.6974
  138OSM   C11F15094   3.057   1.104   7.536 -0.4996 -0.4965  0.2317
  138OSM   H11F15095   3.075   1.194   7.473 -0.9637 -2.1137 -2.3517
  138OSM   H11G15096   3.149   1.043   7.531 -1.2921 -2.2360  3.6705
  138OSM   C12F15097   3.042   1.166   7.682 -0.0663  0.3391 -0.8041
  138OSM   H12F15098   2.937   1.195   7.705 -0.4436 -0.8560 -0.9545
  138OSM   H12G15099   3.109   1.254   7.679  0.0585  0.2296 -1.3469
  138OSM   C13F15100   3.098   1.067   7.777  0.4963 -0.0038 -0.4430
  138OSM   H13F15101   3.205   1.049   7.755  0.2520 -0.1097 -1.6153
  138OSM   H13G15102   3.049   0.969   7.762  2.3037 -0.7138 -2.1303
  138OSM   C14F15103   3.084   1.099   7.931 -0.2389 -0.5865  0.4171
  138OSM   H14F15104   2.975   1.086   7.950  0.1847 -1.5839  2.5182
  138OSM   H14G15105   3.103   1.206   7.956  0.8984 -0.3796 -1.2285
  138OSM   C15F15106   3.156   0.999   8.016 -0.5818 -0.1808  0.8366
  138OSM   H15F15107   3.265   1.003   7.994 -0.5920 -1.6679  0.3635
  138OSM   H15G15108   3.119   0.904   7.971  0.0321  0.1286 -0.3584
  138OSM   C16F15109   3.105   1.017   8.162 -0.3375  0.3513 -0.1212
  138OSM   H16F15110   2.994   1.010   8.165 -0.2841 -0.2524  1.3853
  138OSM   H16G15111   3.119   1.120   8.201  0.1968 -0.3566  1.6362
  138OSM   C17F15112   3.156   0.902   8.257 -0.0632  0.0251  0.2130
  138OSM   H17F15113   3.105   0.805   8.239 -0.5399  0.5577 -1.4355
  138OSM   H17G15114   3.123   0.928   8.360  0.1696 -0.3721  0.3900
  138OSM   C18F15115   3.306   0.871   8.253  0.0711 -0.2070  0.0017
  138OSM   H18F15116   3.369   0.957   8.284  0.4320  0.6028 -2.7235
  138OSM   H18G15117   3.343   0.846   8.151 -1.3702 -2.8093  0.0293
  138OSM   H18H15118   3.339   0.786   8.317 -0.9108 -1.1482 -0.7133
  139OSM      N15119   0.358   1.005   6.302  0.2653  0.3501  0.1454
  139OSM    C1515120   0.245   0.913   6.305 -0.8611  0.2542  0.1453
  139OSM   H15A15121   0.209   0.897   6.205  1.2154 -2.7313 -0.2570
  139OSM   H15B15122   0.170   0.944   6.377  0.1016  2.3526  0.3270
  139OSM   H15C15123   0.279   0.814   6.334 -2.2712  0.0075  1.0819
  139OSM    C1415124   0.308   1.139   6.270  0.5754 -0.5737  0.3774
  139OSM   H14A15125   0.389   1.204   6.240 -0.7145  0.8434 -0.1436
  139OSM   H14B15126   0.249   1.174   6.353  1.0349  3.0353 -0.6485
  139OSM   H14C15127   0.247   1.130   6.181 -1.5973 -0.6576  1.8097
  139OSM    C1315128   0.419   1.007   6.437  0.1162 -0.2063  0.2150
  139OSM   H13A15129   0.359   1.058   6.510 -0.7697  2.0143 -1.9285
  139OSM   H13B15130   0.513   1.059   6.433  0.0972 -0.2147 -0.4780
  139OSM   H13C15131   0.439   0.904   6.463 -0.8307 -0.6681 -0.7699
  139OSM    C1215132   0.463   0.959   6.202  0.5561 -0.1212  0.3676
  139OSM   H12A15133   0.421   0.958   6.102  1.8937  1.3542 -0.2333
  139OSM   H12B15134   0.484   0.856   6.229 -0.3623 -0.9699 -1.9363
  139OSM    C1115135   0.592   1.036   6.204 -0.6289 -0.1280 -0.0845
  139OSM   H11A15136   0.671   0.989   6.142 -0.4212  0.1047  0.0027
  139OSM   H11B15137   0.637   1.041   6.306  2.7580 -0.9937 -1.3961
  139OSM      P15138   0.629   1.301   6.180  0.0738 -0.1752 -0.4006
  139OSM    O1315139   0.737   1.310   6.077  0.0184 -0.2983 -0.0912
  139OSM    O1415140   0.530   1.409   6.183 -0.2645  0.5151 -0.2379
  139OSM    O1115141   0.699   1.290   6.312 -0.5304 -0.3788 -0.6340
  139OSM    O1215142   0.556   1.164   6.156  0.1911  0.3489 -0.3070
  139OSM    C1S15143   0.631   1.315   6.432 -0.2717 -0.0644  0.3341
  139OSM    H1S15144   0.523   1.287   6.429 -0.3648  0.3111  0.0953
  139OSM    H1T15145   0.636   1.424   6.453 -3.1623  0.1459  0.3497
  139OSM     NF15146   0.637   1.277   6.672  0.0160  0.5739  0.1680
  139OSM    HNF15147   0.687   1.347   6.721 -1.1135  1.6271 -0.1198
  139OSM    C2S15148   0.694   1.231   6.551 -0.3182 -0.3724  0.3919
  139OSM    H2S15149   0.655   1.130   6.528 -0.6846 -0.7364  2.4001
  139OSM    C3S15150   0.846   1.234   6.546 -0.0997  0.0803 -0.2605
  139OSM    H3S15151   0.892   1.333   6.564  1.1258 -0.8343  2.1533
  139OSM     O315152   0.907   1.175   6.428 -0.5878  0.5029 -0.0549
  139OSM    HO315153   0.839   1.190   6.362 -1.9431  0.0916  1.2087
  139OSM    C4S15154   0.903   1.148   6.662 -0.1380  0.4734  0.1212
  139OSM    H4S15155   0.852   1.052   6.683  1.1778 -0.1516  0.5998
  139OSM    C5S15156   1.004   1.171   6.750  0.4609 -0.1751  0.3059
  139OSM    H5S15157   1.062   1.264   6.755 -2.6731  2.0023 -0.8372
  139OSM    C6S15158   1.048   1.067   6.852  0.1409 -0.5442 -0.0355
  139OSM    H6S15159   1.155   1.040   6.840  0.3016 -0.5993  1.4198
  139OSM    H6T15160   0.990   0.973   6.841 -1.5618  0.2082  1.9593
  139OSM    C7S15161   1.019   1.106   6.995  0.8660 -1.0922  0.1203
  139OSM    H7S15162   0.931   1.173   6.993  0.4842 -1.5880  0.0515
  139OSM    H7T15163   1.100   1.167   7.041  0.3084  0.2942 -0.6763
  139OSM    C8S15164   1.012   0.990   7.097  0.4726 -0.3352 -0.6269
  139OSM    H8S15165   1.108   0.935   7.087  0.5948 -0.2357 -0.0469
  139OSM    H8T15166   0.939   0.914   7.062  0.1225  0.6940 -2.2279
  139OSM    C9S15167   1.011   1.038   7.245 -0.7306 -0.5353  0.8969
  139OSM    H9S15168   0.914   1.089   7.260  1.0110  3.1309  0.8623
  139OSM    H9T15169   1.091   1.115   7.252  0.2276 -1.4507  0.4378
  139OSM   C10S15170   1.023   0.922   7.329  1.0027 -0.3656 -0.4056
  139OSM   H10S15171   1.121   0.870   7.321  0.1325 -2.0077 -0.6242
  139OSM   H10T15172   0.945   0.848   7.301  2.7592 -2.1744 -0.7431
  139OSM   C11S15173   1.008   0.966   7.478 -0.7079 -0.0486 -0.2699
  139OSM   H11S15174   0.962   0.894   7.550  1.3738  2.1076  3.4907
  139OSM   H11T15175   0.931   1.046   7.470  0.3042  0.8771 -0.9440
  139OSM   C12S15176   1.137   1.016   7.541  0.2558  0.6972 -0.5256
  139OSM   H12S15177   1.194   1.089   7.479 -0.0815  1.6548  0.2610
  139OSM   H12T15178   1.208   0.931   7.545 -1.7004 -1.0298 -1.2405
  139OSM   C13S15179   1.108   1.090   7.676 -0.5754  0.1017  0.3633
  139OSM   H13S15180   1.041   1.175   7.649 -0.4605  0.7268  1.9574
  139OSM   H13T15181   1.208   1.122   7.711 -0.2301 -0.4441 -0.0995
  139OSM   C14S15182   1.040   1.003   7.779 -0.1571  0.3950 -0.2491
  139OSM   H14S15183   1.113   0.926   7.809  2.7192  2.7178 -0.8161
  139OSM   H14T15184   0.946   0.963   7.736 -0.0922  0.4978 -0.4914
  139OSM   C15S15185   0.991   1.062   7.910  0.5150 -0.6744  0.0481
  139OSM   H15S15186   0.939   0.984   7.970  0.3649 -0.7758 -0.2119
  139OSM   H15T15187   0.915   1.139   7.884  1.3100 -0.4754 -1.8603
  139OSM   C16S15188   1.092   1.130   8.001 -0.1801  0.1657 -0.1816
  139OSM   H16S15189   1.127   1.206   7.928 -1.9242  0.9707 -0.2179
  139OSM   H16T15190   1.168   1.057   8.035  0.2915  1.2742  1.2684
  139OSM   C17S15191   1.051   1.208   8.132 -0.6404  0.0869  0.7395
  139OSM   H17S15192   0.965   1.270   8.098 -0.2608 -0.9053 -2.3443
  139OSM   H17T15193   1.127   1.280   8.170 -0.1243 -0.5786  0.9739
  139OSM   C18S15194   1.015   1.106   8.242  0.3262 -0.5766 -0.3257
  139OSM   H18S15195   0.938   1.033   8.209  0.1732 -0.1488 -0.9369
  139OSM   H18T15196   0.989   1.161   8.334 -1.3278 -0.1970 -0.9794
  139OSM   H18U15197   1.102   1.042   8.268  0.7621  0.1100 -0.0909
  139OSM    C1F15198   0.515   1.246   6.710  0.4872  0.1745 -0.0562
  139OSM     OF15199   0.433   1.183   6.639  0.2741 -0.0997 -0.5869
  139OSM    C2F15200   0.481   1.288   6.850 -0.2312  0.2888  0.0871
  139OSM    H2F15201   0.537   1.382   6.870  0.6505 -0.5169  1.6097
  139OSM    H2G15202   0.537   1.213   6.909  1.5294 -0.4682 -2.3597
  139OSM    C3F15203   0.333   1.300   6.889 -0.5852  1.1896  0.2063
  139OSM    H3F15204   0.267   1.238   6.824 -0.9578  0.4216  1.2807
  139OSM    H3G15205   0.294   1.398   6.854 -0.5803  1.4601  0.9315
  139OSM    C4F15206   0.288   1.269   7.038  0.0728  0.2431  0.2516
  139OSM    H4F15207   0.349   1.183   7.072 -1.8534 -2.2406 -2.0512
  139OSM    H4G15208   0.184   1.229   7.034  0.4749 -0.7948 -0.3752
  139OSM    C5F15209   0.311   1.378   7.138 -0.1371  0.1040  0.2133
  139OSM    H5F15210   0.236   1.457   7.113  0.5284  0.5470 -0.4559
  139OSM    H5G15211   0.413   1.421   7.128 -0.7511  2.2109  2.1957
  139OSM    C6F15212   0.289   1.349   7.286 -0.4956  0.7605 -0.7904
  139OSM    H6F15213   0.352   1.264   7.319 -1.7204 -0.2842 -1.0853
  139OSM    H6G15214   0.185   1.313   7.304 -0.1408 -0.9909 -2.0488
  139OSM    C7F15215   0.317   1.477   7.361 -0.5980 -0.1407  0.2014
  139OSM    H7F15216   0.286   1.566   7.303 -1.3649  0.7765  1.9460
  139OSM    H7G15217   0.427   1.491   7.372 -0.8043  1.0410  0.9088
  139OSM    C8F15218   0.253   1.497   7.503  0.7554  0.2682  0.1667
  139OSM    H8F15219   0.161   1.436   7.492  1.6726 -1.3365  0.9730
  139OSM    H8G15220   0.228   1.603   7.523 -1.9116 -0.5166  1.4894
  139OSM    C9F15221   0.323   1.417   7.610 -0.8265 -0.1920 -0.5609
  139OSM    H9F15222   0.393   1.344   7.566 -0.4099 -0.6290  0.7954
  139OSM   C10F15223   0.324   1.443   7.738  0.1104 -0.1424 -0.8036
  139OSM   H10F15224   0.377   1.375   7.807  1.4211  0.1902 -1.4556
  139OSM   C11F15225   0.259   1.560   7.811 -0.1549 -0.4675  0.1083
  139OSM   H11F15226   0.245   1.536   7.918  0.8672  0.5795  0.4965
  139OSM   H11G15227   0.166   1.602   7.766  1.4774  2.0537 -1.1773
  139OSM   C12F15228   0.362   1.677   7.818  0.4786  0.3488 -0.0700
  139OSM   H12F15229   0.401   1.712   7.720 -0.2889 -0.6962 -0.7594
  139OSM   H12G15230   0.456   1.645   7.868  0.9411  0.8907 -0.5791
  139OSM   C13F15231   0.304   1.790   7.906  0.0349  0.5041  0.0259
  139OSM   H13F15232   0.198   1.807   7.876  0.2536  0.4984 -0.7621
  139OSM   H13G15233   0.373   1.872   7.877  0.4748  0.3630  0.6477
  139OSM   C14F15234   0.313   1.761   8.055  0.7171 -0.3293 -0.6494
  139OSM   H14F15235   0.411   1.720   8.087  1.5724  1.5719 -0.7036
  139OSM   H14G15236   0.250   1.673   8.080  0.7102 -0.2022 -0.2248
  139OSM   C15F15237   0.263   1.883   8.131  0.1073 -0.4650 -0.6816
  139OSM   H15F15238   0.160   1.907   8.097 -0.7015 -1.1747  1.1706
  139OSM   H15G15239   0.331   1.967   8.103 -1.4851  0.6019 -1.5293
  139OSM   C16F15240   0.266   1.862   8.278  0.2416  0.0246 -0.0426
  139OSM   H16F15241   0.284   1.964   8.318 -3.1764  0.2186  1.3437
  139OSM   H16G15242   0.353   1.804   8.313  0.7206  0.8858  0.2255
  139OSM   C17F15243   0.141   1.803   8.334 -0.0078 -0.4308  0.1061
  139OSM   H17F15244   0.115   1.706   8.288 -2.2145 -0.2480  0.8463
  139OSM   H17G15245   0.060   1.878   8.321  0.6868  0.4374  0.6594
  139OSM   C18F15246   0.155   1.779   8.491  0.0442 -0.1537  0.3356
  139OSM   H18F15247   0.182   1.872   8.545 -2.0188  0.8827 -0.3165
  139OSM   H18G15248   0.216   1.691   8.522  1.1906  1.2302  2.2144
  139OSM   H18H15249   0.052   1.756   8.526  0.2227 -2.2275 -0.3675
  140OSM      N15250   1.588   3.822   6.420  0.5866  0.3091 -0.2070
  140OSM    C1515251   1.722   3.886   6.402 -0.2359  0.6168 -1.1851
  140OSM   H15A15252   1.808   3.823   6.420  1.2401  2.7016 -0.5855
  140OSM   H15B15253   1.733   3.963   6.477 -3.0056  1.2934 -1.3674
  140OSM   H15C15254   1.724   3.916   6.299  1.0194 -1.9639 -2.0051
  140OSM    C1415255   1.543   3.748   6.298  0.7013 -0.0914  0.2531
  140OSM   H14A15256   1.608   3.664   6.279 -0.4983 -1.2129  0.9661
  140OSM   H14B15257   1.551   3.819   6.217  1.6164  0.1016  0.4929
  140OSM   H14C15258   1.439   3.721   6.300 -0.2565  3.0595 -0.4932
  140OSM    C1315259   1.617   3.724   6.526  0.1640  0.4700 -0.1649
  140OSM   H13A15260   1.527   3.669   6.547 -0.4212  0.6889 -1.9070
  140OSM   H13B15261   1.650   3.786   6.609  0.4548 -0.4302  0.4051
  140OSM   H13C15262   1.689   3.650   6.495  0.2055  0.0896  0.7915
  140OSM    C1215263   1.481   3.925   6.455  0.4192 -0.0228 -0.2928
  140OSM   H12A15264   1.439   3.978   6.371 -0.9614 -0.3022  0.1987
  140OSM   H12B15265   1.541   3.993   6.514  0.0478 -1.5291  1.9255
  140OSM    C1115266   1.359   3.876   6.532 -0.2215 -0.2100 -0.6489
  140OSM   H11A15267   1.292   3.963   6.550  2.2112  1.2488  2.0088
  140OSM   H11B15268   1.387   3.830   6.629 -0.3075 -2.3271 -1.5680
  140OSM      P15269   1.169   3.802   6.366  0.1678  0.1042 -0.1870
  140OSM    O1315270   1.191   3.929   6.298  0.3960 -0.2202 -0.1903
  140OSM    O1415271   1.145   3.686   6.276 -0.7573 -0.4173  0.1660
  140OSM    O1115272   1.051   3.805   6.471  0.3273 -0.4047  0.0198
  140OSM    O1215273   1.295   3.772   6.458  0.0711 -0.1190 -0.2304
  140OSM    C1S15274   1.026   3.689   6.558  0.2117  0.3557 -0.0388
  140OSM    H1S15275   1.059   3.594   6.511 -0.1579 -0.0303  0.4737
  140OSM    H1T15276   0.916   3.673   6.568 -0.0784  1.9595 -0.3472
  140OSM     NF15277   1.066   3.586   6.779 -0.0331  0.5162  0.1801
  140OSM    HNF15278   0.989   3.597   6.842  2.4821  0.3861  3.6110
  140OSM    C2S15279   1.099   3.704   6.696 -0.4728  0.4703  0.3296
  140OSM    H2S15280   1.209   3.714   6.679 -0.2906 -1.2963  0.2494
  140OSM    C3S15281   1.057   3.836   6.760  0.3706  0.4334 -0.6364
  140OSM    H3S15282   0.949   3.830   6.784  0.4662  0.3930 -0.2080
  140OSM     O315283   1.077   3.954   6.688  0.4400 -0.5583  0.0797
  140OSM    HO315284   1.111   3.932   6.601 -1.4336  2.8159 -1.6861
  140OSM    C4S15285   1.124   3.851   6.902 -0.5784  0.9450  0.7452
  140OSM    H4S15286   1.226   3.889   6.891 -0.2034 -0.4316 -1.0221
  140OSM    C5S15287   1.058   3.837   7.019 -0.3717  0.0034  0.0784
  140OSM    H5S15288   0.950   3.819   7.023 -1.2055  4.1053  0.3056
  140OSM    C6S15289   1.141   3.850   7.144  0.0864 -0.5354 -0.8686
  140OSM    H6S15290   1.090   3.935   7.195  2.6700  0.9684 -0.5860
  140OSM    H6T15291   1.241   3.890   7.119 -0.2312 -1.5343 -4.1445
  140OSM    C7S15292   1.148   3.729   7.233  0.2743  0.1125 -0.5892
  140OSM    H7S15293   1.051   3.698   7.277  2.1076 -4.0052  1.0989
  140OSM    H7T15294   1.208   3.755   7.323 -2.7601  2.9175  0.8617
  140OSM    C8S15295   1.214   3.603   7.173  1.3663 -0.3128 -0.4253
  140OSM    H8S15296   1.298   3.637   7.109  0.0524  2.7948 -0.6924
  140OSM    H8T15297   1.140   3.542   7.117  1.2585 -0.9475  0.3750
  140OSM    C9S15298   1.264   3.514   7.290  0.2155  0.7062  0.2328
  140OSM    H9S15299   1.359   3.550   7.332 -0.0291  2.3850 -0.5862
  140OSM    H9T15300   1.297   3.425   7.232 -0.8538 -0.6446  1.6086
  140OSM   C10S15301   1.158   3.481   7.392  0.1173  0.0892  0.2798
  140OSM   H10S15302   1.062   3.450   7.346  0.8182 -0.1658 -1.0759
  140OSM   H10T15303   1.139   3.573   7.451 -1.3867  0.3111 -0.4899
  140OSM   C11S15304   1.208   3.367   7.489  0.6526 -0.5562  0.1754
  140OSM   H11S15305   1.293   3.409   7.548 -1.2852 -0.3997  3.0350
  140OSM   H11T15306   1.251   3.290   7.422 -0.0209 -2.5238  1.9162
  140OSM   C12S15307   1.104   3.311   7.581  0.1922 -0.0686  0.4261
  140OSM   H12S15308   1.151   3.218   7.617  2.4357  0.1640 -1.6280
  140OSM   H12T15309   1.019   3.275   7.519  0.5673 -0.6292  0.2272
  140OSM   C13S15310   1.053   3.402   7.696 -0.4407 -0.1623 -0.0289
  140OSM   H13S15311   1.009   3.497   7.659 -1.0336 -0.8634 -1.1797
  140OSM   H13T15312   1.128   3.420   7.775 -0.7156  1.3907 -0.0989
  140OSM   C14S15313   0.930   3.335   7.766  0.3317  0.5047  0.4374
  140OSM   H14S15314   0.965   3.236   7.803  0.1240 -0.2620 -1.3418
  140OSM   H14T15315   0.857   3.303   7.689 -0.3090  0.0337  1.2167
  140OSM   C15S15316   0.877   3.422   7.887  0.1418  0.4575 -0.4451
  140OSM   H15S15317   0.851   3.523   7.848  1.3780  1.0429  0.1917
  140OSM   H15T15318   0.960   3.433   7.960  0.5125 -1.6382 -0.4972
  140OSM   C16S15319   0.763   3.345   7.962  0.3766  0.2375 -0.1991
  140OSM   H16S15320   0.809   3.254   8.005  0.3230  0.1937 -0.2336
  140OSM   H16T15321   0.681   3.305   7.897  1.3049 -0.5292 -0.9307
  140OSM   C17S15322   0.698   3.419   8.088 -0.8552 -0.1163  0.5970
  140OSM   H17S15323   0.665   3.521   8.060 -2.8011 -0.6063  1.0184
  140OSM   H17T15324   0.776   3.431   8.167  1.3027 -2.2716 -1.0597
  140OSM   C18S15325   0.575   3.356   8.151  0.4143  0.4232  0.0019
  140OSM   H18S15326   0.590   3.258   8.201 -0.5535  1.0901  1.6856
  140OSM   H18T15327   0.498   3.332   8.076 -1.0949 -1.0540  1.9110
  140OSM   H18U15328   0.527   3.421   8.227 -2.2304 -1.1179 -0.2379
  140OSM    C1F15329   1.108   3.462   6.743  0.6181  0.7208  0.4393
  140OSM     OF15330   1.178   3.443   6.647  0.6454 -0.1618  0.4690
  140OSM    C2F15331   1.066   3.343   6.823  0.2212 -1.0161 -0.0917
  140OSM    H2F15332   1.016   3.260   6.769 -0.3420 -1.0032  0.4071
  140OSM    H2G15333   0.998   3.387   6.898  1.2052 -0.2657  0.3847
  140OSM    C3F15334   1.183   3.287   6.904 -0.3140  0.1453  0.6585
  140OSM    H3F15335   1.232   3.372   6.956 -1.4120 -0.3592  2.6340
  140OSM    H3G15336   1.259   3.243   6.835 -0.2390  0.3877  0.5867
  140OSM    C4F15337   1.145   3.184   7.013  0.0938  0.1348  0.3853
  140OSM    H4F15338   1.063   3.128   6.963 -0.5485  0.3943  1.1294
  140OSM    H4G15339   1.108   3.238   7.103  0.9762  2.4691 -0.5670
  140OSM    C5F15340   1.259   3.083   7.032 -0.2669  1.0928 -0.0405
  140OSM    H5F15341   1.342   3.137   7.083 -0.2621  0.2021  0.9558
  140OSM    H5G15342   1.305   3.052   6.936 -0.7579 -0.9176  0.3270
  140OSM    C6F15343   1.209   2.960   7.111  0.2775  0.1266  0.4695
  140OSM    H6F15344   1.290   2.884   7.113 -1.2889 -1.6258 -0.0139
  140OSM    H6G15345   1.119   2.913   7.068  2.0099  0.7198 -4.3542
  140OSM    C7F15346   1.173   2.999   7.257 -0.1749 -1.0146 -0.0313
  140OSM    H7F15347   1.117   3.094   7.246  1.3417 -0.0978 -0.0943
  140OSM    H7G15348   1.260   3.022   7.322 -0.2837 -0.2193 -0.1586
  140OSM    C8F15349   1.081   2.894   7.321  0.4769 -0.5745 -0.6122
  140OSM    H8F15350   1.010   2.861   7.243  0.3267  1.3580 -1.3353
  140OSM    H8G15351   1.023   2.944   7.402 -2.4026 -2.1237 -1.5641
  140OSM    C9F15352   1.162   2.783   7.380 -0.1680  0.7383  0.8387
  140OSM    H9F15353   1.172   2.691   7.320  1.4965  2.1808 -1.2208
  140OSM   C10F15354   1.207   2.773   7.506  0.5364  0.7734  0.3312
  140OSM   H10F15355   1.271   2.687   7.528  0.3468  0.5037 -0.1733
  140OSM   C11F15356   1.210   2.883   7.612  0.7599  0.1543 -0.2700
  140OSM   H11F15357   1.233   2.979   7.560  0.9366 -0.8329 -2.0784
  140OSM   H11G15358   1.299   2.862   7.676  1.7879  1.1696 -1.3147
  140OSM   C12F15359   1.086   2.892   7.702  0.1939 -0.0186 -0.0391
  140OSM   H12F15360   1.051   2.794   7.741 -0.4147  0.4270  0.5707
  140OSM   H12G15361   1.004   2.921   7.633 -0.5297  0.6278  1.0587
  140OSM   C13F15362   1.096   2.995   7.817  0.6814 -0.1823  0.1251
  140OSM   H13F15363   0.995   3.013   7.860  0.7792  0.6062  0.0428
  140OSM   H13G15364   1.133   3.091   7.774 -0.0595  0.1038  0.1160
  140OSM   C14F15365   1.179   2.948   7.933  0.1713  0.2567  0.0924
  140OSM   H14F15366   1.287   2.955   7.907  0.9893 -0.2131  3.0600
  140OSM   H14G15367   1.156   2.842   7.958  0.0626 -0.1369 -1.5305
  140OSM   C15F15368   1.164   3.029   8.064  0.2894 -0.2450 -0.0109
  140OSM   H15F15369   1.239   2.998   8.141 -0.8893 -1.3998  0.7142
  140OSM   H15G15370   1.063   3.015   8.108  1.1593 -1.2854  1.8013
  140OSM   C16F15371   1.178   3.180   8.045 -0.1103 -0.4328  0.7441
  140OSM   H16F15372   1.093   3.215   7.983  0.4433 -1.6409 -0.7638
  140OSM   H16G15373   1.277   3.211   8.004 -0.1369  0.3545  1.2404
  140OSM   C17F15374   1.157   3.249   8.178 -0.1916 -0.0224 -0.6714
  140OSM   H17F15375   1.219   3.201   8.256  0.0252 -0.2769 -0.9966
  140OSM   H17G15376   1.049   3.237   8.201  0.4683 -1.9643  1.7729
  140OSM   C18F15377   1.193   3.398   8.172 -0.4462 -0.2372  0.4443
  140OSM   H18F15378   1.230   3.433   8.271 -0.3979  1.3872 -0.1089
  140OSM   H18G15379   1.113   3.468   8.140 -0.8789 -1.8776 -2.4040
  140OSM   H18H15380   1.274   3.416   8.098 -1.0072 -0.6229 -0.2773
  141OSM      N15381   0.998   5.384   6.486  0.1867 -0.6407 -0.4581
  141OSM    C1515382   0.882   5.440   6.412 -0.3044 -0.4951 -0.8385
  141OSM   H15A15383   0.785   5.430   6.460  0.2431  2.4695  1.1711
  141OSM   H15B15384   0.861   5.375   6.328  0.0641  0.3432 -1.5971
  141OSM   H15C15385   0.896   5.541   6.375  0.2792 -1.1785 -2.5882
  141OSM    C1415386   1.014   5.466   6.616  0.9060 -0.2249 -0.0441
  141OSM   H14A15387   1.058   5.562   6.593  1.7463 -0.6431 -0.2315
  141OSM   H14B15388   1.088   5.424   6.682 -0.6782  0.7658  2.5008
  141OSM   H14C15389   0.915   5.481   6.656  0.5764  3.2732 -1.7566
  141OSM    C1315390   0.972   5.245   6.524  0.4503 -0.1601  0.2583
  141OSM   H13A15391   1.054   5.190   6.565 -2.0986 -2.0147  3.2893
  141OSM   H13B15392   0.934   5.198   6.434  1.4300 -0.8420  0.1899
  141OSM   H13C15393   0.897   5.247   6.601 -0.6355 -3.0423 -0.5887
  141OSM    C1215394   1.123   5.395   6.403 -0.1983  0.4079  0.1873
  141OSM   H12A15395   1.114   5.336   6.313  1.7398  1.9972 -1.1285
  141OSM   H12B15396   1.199   5.350   6.464 -1.8360  0.2901  2.2538
  141OSM    C1115397   1.181   5.536   6.359  0.4049 -0.1724 -0.3874
  141OSM   H11A15398   1.102   5.578   6.294  0.2754 -1.9375 -1.4386
  141OSM   H11B15399   1.275   5.518   6.303  0.5848 -0.8160  0.1102
  141OSM      P15400   1.231   5.780   6.462 -0.6837 -0.2265 -0.0381
  141OSM    O1315401   1.380   5.793   6.423  0.2192 -0.3677 -0.1609
  141OSM    O1415402   1.133   5.836   6.364  0.0759  0.2105  0.2282
  141OSM    O1115403   1.207   5.831   6.604  0.0560  0.2860  0.1550
  141OSM    O1215404   1.205   5.626   6.469  0.3213  0.1931 -0.5362
  141OSM    C1S15405   1.257   5.772   6.723  0.7435  0.1160  0.4037
  141OSM    H1S15406   1.364   5.798   6.735  0.5508  1.5184 -0.6503
  141OSM    H1T15407   1.245   5.662   6.713  2.2836 -0.0973  0.5442
  141OSM     NF15408   1.220   5.756   6.977 -0.0731 -0.0309 -0.1642
  141OSM    HNF15409   1.159   5.687   7.016 -0.3574  0.8336  0.9612
  141OSM    C2S15410   1.173   5.817   6.852  0.3618 -0.8030  0.4320
  141OSM    H2S15411   1.184   5.927   6.856  0.2797 -0.7303 -0.7965
  141OSM    C3S15412   1.025   5.788   6.821  0.2580  0.2765  0.4215
  141OSM    H3S15413   1.004   5.680   6.814 -0.2060  0.2124  2.2021
  141OSM     O315414   0.958   5.834   6.697  0.3512 -0.6036 -0.6461
  141OSM    HO315415   1.037   5.864   6.651  0.7804  0.1882  0.5645
  141OSM    C4S15416   0.944   5.836   6.943  0.6143 -0.4463  1.2919
  141OSM    H4S15417   0.947   5.761   7.023 -0.9362  0.8473  2.6326
  141OSM    C5S15418   0.867   5.946   6.951  0.7601 -0.2360 -0.3797
  141OSM    H5S15419   0.864   6.014   6.865 -4.2194  0.5747  0.1125
  141OSM    C6S15420   0.791   5.991   7.072 -0.6787 -0.2119 -0.1181
  141OSM    H6S15421   0.682   5.976   7.057 -0.6450  0.5650 -1.2403
  141OSM    H6T15422   0.803   6.101   7.081  2.0173 -0.3693 -0.9753
  141OSM    C7S15423   0.836   5.923   7.206  0.0698 -0.2529 -0.0940
  141OSM    H7S15424   0.940   5.953   7.231  1.2263 -0.9233 -3.5735
  141OSM    H7T15425   0.838   5.813   7.191 -1.2426 -0.3946  0.6107
  141OSM    C8S15426   0.755   5.965   7.332  0.2291  0.3750 -0.0210
  141OSM    H8S15427   0.652   5.970   7.290 -0.6443 -0.7800  1.8688
  141OSM    H8T15428   0.791   6.069   7.345 -0.7305  0.4802  2.2711
  141OSM    C9S15429   0.755   5.871   7.449  0.4969  0.1573  0.2810
  141OSM    H9S15430   0.859   5.841   7.471 -0.1483 -0.7503  2.3381
  141OSM    H9T15431   0.711   5.773   7.420  0.4564  0.3025 -0.1569
  141OSM   C10S15432   0.691   5.923   7.577 -0.3376 -0.4327 -0.4389
  141OSM   H10S15433   0.584   5.951   7.584  0.0373  0.7464  1.1679
  141OSM   H10T15434   0.754   6.014   7.584 -0.3154 -0.5435  1.0886
  141OSM   C11S15435   0.744   5.856   7.707 -0.1412 -0.2850  0.0749
  141OSM   H11S15436   0.853   5.876   7.703 -0.4131  1.1433 -3.4720
  141OSM   H11T15437   0.714   5.749   7.708 -1.4762  0.0542 -0.9003
  141OSM   C12S15438   0.696   5.923   7.831  0.8762  0.1707 -0.1324
  141OSM   H12S15439   0.587   5.942   7.840  0.7463 -1.1222  1.5620
  141OSM   H12T15440   0.750   6.018   7.848 -0.9886  1.1348  0.7238
  141OSM   C13S15441   0.711   5.834   7.957  0.4138 -0.0602 -0.8557
  141OSM   H13S15442   0.820   5.823   7.974  0.3347  0.2864 -0.0689
  141OSM   H13T15443   0.659   5.736   7.958 -0.3841  0.2405  2.7432
  141OSM   C14S15444   0.661   5.910   8.086 -0.1314 -0.0985  0.2565
  141OSM   H14S15445   0.565   5.958   8.060  0.2938  0.1342 -0.9828
  141OSM   H14T15446   0.729   5.997   8.099 -1.2095  0.7793  0.1299
  141OSM   C15S15447   0.655   5.828   8.213 -0.3474 -0.0493  0.0508
  141OSM   H15S15448   0.743   5.761   8.225  1.0495  1.9403  1.4278
  141OSM   H15T15449   0.558   5.779   8.194 -1.5273  3.1233 -3.2114
  141OSM   C16S15450   0.639   5.913   8.334  0.4580 -0.7502 -0.5777
  141OSM   H16S15451   0.720   5.989   8.341 -0.3673  0.0001  2.0291
  141OSM   H16T15452   0.655   5.854   8.427  1.7813 -1.9125 -1.5029
  141OSM   C17S15453   0.510   5.999   8.331 -0.2749 -0.5912 -0.1529
  141OSM   H17S15454   0.431   5.922   8.322 -1.5640  0.6933 -0.0733
  141OSM   H17T15455   0.513   6.055   8.235  1.6245 -0.7708 -0.2433
  141OSM   C18S15456   0.492   6.091   8.449  0.3461  0.2389  0.1020
  141OSM   H18S15457   0.556   6.182   8.447  0.6088  0.0684  0.7196
  141OSM   H18T15458   0.509   6.038   8.545 -1.3910  0.9125  0.8243
  141OSM   H18U15459   0.390   6.134   8.459  0.8504  1.3787  0.5631
  141OSM    C1F15460   1.335   5.790   7.033  0.3095  0.3015 -0.1587
  141OSM     OF15461   1.399   5.887   6.981 -0.7225 -0.9906  0.3964
  141OSM    C2F15462   1.372   5.718   7.169  0.0338 -0.0985 -0.1131
  141OSM    H2F15463   1.382   5.607   7.162  0.9122  0.0105 -0.9185
  141OSM    H2G15464   1.282   5.727   7.232 -0.8052  0.9182 -1.4020
  141OSM    C3F15465   1.504   5.766   7.248  0.2959 -0.0740  0.6445
  141OSM    H3F15466   1.486   5.872   7.275  2.7101  0.7904 -0.7614
  141OSM    H3G15467   1.587   5.755   7.175 -0.9552 -0.8419 -0.7250
  141OSM    C4F15468   1.546   5.687   7.368 -0.1340  0.1550 -0.5913
  141OSM    H4F15469   1.645   5.717   7.407 -0.9511  0.2577  1.5638
  141OSM    H4G15470   1.545   5.579   7.344  0.9229 -0.0406  0.1824
  141OSM    C5F15471   1.447   5.728   7.484 -0.5135  0.3626  0.7315
  141OSM    H5F15472   1.349   5.685   7.452 -1.0920  1.5134  0.9031
  141OSM    H5G15473   1.436   5.838   7.472  2.0327  0.4243 -2.2005
  141OSM    C6F15474   1.479   5.680   7.621 -0.0726  0.2891 -0.3615
  141OSM    H6F15475   1.495   5.570   7.621 -0.9106  0.1587 -0.9870
  141OSM    H6G15476   1.402   5.718   7.692 -0.7537  0.8763 -1.3868
  141OSM    C7F15477   1.603   5.747   7.685  0.1081 -0.4870  0.3319
  141OSM    H7F15478   1.590   5.856   7.668 -1.6550 -0.6621  0.3272
  141OSM    H7G15479   1.695   5.705   7.639 -0.5453 -2.1945  0.5214
  141OSM    C8F15480   1.630   5.720   7.836 -0.7356 -0.2631 -0.7135
  141OSM    H8F15481   1.733   5.748   7.867 -0.7080 -0.3056 -0.7668
  141OSM    H8G15482   1.636   5.611   7.859 -0.9828 -0.1808 -0.2415
  141OSM    C9F15483   1.523   5.782   7.917  0.3714 -0.2944  0.0927
  141OSM    H9F15484   1.420   5.743   7.908  0.1052  0.3750  0.1251
  141OSM   C10F15485   1.540   5.895   7.993 -0.1902  0.0172 -0.3828
  141OSM   H10F15486   1.448   5.931   8.040 -1.5644  0.1342 -2.9757
  141OSM   C11F15487   1.669   5.961   8.029  0.9981 -0.3873  0.1863
  141OSM   H11F15488   1.675   6.071   8.047  1.7192 -0.4452  0.3563
  141OSM   H11G15489   1.750   5.940   7.955  1.0682  2.7140 -0.7964
  141OSM   C12F15490   1.732   5.905   8.160  0.1110  0.2154  0.6396
  141OSM   H12F15491   1.837   5.940   8.151  0.1491  0.2312  1.1707
  141OSM   H12G15492   1.740   5.794   8.154 -0.7554  0.1796  0.0063
  141OSM   C13F15493   1.668   5.951   8.291  0.3998  0.3713  0.0593
  141OSM   H13F15494   1.568   5.903   8.294  0.8170 -0.4559  2.0998
  141OSM   H13G15495   1.653   6.061   8.301 -0.3711  0.2632  0.1579
  141OSM   C14F15496   1.747   5.916   8.420 -0.0647 -0.2414  0.0300
  141OSM   H14F15497   1.798   5.817   8.413 -0.2766 -0.7194  3.5991
  141OSM   H14G15498   1.671   5.928   8.499 -1.1231  1.0021 -1.1308
  141OSM   C15F15499   1.850   6.020   8.469  0.5121  0.0357  0.4744
  141OSM   H15F15500   1.802   6.120   8.472  1.0138  0.3047 -0.0945
  141OSM   H15G15501   1.928   6.031   8.390 -0.2742 -0.5759 -0.4075
  141OSM   C16F15502   1.933   5.996   8.602  0.6951  0.4438 -0.1313
  141OSM   H16F15503   2.002   5.910   8.614  2.4314  1.8919  0.9194
  141OSM   H16G15504   1.852   5.973   8.674 -1.4612  1.5277 -2.1052
  141OSM   C17F15505   2.004   6.128   8.645 -0.4349 -0.4113 -0.5736
  141OSM   H17F15506   2.074   6.161   8.565 -0.0046 -1.8343 -0.8185
  141OSM   H17G15507   2.061   6.099   8.737  1.2896  1.1780 -1.0798
  141OSM   C18F15508   1.907   6.245   8.675 -1.2943 -0.5404  0.2499
  141OSM   H18F15509   1.954   6.320   8.742  1.3631 -1.3607 -0.5473
  141OSM   H18G15510   1.814   6.202   8.716 -1.5735  0.2289  0.4324
  141OSM   H18H15511   1.892   6.306   8.583  3.1583  0.9535  0.2464
  142OSM      N15512   1.889   0.454   6.073  0.0148  0.0386 -0.5672
  142OSM    C1515513   1.958   0.586   6.058 -0.0183  0.5849 -0.1409
  142OSM   H15A15514   1.973   0.607   5.954 -3.0079 -0.4704 -0.8764
  142OSM   H15B15515   2.053   0.599   6.107 -0.5381  3.0714  0.3656
  142OSM   H15C15516   1.894   0.670   6.084 -1.3408  1.1231 -4.4230
  142OSM    C1415517   1.745   0.467   6.049 -0.1839 -0.4344  0.5175
  142OSM   H14A15518   1.708   0.372   6.012 -1.3271  1.1497 -2.7940
  142OSM   H14B15519   1.740   0.541   5.971  1.9373  1.8810  2.3916
  142OSM   H14C15520   1.692   0.492   6.140 -3.1532 -1.7065 -0.7090
  142OSM    C1315521   1.950   0.356   5.979  0.5707  0.2373  0.0284
  142OSM   H13A15522   1.936   0.386   5.876 -1.7266 -0.3815  0.1131
  142OSM   H13B15523   1.903   0.259   5.991 -0.6934  1.0129  1.7658
  142OSM   H13C15524   2.058   0.355   5.988  0.6948  1.2956 -1.0881
  142OSM    C1215525   1.910   0.401   6.212 -0.9213  0.4936  0.3962
  142OSM   H12A15526   2.016   0.384   6.221 -0.5238  1.5000 -1.7531
  142OSM   H12B15527   1.872   0.300   6.221 -1.0714  0.5593  0.4982
  142OSM    C1115528   1.868   0.480   6.339  0.0883  0.7148 -0.1034
  142OSM   H11A15529   1.950   0.553   6.352 -0.2593  0.9498  0.8425
  142OSM   H11B15530   1.881   0.412   6.427 -2.2225 -1.9232 -1.6133
  142OSM      P15531   1.622   0.480   6.412 -0.3219  0.2468  0.1142
  142OSM    O1315532   1.505   0.569   6.389  0.1657 -0.4376 -0.3409
  142OSM    O1415533   1.612   0.332   6.398  0.2282 -0.1571 -0.0751
  142OSM    O1115534   1.666   0.491   6.556  0.0082  0.3279  0.2352
  142OSM    O1215535   1.746   0.537   6.329  0.1351  0.4054 -0.8195
  142OSM    C1S15536   1.744   0.597   6.618  0.1661  0.1782 -0.3687
  142OSM    H1S15537   1.719   0.691   6.563 -0.6783 -0.9176 -1.9434
  142OSM    H1T15538   1.851   0.582   6.594 -0.1352 -1.3650 -0.8531
  142OSM     NF15539   1.816   0.723   6.815 -0.4530  0.1378 -0.3844
  142OSM    HNF15540   1.896   0.694   6.867 -1.9371 -2.9251  0.4360
  142OSM    C2S15541   1.722   0.622   6.772 -0.5199  0.1840  0.0634
  142OSM    H2S15542   1.620   0.659   6.795 -0.9938 -2.2775  2.2944
  142OSM    C3S15543   1.737   0.490   6.853 -0.6285  0.3093 -0.4146
  142OSM    H3S15544   1.842   0.456   6.841 -0.6360 -1.2897  2.8788
  142OSM     O315545   1.648   0.384   6.825  0.1681  0.3756  0.4392
  142OSM    HO315546   1.647   0.385   6.729  0.8313 -0.0579  0.4162
  142OSM    C4S15547   1.709   0.512   6.995 -0.6207 -0.2662  0.5439
  142OSM    H4S15548   1.603   0.523   7.022 -1.0703  0.5382 -1.3660
  142OSM    C5S15549   1.803   0.510   7.094  0.0427  0.5399  0.5267
  142OSM    H5S15550   1.902   0.470   7.069  0.3764  1.4365  0.3925
  142OSM    C6S15551   1.771   0.516   7.241  0.1743 -0.5998  0.5178
  142OSM    H6S15552   1.776   0.414   7.285 -0.4615 -0.7299  0.3114
  142OSM    H6T15553   1.672   0.551   7.278  0.4286  0.7389 -0.0008
  142OSM    C7S15554   1.885   0.602   7.303  0.2445 -0.2644 -0.1689
  142OSM    H7S15555   1.876   0.707   7.267 -2.5826 -0.7739 -1.1654
  142OSM    H7T15556   1.985   0.563   7.274  1.1526  0.1113  2.2701
  142OSM    C8S15557   1.870   0.609   7.449 -0.2153  0.2421 -0.1518
  142OSM    H8S15558   1.868   0.507   7.492  0.0773 -0.3625 -1.4965
  142OSM    H8T15559   1.775   0.664   7.464 -0.5280  0.6455 -3.0068
  142OSM    C9S15560   1.974   0.699   7.523 -0.2668  0.3043  0.0818
  142OSM    H9S15561   1.971   0.794   7.464  2.7972  0.1340 -0.5074
  142OSM    H9T15562   2.075   0.658   7.505 -0.2440  0.0735  0.7125
  142OSM   C10S15563   1.939   0.707   7.673 -0.1299  0.1535 -0.1421
  142OSM   H10S15564   1.838   0.754   7.682 -0.2178 -0.1878  0.7222
  142OSM   H10T15565   2.004   0.789   7.709  0.8101 -1.0123  0.8894
  142OSM   C11S15566   1.969   0.580   7.750 -0.4463  0.0366 -0.4755
  142OSM   H11S15567   2.070   0.539   7.729 -0.7415  0.2327 -2.5057
  142OSM   H11T15568   1.898   0.502   7.715 -1.2961  1.2038 -1.4218
  142OSM   C12S15569   1.952   0.604   7.907  0.1354  0.2868  0.7277
  142OSM   H12S15570   1.947   0.506   7.959  0.0853  1.3947  2.9111
  142OSM   H12T15571   1.866   0.666   7.940  1.5321  1.6872  1.8773
  142OSM   C13S15572   2.074   0.668   7.963 -0.8390  0.3773 -0.6251
  142OSM   H13S15573   2.068   0.778   7.942  1.5453  0.5317 -0.7127
  142OSM   H13T15574   2.164   0.631   7.910  1.0543  2.0082  1.2880
  142OSM   C14S15575   2.101   0.655   8.114  0.1493 -0.2592  0.5677
  142OSM   H14S15576   2.015   0.683   8.178 -0.3728 -0.8582  0.1437
  142OSM   H14T15577   2.177   0.730   8.145  0.3699 -0.6637  1.0298
  142OSM   C15S15578   2.146   0.514   8.157  0.3540 -0.1634 -0.0137
  142OSM   H15S15579   2.219   0.472   8.083  2.1412  1.9519  0.4437
  142OSM   H15T15580   2.067   0.436   8.154  0.5756 -0.3740 -1.9682
  142OSM   C16S15581   2.214   0.500   8.295 -0.2215 -0.0076  0.1640
  142OSM   H16S15582   2.233   0.393   8.319  1.2350  0.5091  1.5484
  142OSM   H16T15583   2.143   0.527   8.375 -1.3263  2.7524 -1.6091
  142OSM   C17S15584   2.347   0.572   8.305 -0.5119 -0.6816  0.7063
  142OSM   H17S15585   2.332   0.681   8.288 -0.3819 -0.8946 -0.9231
  142OSM   H17T15586   2.406   0.531   8.221 -0.2836 -0.3402  0.6972
  142OSM   C18S15587   2.417   0.550   8.439 -0.0175  0.4183  0.4441
  142OSM   H18S15588   2.515   0.603   8.439  0.6979 -0.7912 -1.5914
  142OSM   H18T15589   2.435   0.445   8.472  1.7349  1.1788  2.1110
  142OSM   H18U15590   2.355   0.599   8.517 -0.6430 -0.3397  0.4423
  142OSM    C1F15591   1.806   0.851   6.801 -0.0349 -0.1698  0.5604
  142OSM     OF15592   1.704   0.893   6.749  0.1485  0.0079 -0.8013
  142OSM    C2F15593   1.911   0.938   6.862  0.3906 -0.5113 -0.0911
  142OSM    H2F15594   1.976   0.965   6.776 -0.1109 -0.2203 -0.3827
  142OSM    H2G15595   1.971   0.878   6.933  1.0449  0.3602  0.1089
  142OSM    C3F15596   1.846   1.070   6.918 -0.0553 -0.0078 -0.2813
  142OSM    H3F15597   1.801   1.135   6.840 -0.4437  1.8846  1.4446
  142OSM    H3G15598   1.932   1.130   6.955  1.2958 -1.0044 -1.6614
  142OSM    C4F15599   1.741   1.057   7.025 -0.0419 -0.3717  0.8042
  142OSM    H4F15600   1.645   1.017   6.988 -1.4293  3.0532  0.3397
  142OSM    H4G15601   1.735   1.158   7.072  0.8978 -0.9783  2.3096
  142OSM    C5F15602   1.794   0.969   7.141  0.3770 -0.6861 -0.8754
  142OSM    H5F15603   1.899   1.003   7.156  0.3183 -0.3579 -1.2000
  142OSM    H5G15604   1.792   0.866   7.100  0.8920 -1.1855  0.3129
  142OSM    C6F15605   1.701   0.975   7.268 -0.0662 -0.1068 -0.1399
  142OSM    H6F15606   1.717   1.082   7.297  0.8631 -0.1265 -0.5400
  142OSM    H6G15607   1.740   0.903   7.343 -2.6552 -1.7715 -0.2925
  142OSM    C7F15608   1.550   0.942   7.242  0.4353 -0.3957  0.3949
  142OSM    H7F15609   1.538   0.851   7.181 -0.5441 -0.7454  1.0843
  142OSM    H7G15610   1.519   1.028   7.179 -0.9808 -0.5195  0.8858
  142OSM    C8F15611   1.462   0.939   7.362  0.1917 -0.2988 -0.5995
  142OSM    H8F15612   1.354   0.937   7.333 -0.6082 -0.6899  2.1130
  142OSM    H8G15613   1.479   1.040   7.406  3.1583 -0.0772 -2.0335
  142OSM    C9F15614   1.492   0.838   7.469  0.1028  0.2562 -0.2001
  142OSM    H9F15615   1.494   0.735   7.432  1.6919  0.3440 -0.4218
  142OSM   C10F15616   1.518   0.859   7.607 -0.5530  0.3176  0.8035
  142OSM   H10F15617   1.528   0.767   7.666 -0.9649  2.0961  3.8629
  142OSM   C11F15618   1.523   0.992   7.675 -0.7174  0.1445 -0.4251
  142OSM   H11F15619   1.427   1.049   7.675 -0.0887  1.2443  0.3905
  142OSM   H11G15620   1.602   1.047   7.620 -1.8532 -0.1285 -2.4555
  142OSM   C12F15621   1.550   0.986   7.832 -0.4040 -0.9655 -0.5116
  142OSM   H12F15622   1.484   0.908   7.875  0.1222 -0.3513  1.4918
  142OSM   H12G15623   1.516   1.083   7.875  0.3186 -1.2386  0.7138
  142OSM   C13F15624   1.695   0.947   7.860  0.3316 -0.0345 -0.2962
  142OSM   H13F15625   1.765   1.001   7.793  0.8247 -0.6320 -0.2649
  142OSM   H13G15626   1.704   0.838   7.844 -0.1439 -0.0617 -0.3880
  142OSM   C14F15627   1.727   0.969   8.000  0.0015 -0.4815 -0.8684
  142OSM   H14F15628   1.726   1.076   8.028 -1.6742 -0.5378 -0.5988
  142OSM   H14G15629   1.831   0.928   8.008  0.5898  1.2402  1.9600
  142OSM   C15F15630   1.649   0.890   8.107 -0.2435 -0.1367  0.2860
  142OSM   H15F15631   1.642   0.784   8.077 -1.4074  0.2805 -1.0200
  142OSM   H15G15632   1.547   0.930   8.121 -0.6088 -0.4649 -1.2787
  142OSM   C16F15633   1.716   0.878   8.245 -0.0063  0.4224  0.3064
  142OSM   H16F15634   1.816   0.833   8.232  0.6726  2.2245 -1.1815
  142OSM   H16G15635   1.655   0.796   8.289 -0.3047  0.1772 -0.5400
  142OSM   C17F15636   1.739   1.000   8.335 -0.3375  0.0680 -0.7261
  142OSM   H17F15637   1.649   1.065   8.339  0.5053  1.1954  1.3895
  142OSM   H17G15638   1.810   1.075   8.292 -1.1538  1.4283  0.2314
  142OSM   C18F15639   1.783   0.958   8.471 -0.2205 -0.1482  0.4675
  142OSM   H18F15640   1.694   0.909   8.515  0.5000 -2.8866 -0.9114
  142OSM   H18G15641   1.818   1.038   8.539  1.6383 -0.8068  0.3378
  142OSM   H18H15642   1.872   0.893   8.461  1.3176  1.8588  0.5144
  143OSM      N15643   3.066   2.657   6.439  0.3525  0.1289  0.1794
  143OSM    C1515644   3.000   2.556   6.531  0.6014  0.6099  0.4012
  143OSM   H15A15645   2.903   2.586   6.569  0.4348  0.1648  0.3366
  143OSM   H15B15646   3.062   2.526   6.614 -0.6971  1.5337  1.7625
  143OSM   H15C15647   2.974   2.469   6.472  0.8478  0.6779  0.1889
  143OSM    C1415648   3.098   2.779   6.524 -0.4679  0.0949  0.1029
  143OSM   H14A15649   3.008   2.824   6.564 -0.5519  0.1706 -0.1731
  143OSM   H14B15650   3.150   2.860   6.475  0.8471  0.4389  1.9371
  143OSM   H14C15651   3.155   2.754   6.613 -0.1046  1.8965  0.4271
  143OSM    C1315652   3.188   2.597   6.373  0.2371 -0.5554  1.3204
  143OSM   H13A15653   3.273   2.577   6.436  0.6997  1.3985  1.3835
  143OSM   H13B15654   3.220   2.670   6.299 -0.0703 -0.9892  0.7527
  143OSM   H13C15655   3.152   2.510   6.321 -0.2138  0.0758  0.5535
  143OSM    C1215656   2.968   2.692   6.326  0.4209 -0.3039  0.0294
  143OSM   H12A15657   2.881   2.740   6.369 -1.4794 -1.4589 -2.2905
  143OSM   H12B15658   2.933   2.598   6.288  0.7549 -0.7019  0.6938
  143OSM    C1115659   3.003   2.781   6.198  0.2790  0.7026 -0.2981
  143OSM   H11A15660   2.915   2.794   6.131 -0.4781 -1.3865  0.2082
  143OSM   H11B15661   3.083   2.730   6.141  0.8651  2.6281 -1.2701
  143OSM      P15662   2.968   3.043   6.228  0.1470 -0.0407 -0.3145
  143OSM    O1315663   2.970   3.095   6.087  0.7280  0.5475 -0.1455
  143OSM    O1415664   2.839   3.030   6.295 -0.0508  0.2845  0.3657
  143OSM    O1115665   3.054   3.137   6.311 -0.7467  0.0539 -0.3706
  143OSM    O1215666   3.051   2.911   6.242  0.0423 -0.1312  0.1001
  143OSM    C1S15667   3.006   3.253   6.379  0.4799  0.2614  0.1189
  143OSM    H1S15668   2.908   3.292   6.345  1.0335  0.4027 -1.4008
  143OSM    H1T15669   3.068   3.345   6.365 -1.0615  1.1047 -1.6024
  143OSM     NF15670   2.957   3.380   6.586  0.3341  0.3665 -0.0068
  143OSM    HNF15671   3.030   3.435   6.626 -0.9004  0.5969  2.0809
  143OSM    C2S15672   2.991   3.244   6.537 -0.4429  0.2765  0.6413
  143OSM    H2S15673   2.917   3.163   6.557  1.3808 -3.1550 -4.5924
  143OSM    C3S15674   3.120   3.195   6.606 -0.7347  0.1481  0.6168
  143OSM    H3S15675   3.197   3.274   6.588  1.9788 -2.4083  0.2712
  143OSM     O315676   3.179   3.084   6.539  0.2871 -0.2055 -0.4876
  143OSM    HO315677   3.133   3.062   6.457  0.0045 -0.2123 -0.3292
  143OSM    C4S15678   3.102   3.177   6.749  0.2047  0.4868 -0.6310
  143OSM    H4S15679   3.144   3.260   6.808 -0.5759 -1.0932  2.3595
  143OSM    C5S15680   3.031   3.079   6.810 -0.5067 -0.2248  0.9847
  143OSM    H5S15681   2.977   3.006   6.748 -0.8638 -0.4341  1.5407
  143OSM    C6S15682   3.013   3.064   6.958 -0.1715 -0.1809 -0.4525
  143OSM    H6S15683   3.062   2.972   6.996 -0.8457 -0.5091 -0.3727
  143OSM    H6T15684   2.904   3.054   6.976  0.1573 -2.9527  0.4274
  143OSM    C7S15685   3.065   3.180   7.051 -0.4021 -0.9796  0.1527
  143OSM    H7S15686   3.023   3.281   7.031  1.0148 -0.6373 -1.2494
  143OSM    H7T15687   3.175   3.180   7.038 -0.6472 -0.0989 -2.3630
  143OSM    C8S15688   3.015   3.156   7.194 -0.5243  0.1947 -0.4414
  143OSM    H8S15689   3.063   3.063   7.233  0.4887  0.5554 -0.7902
  143OSM    H8T15690   2.906   3.142   7.207 -0.2071  0.0265  3.1821
  143OSM    C9S15691   3.045   3.262   7.297 -0.5492 -0.6827 -0.7092
  143OSM    H9S15692   3.007   3.361   7.264 -0.1235 -0.7688 -1.4772
  143OSM    H9T15693   3.155   3.274   7.301 -0.7189  0.6638  1.0329
  143OSM   C10S15694   2.992   3.218   7.431  0.3060 -0.0672 -0.2156
  143OSM   H10S15695   3.054   3.128   7.449  1.3228  0.6061 -0.2694
  143OSM   H10T15696   2.885   3.188   7.425  0.2584 -0.3304  1.3965
  143OSM   C11S15697   3.004   3.324   7.542 -0.3141  0.1083 -0.4067
  143OSM   H11S15698   2.937   3.407   7.514  0.6468  0.2344 -2.5350
  143OSM   H11T15699   3.111   3.352   7.549 -0.3440  0.0827  0.2164
  143OSM   C12S15700   2.982   3.257   7.679  0.1918 -0.2729  0.4002
  143OSM   H12S15701   3.061   3.183   7.703  1.6030  1.5424  1.6404
  143OSM   H12T15702   2.882   3.209   7.673 -0.2400  0.4269  1.6058
  143OSM   C13S15703   2.962   3.363   7.797  0.6410 -0.7103  0.3827
  143OSM   H13S15704   2.875   3.427   7.770  0.2531 -1.3388  0.1182
  143OSM   H13T15705   3.052   3.428   7.801  0.4112 -0.4548  1.8137
  143OSM   C14S15706   2.939   3.305   7.937  0.7390  0.1268 -0.0276
  143OSM   H14S15707   3.033   3.260   7.974  0.0645 -0.5190  0.9613
  143OSM   H14T15708   2.865   3.223   7.924  1.2934 -0.4790  0.5738
  143OSM   C15S15709   2.892   3.396   8.051  0.4703 -0.1948  0.5425
  143OSM   H15S15710   2.793   3.443   8.035 -0.2659 -1.3732  1.4722
  143OSM   H15T15711   2.961   3.481   8.072  0.5324 -0.2507  0.5660
  143OSM   C16S15712   2.884   3.328   8.189  0.4791  0.6513  0.4381
  143OSM   H16S15713   2.971   3.267   8.220  0.0336 -0.0973  0.2422
  143OSM   H16T15714   2.806   3.250   8.179  0.9612  0.3395 -1.3426
  143OSM   C17S15715   2.834   3.421   8.297 -0.7452  0.3487 -0.0935
  143OSM   H17S15716   2.739   3.472   8.269 -1.3058 -0.4293  0.3563
  143OSM   H17T15717   2.915   3.495   8.314 -0.1228 -0.5140  0.7574
  143OSM   C18S15718   2.805   3.354   8.428 -0.6097 -0.0128  0.6907
  143OSM   H18S15719   2.893   3.292   8.456 -0.2843  0.8287  1.5615
  143OSM   H18T15720   2.728   3.274   8.436 -1.1950  0.2415 -1.5819
  143OSM   H18U15721   2.798   3.430   8.508  3.1087 -0.2998  1.4516
  143OSM    C1F15722   2.836   3.437   6.566 -0.4510 -0.1926 -0.2458
  143OSM     OF15723   2.749   3.384   6.501  0.3551 -0.0944 -0.0134
  143OSM    C2F15724   2.817   3.570   6.622  0.7883 -0.3313 -0.3113
  143OSM    H2F15725   2.826   3.658   6.555 -0.4739  0.2316  0.2070
  143OSM    H2G15726   2.896   3.581   6.699 -0.6490 -1.3926  1.4035
  143OSM    C3F15727   2.682   3.581   6.703  0.1041 -1.0850  0.2350
  143OSM    H3F15728   2.597   3.571   6.632 -1.0202  1.1935  1.1754
  143OSM    H3G15729   2.676   3.679   6.754  2.2250 -1.1937  0.7893
  143OSM    C4F15730   2.672   3.468   6.808  0.1437 -0.7393 -0.2609
  143OSM    H4F15731   2.698   3.363   6.782  3.1970 -0.7451  2.2836
  143OSM    H4G15732   2.571   3.465   6.853  0.3734 -0.1538  0.3084
  143OSM    C5F15733   2.775   3.488   6.927 -0.6286 -0.0615  0.9911
  143OSM    H5F15734   2.767   3.597   6.950 -1.3552 -0.3311  2.0777
  143OSM    H5G15735   2.877   3.472   6.886 -1.6884  0.6632 -2.2041
  143OSM    C6F15736   2.739   3.392   7.040 -1.0095 -0.1658  0.6789
  143OSM    H6F15737   2.833   3.347   7.079 -0.2639  0.1209 -0.7226
  143OSM    H6G15738   2.685   3.303   7.003 -1.9561  0.1642  1.2376
  143OSM    C7F15739   2.659   3.460   7.154  0.1720  0.8044  0.4881
  143OSM    H7F15740   2.568   3.509   7.113  0.1592  3.1809  3.0239
  143OSM    H7G15741   2.716   3.549   7.190 -0.7105  0.3259  3.3142
  143OSM    C8F15742   2.642   3.380   7.281  0.1597  0.2337 -0.7929
  143OSM    H8F15743   2.715   3.423   7.352 -0.9957  3.8116 -1.5670
  143OSM    H8G15744   2.659   3.272   7.261 -0.0634  0.3427 -1.6040
  143OSM    C9F15745   2.503   3.383   7.335  0.2751  0.2810  0.0245
  143OSM    H9F15746   2.421   3.369   7.264  1.0910 -3.1930 -0.4391
  143OSM   C10F15747   2.458   3.390   7.465  0.0756 -0.2801  0.1105
  143OSM   H10F15748   2.350   3.373   7.476 -0.2350  0.3865 -1.5445
  143OSM   C11F15749   2.546   3.403   7.594 -0.6385  0.2669  0.1193
  143OSM   H11F15750   2.498   3.465   7.672 -0.0285 -0.5484  1.1702
  143OSM   H11G15751   2.648   3.440   7.569  0.1821 -2.8246 -1.6695
  143OSM   C12F15752   2.562   3.262   7.656 -0.1817 -0.2216 -0.1336
  143OSM   H12F15753   2.639   3.213   7.593 -1.8508 -0.8471 -1.7533
  143OSM   H12G15754   2.467   3.206   7.644  0.0189 -0.2164 -2.0315
  143OSM   C13F15755   2.597   3.260   7.806 -0.3182  0.1582  0.0387
  143OSM   H13F15756   2.683   3.325   7.832 -0.8332  0.4522  1.0935
  143OSM   H13G15757   2.628   3.156   7.825 -3.2731 -0.9937 -0.8217
  143OSM   C14F15758   2.483   3.299   7.898  0.1013  0.0793 -0.0470
  143OSM   H14F15759   2.406   3.225   7.868  1.8211 -0.9484 -2.1754
  143OSM   H14G15760   2.444   3.401   7.874  0.7035  0.7606  1.7310
  143OSM   C15F15761   2.511   3.301   8.050 -0.3594 -0.0482  0.0643
  143OSM   H15F15762   2.563   3.397   8.070  0.8899 -0.5109 -0.8349
  143OSM   H15G15763   2.582   3.224   8.088 -0.0955  1.6431  3.3271
  143OSM   C16F15764   2.390   3.289   8.139 -0.3392 -0.1993  0.4607
  143OSM   H16F15765   2.356   3.184   8.141  1.3444 -0.7636  0.7601
  143OSM   H16G15766   2.317   3.353   8.083  3.1436  1.2106 -2.9807
  143OSM   C17F15767   2.410   3.328   8.286  0.6657  0.4405 -0.2443
  143OSM   H17F15768   2.413   3.439   8.290 -1.9273  0.5396  0.9449
  143OSM   H17G15769   2.512   3.299   8.321  0.3674  2.6347  2.8589
  143OSM   C18F15770   2.298   3.285   8.392 -0.0356 -0.1871  0.1446
  143OSM   H18F15771   2.294   3.360   8.474 -0.4045  3.4054 -2.9292
  143OSM   H18G15772   2.331   3.182   8.417 -0.0934 -0.5262 -1.1279
  143OSM   H18H15773   2.202   3.279   8.337  0.9941  0.6283 -1.8252
  144OSM      N15774   2.678   2.103   6.212 -0.1840  0.8334  0.2740
  144OSM    C1515775   2.758   1.982   6.214 -0.1166  0.1862 -0.0612
  144OSM   H15A15776   2.734   1.908   6.139  0.3357 -2.1460  1.9639
  144OSM   H15B15777   2.731   1.934   6.307 -0.7504  1.1430  0.2536
  144OSM   H15C15778   2.864   2.001   6.207 -0.2529  0.4461 -1.8087
  144OSM    C1415779   2.703   2.174   6.346 -0.2975  0.2699  0.2564
  144OSM   H14A15780   2.648   2.266   6.364  0.8151  1.3113 -1.4285
  144OSM   H14B15781   2.810   2.188   6.358  0.1693 -0.9319 -1.9713
  144OSM   H14C15782   2.676   2.100   6.420  0.7679 -1.6825 -1.2160
  144OSM    C1315783   2.725   2.193   6.108  0.4165  0.3030 -0.6474
  144OSM   H13A15784   2.670   2.286   6.106  2.1961  1.4156 -0.2757
  144OSM   H13B15785   2.722   2.157   6.007 -1.7270  2.3445 -1.4221
  144OSM   H13C15786   2.824   2.224   6.138  0.4049 -0.0305 -0.2549
  144OSM    C1215787   2.530   2.071   6.198  0.7212  0.5597 -0.9526
  144OSM   H12A15788   2.475   2.163   6.188 -1.0484 -0.3253  0.2647
  144OSM   H12B15789   2.497   2.024   6.289 -0.8196 -0.5025 -2.0268
  144OSM    C1115790   2.493   1.989   6.070 -0.7151 -0.6720 -0.0959
  144OSM   H11A15791   2.543   2.045   5.987 -0.8605  1.9437  1.4676
  144OSM   H11B15792   2.385   2.005   6.050 -0.6488  0.7528  0.5413
  144OSM      P15793   2.435   1.763   6.165  0.2757 -0.1226  0.5545
  144OSM    O1315794   2.294   1.768   6.110 -0.0271  0.0262 -0.3046
  144OSM    O1415795   2.496   1.632   6.168  0.1376 -0.0995 -0.3081
  144OSM    O1115796   2.445   1.824   6.314  0.2283 -0.5452  0.2040
  144OSM    O1215797   2.528   1.849   6.065  0.0054 -0.4367 -0.0162
  144OSM    C1S15798   2.501   1.752   6.427 -1.0677  0.0657 -0.6392
  144OSM    H1S15799   2.609   1.781   6.428 -0.2530 -2.1160 -4.3956
  144OSM    H1T15800   2.502   1.641   6.420 -1.2870  0.0083  0.1524
  144OSM     NF15801   2.504   1.712   6.678  0.1566 -0.6101 -0.1075
  144OSM    HNF15802   2.451   1.638   6.718 -0.0784 -1.8967 -2.5552
  144OSM    C2S15803   2.433   1.778   6.569  0.3534  0.8363  0.2371
  144OSM    H2S15804   2.437   1.884   6.600  1.9345  0.9347 -0.2572
  144OSM    C3S15805   2.282   1.742   6.558 -0.3284 -0.1938 -0.3144
  144OSM    H3S15806   2.275   1.634   6.537  0.2594 -0.7822  2.1684
  144OSM     O315807   2.212   1.816   6.457 -0.3990  0.5141 -0.6903
  144OSM    HO315808   2.276   1.857   6.398 -0.7864  0.1219 -1.3958
  144OSM    C4S15809   2.217   1.768   6.690  0.8183 -0.1373  0.0704
  144OSM    H4S15810   2.215   1.677   6.751  0.2313  0.1413  0.4814
  144OSM    C5S15811   2.143   1.875   6.731 -0.1724 -0.4956  0.2033
  144OSM    H5S15812   2.119   1.957   6.662  1.3365  2.6654  3.1551
  144OSM    C6S15813   2.075   1.884   6.867 -0.5531 -0.4021  0.2130
  144OSM    H6S15814   1.970   1.855   6.844 -0.3646  0.2135 -1.5845
  144OSM    H6T15815   2.065   1.993   6.882 -0.8860 -0.4498  0.3438
  144OSM    C7S15816   2.140   1.823   6.992 -0.2611  0.1547  1.0783
  144OSM    H7S15817   2.249   1.840   7.001  0.2590 -0.9109 -2.0471
  144OSM    H7T15818   2.134   1.712   6.989  1.6536  0.0495 -0.4874
  144OSM    C8S15819   2.081   1.868   7.121  1.1191 -0.3554  0.2719
  144OSM    H8S15820   1.970   1.871   7.114  1.0610 -1.2709  0.7343
  144OSM    H8T15821   2.106   1.973   7.150  0.4440 -0.2141  0.3495
  144OSM    C9S15822   2.111   1.772   7.238 -0.5462  0.0545 -0.2436
  144OSM    H9S15823   2.221   1.761   7.253 -0.3439 -1.3792 -2.3505
  144OSM    H9T15824   2.067   1.674   7.210 -0.8479  0.5982 -1.7689
  144OSM   C10S15825   2.072   1.819   7.376 -0.8701 -0.1327  0.4983
  144OSM   H10S15826   1.962   1.833   7.377 -0.8612 -0.0151  1.7127
  144OSM   H10T15827   2.126   1.914   7.396 -0.7393  0.1440 -1.0312
  144OSM   C11S15828   2.103   1.718   7.481  0.2115 -0.8664 -0.0780
  144OSM   H11S15829   2.211   1.690   7.486  1.0397  0.5644 -4.7055
  144OSM   H11T15830   2.046   1.624   7.463 -0.2609 -0.3218 -1.5785
  144OSM   C12S15831   2.060   1.767   7.624 -0.1629 -0.1447 -0.1229
  144OSM   H12S15832   1.954   1.796   7.613  0.0954  0.6057 -0.7108
  144OSM   H12T15833   2.131   1.849   7.649  1.3317 -1.5559  0.5598
  144OSM   C13S15834   2.085   1.661   7.732 -1.1615 -0.1322  0.0176
  144OSM   H13S15835   2.180   1.609   7.707 -0.5143  1.4191 -0.9740
  144OSM   H13T15836   2.010   1.581   7.716  0.1215 -1.4497  0.3911
  144OSM   C14S15837   2.097   1.714   7.878 -0.8028 -0.5250 -0.2685
  144OSM   H14S15838   1.998   1.762   7.897 -0.4615  1.3050 -2.7112
  144OSM   H14T15839   2.173   1.795   7.881 -0.7954 -0.4899 -1.2526
  144OSM   C15S15840   2.131   1.601   7.975 -0.1425  0.2947 -0.2192
  144OSM   H15S15841   2.224   1.553   7.937 -0.0517  0.3665 -0.0872
  144OSM   H15T15842   2.047   1.528   7.974 -2.6197  2.9557  0.8477
  144OSM   C16S15843   2.162   1.655   8.108 -0.3964 -0.0272  0.1793
  144OSM   H16S15844   2.072   1.707   8.147 -0.7963  1.2560 -2.2979
  144OSM   H16T15845   2.242   1.732   8.113  1.1449 -1.6022  0.8121
  144OSM   C17S15846   2.199   1.552   8.218 -0.7297  0.5870  0.2584
  144OSM   H17S15847   2.308   1.529   8.210 -0.8543 -0.6787  1.5924
  144OSM   H17T15848   2.143   1.457   8.200 -1.9030  1.4874 -1.0108
  144OSM   C18S15849   2.176   1.594   8.362  0.3640  1.0643  0.7223
  144OSM   H18S15850   2.235   1.682   8.394  2.1850 -0.5613  2.0431
  144OSM   H18T15851   2.196   1.513   8.435  0.4051 -0.4507 -0.9040
  144OSM   H18U15852   2.067   1.618   8.367  0.3276  1.0311  0.1635
  144OSM    C1F15853   2.630   1.741   6.718 -0.6797  0.0456  1.0983
  144OSM     OF15854   2.684   1.842   6.680  0.0342  0.0646  0.7335
  144OSM    C2F15855   2.682   1.658   6.832 -0.3417  0.4161  0.8054
  144OSM    H2F15856   2.766   1.720   6.871 -1.6039  1.5064  1.8689
  144OSM    H2G15857   2.723   1.565   6.787 -0.4255  0.4340  0.6901
  144OSM    C3F15858   2.582   1.615   6.933  0.5040  0.3272 -0.0589
  144OSM    H3F15859   2.633   1.565   7.018  1.4007 -2.2308 -1.9802
  144OSM    H3G15860   2.508   1.538   6.902 -1.3445  0.6367  3.0790
  144OSM    C4F15861   2.515   1.740   7.001 -0.0382 -0.2381 -0.6700
  144OSM    H4F15862   2.427   1.703   7.058  1.8537 -0.5662  2.3065
  144OSM    H4G15863   2.484   1.809   6.920  1.4287 -0.2116 -1.2485
  144OSM    C5F15864   2.616   1.805   7.085 -0.1778  0.3432 -0.8487
  144OSM    H5F15865   2.649   1.903   7.045  0.4893  0.7354  0.5921
  144OSM    H5G15866   2.712   1.750   7.094  0.3334  1.3835  0.2929
  144OSM    C6F15867   2.559   1.828   7.229  0.8146  0.5631 -1.3662
  144OSM    H6F15868   2.516   1.733   7.267  0.3823  1.2941  0.0848
  144OSM    H6G15869   2.476   1.902   7.229 -0.5201 -0.8457 -0.2732
  144OSM    C7F15870   2.666   1.875   7.324  0.7515 -0.5192 -0.3262
  144OSM    H7F15871   2.718   1.968   7.291  0.6159 -0.9052 -1.6733
  144OSM    H7G15872   2.747   1.800   7.336  0.2130 -0.8751  1.2800
  144OSM    C8F15873   2.614   1.889   7.465 -0.4054 -0.2399 -0.1887
  144OSM    H8F15874   2.515   1.939   7.461 -0.2268  0.1861  0.6762
  144OSM    H8G15875   2.682   1.957   7.520 -1.0968 -1.5257  2.4256
  144OSM    C9F15876   2.589   1.766   7.552  0.8616 -0.3558  0.5463
  144OSM    H9F15877   2.534   1.680   7.512 -0.6913  0.9676 -0.2818
  144OSM   C10F15878   2.613   1.762   7.682  0.4217 -0.9515 -0.1541
  144OSM   H10F15879   2.582   1.668   7.730 -1.3332 -0.8473 -1.0385
  144OSM   C11F15880   2.660   1.875   7.774 -0.4886  0.3023 -0.4877
  144OSM   H11F15881   2.708   1.958   7.718  0.6188  0.2533  0.3579
  144OSM   H11G15882   2.749   1.839   7.830  1.1623  0.1608 -3.0473
  144OSM   C12F15883   2.553   1.922   7.882 -0.6936 -0.2110  1.0093
  144OSM   H12F15884   2.447   1.900   7.856 -0.5652  0.5224 -0.1960
  144OSM   H12G15885   2.563   2.033   7.887 -0.7153 -0.2313  1.6402
  144OSM   C13F15886   2.568   1.844   8.013  0.6590 -0.6127  0.3675
  144OSM   H13F15887   2.673   1.837   8.049  1.4166  2.5603 -0.8448
  144OSM   H13G15888   2.530   1.741   8.005 -0.3458 -0.2016 -0.3105
  144OSM   C14F15889   2.468   1.905   8.116 -0.5781  1.2581 -0.2435
  144OSM   H14F15890   2.362   1.895   8.087 -1.0989 -0.2494  1.9167
  144OSM   H14G15891   2.486   2.015   8.117 -2.9048  1.9123 -4.8566
  144OSM   C15F15892   2.494   1.846   8.253  0.0363  0.1067  0.5882
  144OSM   H15F15893   2.604   1.860   8.253  0.0665 -0.0064 -0.7436
  144OSM   H15G15894   2.473   1.738   8.243 -1.6576  0.6099 -2.3489
  144OSM   C16F15895   2.422   1.923   8.375  0.1890 -0.2524 -0.5450
  144OSM   H16F15896   2.419   1.851   8.460  0.7564 -0.3234 -0.5801
  144OSM   H16G15897   2.316   1.948   8.358  0.6253  2.5186  0.2727
  144OSM   C17F15898   2.498   2.050   8.405 -0.9752  0.3799 -0.5971
  144OSM   H17F15899   2.447   2.100   8.490 -2.7194 -1.2672 -0.6226
  144OSM   H17G15900   2.510   2.122   8.321  2.0366  1.0622  0.2790
  144OSM   C18F15901   2.644   2.025   8.448 -0.8293 -0.4382 -0.6510
  144OSM   H18F15902   2.690   2.121   8.480  0.0765 -1.0101 -0.1954
  144OSM   H18G15903   2.710   1.994   8.364  1.1940  1.8871 -0.0425
  144OSM   H18H15904   2.656   1.955   8.534  0.0159  0.7417  0.2171
  145SAPE     N15905   0.447   4.442  11.063  0.6270 -0.1496 -0.0377
  145SAPE   HN115906   0.506   4.492  10.994  0.2896 -0.8164 -0.8258
  145SAPE   HN215907   0.361   4.496  11.087  0.1740 -1.3785  1.2630
  145SAPE   HN315908   0.491   4.431  11.157 -0.5795 -0.5637  0.5101
  145SAPE   C1215909   0.431   4.302  11.002  0.3438 -0.1280 -0.0769
  145SAPE  H12A15910   0.343   4.252  11.047  1.3829 -3.0945 -1.1415
  145SAPE  H12B15911   0.522   4.242  11.018  0.6205  0.8784  2.5042
  145SAPE   C1115912   0.403   4.307  10.853 -0.0286  0.2701 -0.4811
  145SAPE  H11A15913   0.390   4.202  10.821 -0.5114 -0.2525  1.3113
  145SAPE  H11B15914   0.487   4.355  10.798 -0.3438  2.3542  0.7417
  145SAPE     P15915   0.159   4.350  10.752 -0.1606 -0.1399 -0.0019
  145SAPE   O1315916   0.093   4.256  10.843 -0.3979 -0.0759  0.1906
  145SAPE   O1415917   0.095   4.472  10.726 -0.6156  0.2101  0.4687
  145SAPE   O1215918   0.294   4.387  10.815  0.0738 -0.2126 -0.2829
  145SAPE   O1115919   0.215   4.281  10.627 -0.3044 -0.1403  0.8480
  145SAPE    C115920   0.292   4.344  10.529 -0.8163 -0.1262  0.1813
  145SAPE    HA15921   0.329   4.446  10.553  1.0396 -0.5439 -0.7817
  145SAPE    HB15922   0.389   4.290  10.528 -0.2527  0.8563 -0.3048
  145SAPE    C215923   0.231   4.341  10.389  0.9817 -0.1461  0.0854
  145SAPE    HS15924   0.295   4.382  10.308  0.0251 -0.5951 -0.9241
  145SAPE   O2115925   0.111   4.422  10.387  0.1361  0.1103 -0.2472
  145SAPE   C2115926   0.125   4.551  10.406  0.2445  0.7210 -0.7723
  145SAPE   O2215927   0.225   4.617  10.384 -0.0650  0.3986  0.2430
  145SAPE   C2215928  -0.008   4.615  10.435  0.9890 -0.1513 -0.4154
  145SAPE   H2R15929  -0.077   4.532  10.464  2.9501 -0.8728  2.6257
  145SAPE   H2S15930  -0.004   4.689  10.518  1.9448  0.0377 -0.6304
  145SAPE    C315931   0.193   4.203  10.339 -0.5168 -0.1118  0.0698
  145SAPE    HX15932   0.144   4.145  10.420 -0.8319 -0.0051 -0.0442
  145SAPE    HY15933   0.288   4.152  10.310 -0.3179  0.7371 -0.8113
  145SAPE   O3115934   0.102   4.215  10.224  0.3633 -0.3251 -0.2828
  145SAPE   C3115935   0.157   4.233  10.107 -0.2765  0.0375  0.2606
  145SAPE   O3215936   0.279   4.223  10.079  0.4524 -0.2001 -0.2476
  145SAPE   C3215937   0.057   4.270  10.005  0.0094  0.2420  1.0303
  145SAPE   H2X15938   0.001   4.360  10.038 -3.6096 -1.0404 -0.9876
  145SAPE   H2Y15939  -0.015   4.186  10.001  0.4697 -0.1165 -0.5141
  145SAPE   C2315940  -0.067   4.689  10.313  0.6076  0.9506  0.8994
  145SAPE   H3R15941  -0.008   4.779  10.286 -0.9863  1.7004 -0.2217
  145SAPE   H3S15942  -0.170   4.719  10.342 -0.5147 -0.5469 -1.2326
  145SAPE   C2415943  -0.101   4.595  10.199 -0.5802  0.3336 -0.3881
  145SAPE   H4R15944  -0.169   4.512  10.229 -1.0781 -0.0258 -2.3803
  145SAPE   H4S15945  -0.009   4.548  10.157 -0.2229  1.0379 -0.4118
  145SAPE   C2515946  -0.157   4.678  10.090 -0.0077  0.2866  0.5960
  145SAPE   H5R15947  -0.253   4.723  10.121  0.4824  0.6787  1.5752
  145SAPE   C2615948  -0.096   4.713   9.973 -0.0275 -0.7290  0.1524
  145SAPE   H6R15949  -0.152   4.788   9.915  1.1264 -1.0345 -1.4104
  145SAPE   C2715950   0.040   4.683   9.913 -0.2821 -0.1255 -0.7201
  145SAPE   H7R15951   0.027   4.595   9.845 -2.1023 -0.0612 -0.5117
  145SAPE   H7S15952   0.098   4.635   9.995 -1.2788 -3.1295 -1.6197
  145SAPE   C2815953   0.102   4.797   9.848  0.0520  0.0572 -0.6158
  145SAPE   H8R15954   0.164   4.860   9.914 -2.8067  1.3673  1.0068
  145SAPE   C2915955   0.100   4.830   9.715 -0.1938 -0.3602 -0.4133
  145SAPE   H9R15956   0.158   4.913   9.671  0.4089  0.2209  1.3890
  145SAPE  C21015957   0.023   4.758   9.609 -0.5022 -0.0296  0.1418
  145SAPE  H10R15958  -0.063   4.813   9.567  0.1789  2.1725  1.4797
  145SAPE  H10S15959  -0.032   4.674   9.657 -1.3752 -0.0879 -0.9278
  145SAPE  C21115960   0.099   4.699   9.497 -0.3818  0.2890 -0.0367
  145SAPE  H11R15961   0.199   4.656   9.517  0.2826  0.6740 -2.1919
  145SAPE  C21215962   0.051   4.681   9.371  0.4370 -0.5087 -0.9451
  145SAPE  H12R15963   0.107   4.637   9.288  3.0852 -1.0283  0.9838
  145SAPE  C21315964  -0.091   4.711   9.325 -0.3013  0.3385  0.5373
  145SAPE  H13R15965  -0.148   4.771   9.400 -0.1660 -0.1433  1.0326
  145SAPE  H13S15966  -0.151   4.618   9.322 -1.9945  1.4192 -1.9464
  145SAPE  C21415967  -0.097   4.786   9.195  0.0291 -0.2833  0.0221
  145SAPE  H14R15968  -0.119   4.894   9.197  0.8982 -0.0971  0.0606
  145SAPE  C21515969  -0.082   4.738   9.072 -0.5323 -0.9479 -0.5369
  145SAPE  H15R15970  -0.079   4.812   8.991  0.5029 -0.3834 -0.0149
  145SAPE  C21615971  -0.065   4.596   9.035 -0.2652  0.3606 -0.6094
  145SAPE  H16R15972  -0.070   4.541   9.132  0.6251 -0.6806 -1.1318
  145SAPE  H16S15973   0.037   4.600   8.990  0.3583  0.6533  0.7651
  145SAPE  C21715974  -0.160   4.531   8.929  0.8929 -0.2450  0.0488
  145SAPE  H17R15975  -0.142   4.422   8.919  0.0965 -0.4710  0.9138
  145SAPE  H17S15976  -0.143   4.579   8.830  0.0101  2.2353  1.0168
  145SAPE  C21815977  -0.308   4.552   8.967 -0.0541  0.2158 -0.4761
  145SAPE  H18R15978  -0.328   4.656   8.999 -2.8935 -0.4748  0.2557
  145SAPE  H18S15979  -0.357   4.484   9.040 -3.5203  1.1838 -1.6897
  145SAPE  C21915980  -0.405   4.544   8.852  0.4740 -0.5155  0.2711
  145SAPE  H19R15981  -0.493   4.481   8.879 -0.0351 -0.0130 -0.1927
  145SAPE  H19S15982  -0.355   4.489   8.769  1.4655  0.7541  0.0010
  145SAPE  C22015983  -0.461   4.672   8.789 -0.1255  0.6872 -0.1505
  145SAPE  H20R15984  -0.535   4.655   8.708 -1.9823  0.3339  1.5455
  145SAPE  H20S15985  -0.376   4.738   8.761  2.4583 -1.0971  2.8298
  145SAPE  H20T15986  -0.516   4.739   8.858  0.4310  3.7942 -2.4711
  145SAPE   C3315987   0.125   4.287   9.869  0.4829  1.2394 -0.1672
  145SAPE   H3X15988   0.157   4.184   9.843 -0.5538  0.9587 -0.3763
  145SAPE   H3Y15989   0.212   4.357   9.870  1.4240  0.2638 -3.1160
  145SAPE   C3415990   0.036   4.327   9.749  0.2409  0.8111  0.8986
  145SAPE   H4X15991   0.002   4.433   9.751 -0.0992  0.7074  0.8057
  145SAPE   H4Y15992  -0.049   4.255   9.751  0.5037  0.4926  0.6918
  145SAPE   C3515993   0.108   4.305   9.607  0.2208  0.3035 -0.4325
  145SAPE   H5X15994   0.143   4.199   9.607  1.1979  0.6022  0.6144
  145SAPE   H5Y15995   0.201   4.366   9.617 -0.2140  0.6955  1.6121
  145SAPE   C3615996   0.029   4.345   9.485 -0.1923  0.0444  0.1840
  145SAPE   H6X15997   0.086   4.390   9.401  0.5698 -2.2417 -0.6287
  145SAPE   H6Y15998  -0.047   4.416   9.523 -0.0649 -0.8782  2.3110
  145SAPE   C3715999  -0.044   4.230   9.417  0.3975  0.5502 -0.2212
  145SAPE   H7X16000  -0.122   4.199   9.490  0.3557 -0.5129 -0.7004
  145SAPE   H7Y16001   0.029   4.146   9.410 -1.0271 -1.0340  2.2699
  145SAPE   C3816002  -0.117   4.255   9.280 -0.7997  0.3618 -1.2979
  145SAPE   H8X16003  -0.043   4.296   9.209  0.3220 -1.0965 -1.0088
  145SAPE   H8Y16004  -0.199   4.323   9.312 -0.9398 -1.6172  3.3378
  145SAPE   C3916005  -0.171   4.126   9.223 -0.0769  0.2896  0.5701
  145SAPE   H9X16006  -0.250   4.078   9.285 -1.7634  1.2543 -0.7777
  145SAPE   H9Y16007  -0.083   4.063   9.196 -1.2161 -1.8397  1.5007
  145SAPE  C31016008  -0.258   4.124   9.091  0.0490 -0.2509 -0.0043
  145SAPE  H10X16009  -0.194   4.151   9.005  0.8819 -1.9522  0.0519
  145SAPE  H10Y16010  -0.338   4.202   9.094  1.5945  1.4273 -0.6629
  145SAPE  C31116011  -0.318   3.989   9.054  0.3981  0.2833 -1.1928
  145SAPE  H11X16012  -0.364   3.944   9.144  2.2896  2.2314  0.8572
  145SAPE  H11Y16013  -0.233   3.923   9.029  0.5843  0.4609 -1.0264
  145SAPE  C31216014  -0.411   3.980   8.929 -0.5940  0.7711 -0.3542
  145SAPE  H12X16015  -0.357   4.032   8.847  0.2370  2.5804  1.2821
  145SAPE  H12Y16016  -0.505   4.037   8.945  1.0583  2.9779  2.1580
  145SAPE  C31316017  -0.453   3.838   8.892 -0.4070  0.0862  0.0578
  145SAPE  H13X16018  -0.488   3.788   8.986 -0.1540 -1.0563 -0.4401
  145SAPE  H13Y16019  -0.362   3.791   8.850 -1.5890 -3.3317  0.9577
  145SAPE  C31416020  -0.552   3.833   8.779 -0.1509 -0.0408 -0.3058
  145SAPE  H14X16021  -0.497   3.878   8.693  0.6229  0.0115  0.2061
  145SAPE  H14Y16022  -0.637   3.899   8.805  0.3849 -0.2872  2.2986
  145SAPE  C31516023  -0.606   3.691   8.746 -0.4455  0.2038 -0.2731
  145SAPE  H15X16024  -0.533   3.620   8.702  1.6041 -1.7707  5.4038
  145SAPE  H15Y16025  -0.670   3.712   8.658 -1.9941 -0.2550  0.7126
  145SAPE  C31616026  -0.686   3.636   8.865 -0.3737 -0.1451  0.0473
  145SAPE  H16X16027  -0.723   3.726   8.918  0.0218  0.7295 -1.1285
  145SAPE  H16Y16028  -0.614   3.584   8.932  0.3311  0.0754 -0.5253
  145SAPE  C31716029  -0.813   3.556   8.816  0.1017 -0.9872 -0.1064
  145SAPE  H17X16030  -0.806   3.470   8.747 -0.9471 -1.4227  0.3061
  145SAPE  H17Y16031  -0.864   3.626   8.746 -0.9448 -2.0579 -0.4390
  145SAPE  C31816032  -0.910   3.522   8.928 -0.2877 -0.6344 -0.5730
  145SAPE  H18X16033  -0.998   3.468   8.886  0.6988 -1.1546 -2.0345
  145SAPE  H18Y16034  -0.950   3.613   8.978 -0.4638 -0.0442 -1.7501
  145SAPE  H18Z16035  -0.857   3.461   9.004  0.9659 -0.8363 -1.5860
  146SAPE     N16036   5.741   5.678  10.535  0.6793 -0.2608 -0.4882
  146SAPE   HN116037   5.697   5.718  10.620  1.1329  1.6034 -1.0803
  146SAPE   HN216038   5.844   5.681  10.548  0.4553 -0.2350  1.5897
  146SAPE   HN316039   5.715   5.751  10.465 -0.3242 -0.5353 -0.4165
  146SAPE   C1216040   5.687   5.545  10.496  1.0544  0.4376  0.5583
  146SAPE  H12A16041   5.661   5.536  10.389 -3.5244 -1.6404  1.6183
  146SAPE  H12B16042   5.584   5.553  10.536  0.2458 -1.2827 -1.0748
  146SAPE   C1116043   5.766   5.422  10.538 -0.7712  0.3261  0.0437
  146SAPE  H11A16044   5.871   5.433  10.502 -0.3313 -1.7553  0.5573
  146SAPE  H11B16045   5.721   5.330  10.495  1.3714  0.3612 -2.5536
  146SAPE     P16046   5.707   5.321  10.787 -0.5819  0.0922  0.3947
  146SAPE   O1316047   5.807   5.309  10.894  0.6949  0.0152  0.2249
  146SAPE   O1416048   5.572   5.366  10.824 -0.2017 -0.2792 -0.5347
  146SAPE   O1216049   5.769   5.424  10.681  0.7460 -0.0369  0.1513
  146SAPE   O1116050   5.689   5.195  10.701 -0.3144  0.7113 -0.4338
  146SAPE    C116051   5.626   5.076  10.755  0.0372 -0.6916 -0.1157
  146SAPE    HA16052   5.705   5.006  10.791  0.7239 -0.6503 -1.4875
  146SAPE    HB16053   5.554   5.090  10.838  2.2039 -0.7273  1.9002
  146SAPE    C216054   5.553   5.011  10.633  0.0376  0.4314  0.2848
  146SAPE    HS16055   5.509   4.914  10.663  0.8481  0.1150  0.4744
  146SAPE   O2116056   5.654   4.980  10.533  0.5859 -0.4138 -0.2855
  146SAPE   C2116057   5.745   4.894  10.554 -0.2362  0.7058  0.2431
  146SAPE   O2216058   5.754   4.827  10.658 -0.4468  0.1708  0.1405
  146SAPE   C2216059   5.850   4.893  10.438  0.0779 -0.3977  0.3697
  146SAPE   H2R16060   5.929   4.820  10.463  1.2878  0.3304 -1.1753
  146SAPE   H2S16061   5.808   4.858  10.341 -1.4005  1.8566  0.1137
  146SAPE    C316062   5.448   5.095  10.563 -0.5021 -0.4052 -0.5984
  146SAPE    HX16063   5.500   5.190  10.539  1.9771 -1.6210 -0.2591
  146SAPE    HY16064   5.367   5.114  10.637 -0.5986 -2.9514  0.0687
  146SAPE   O3116065   5.397   5.028  10.446  0.3842 -0.2282 -0.8294
  146SAPE   C3116066   5.432   5.077  10.327 -0.8271  0.2143  0.1117
  146SAPE   O3216067   5.469   5.192  10.301  0.1778  0.3210 -0.2497
  146SAPE   C3216068   5.405   4.982  10.212 -0.1417  0.1468 -0.3242
  146SAPE   H2X16069   5.296   4.994  10.200 -0.7470 -1.3596  2.6470
  146SAPE   H2Y16070   5.439   4.878  10.235 -1.4153 -0.1863  0.1034
  146SAPE   C2316071   5.928   5.024  10.428 -0.3549 -0.9928 -0.9121
  146SAPE   H3R16072   6.036   5.000  10.412  0.8964  3.1698  0.0878
  146SAPE   H3S16073   5.918   5.073  10.527  1.5255 -1.7997 -0.2784
  146SAPE   C2416074   5.869   5.123  10.328 -0.7372  0.4012 -0.0649
  146SAPE   H4R16075   5.765   5.144  10.360 -1.2412 -1.9981  0.0807
  146SAPE   H4S16076   5.871   5.071  10.229  3.0812 -2.5642  1.3028
  146SAPE   C2516077   5.967   5.240  10.326  0.0783 -1.2527 -0.3333
  146SAPE   H5R16078   6.018   5.258  10.422 -2.0451  3.5719  0.2025
  146SAPE   C2616079   5.995   5.323  10.230  0.3886 -0.4000  0.8947
  146SAPE   H6R16080   6.067   5.404  10.251  1.6345 -0.8788 -1.2294
  146SAPE   C2716081   5.916   5.328  10.096 -0.4897 -0.0921  0.0902
  146SAPE   H7R16082   5.862   5.235  10.068 -0.4242  0.4138 -1.8578
  146SAPE   H7S16083   5.994   5.329  10.017 -0.1257 -2.4695  0.3521
  146SAPE   C2816084   5.838   5.458  10.072 -0.5454  0.1425 -0.0067
  146SAPE   H8R16085   5.888   5.535  10.132  2.3773 -1.6827  0.1013
  146SAPE   C2916086   5.730   5.475   9.986 -0.1749  0.2337 -0.3424
  146SAPE   H9R16087   5.673   5.568   9.985  0.0491  0.3779  0.2260
  146SAPE  C21016088   5.676   5.365   9.901  0.6457  0.7096  0.1612
  146SAPE  H10R16089   5.651   5.269   9.951 -0.2192 -0.1320 -1.7566
  146SAPE  H10S16090   5.763   5.331   9.841 -0.0553  1.5390 -1.3806
  146SAPE  C21116091   5.559   5.390   9.811  0.4469  0.0428  0.6635
  146SAPE  H11R16092   5.460   5.405   9.857 -0.9343  0.1501 -2.1621
  146SAPE  C21216093   5.561   5.392   9.676 -0.3909 -0.0777  0.1589
  146SAPE  H12R16094   5.465   5.421   9.632  0.5181  1.2342 -1.0116
  146SAPE  C21316095   5.670   5.373   9.578  0.2182  0.4177 -1.0514
  146SAPE  H13R16096   5.648   5.281   9.518  1.8919 -0.5943 -0.2009
  146SAPE  H13S16097   5.769   5.375   9.628 -0.1884 -2.0098  0.0179
  146SAPE  C21416098   5.672   5.484   9.481  0.0785  0.2276  0.0153
  146SAPE  H14R16099   5.719   5.577   9.515  3.0752 -0.5779 -1.5803
  146SAPE  C21516100   5.620   5.494   9.359  0.2953  0.2595  0.2122
  146SAPE  H15R16101   5.637   5.587   9.302  2.2317 -0.5987 -0.7037
  146SAPE  C21616102   5.547   5.382   9.285  0.3837  1.0081  0.2985
  146SAPE  H16R16103   5.547   5.285   9.338 -0.2454  1.7088  1.6380
  146SAPE  H16S16104   5.579   5.365   9.180 -0.0484 -0.1444  0.3517
  146SAPE  C21716105   5.397   5.419   9.266  0.0568 -0.3478 -0.1841
  146SAPE  H17R16106   5.354   5.430   9.368 -0.1256 -0.0599 -0.2896
  146SAPE  H17S16107   5.336   5.335   9.229  0.1712 -0.9539  0.9655
  146SAPE  C21816108   5.365   5.544   9.178 -0.1088  0.1192  0.7618
  146SAPE  H18R16109   5.407   5.536   9.075 -0.6751 -2.6051  0.6561
  146SAPE  H18S16110   5.414   5.627   9.232  0.3203  1.2562 -1.2859
  146SAPE  C21916111   5.211   5.556   9.184 -0.2946 -0.2972  0.3269
  146SAPE  H19R16112   5.169   5.545   9.286 -1.2861 -1.3514 -0.1751
  146SAPE  H19S16113   5.173   5.464   9.134  1.3232  0.4743 -2.5547
  146SAPE  C22016114   5.157   5.670   9.094  0.1414 -0.3193  0.4765
  146SAPE  H20R16115   5.201   5.664   8.993  1.1680  1.9197  0.7321
  146SAPE  H20S16116   5.183   5.771   9.133 -0.4148  0.0292 -0.0470
  146SAPE  H20T16117   5.047   5.666   9.081  0.1987  0.2630 -0.2005
  146SAPE   C3316118   5.472   5.019  10.081  0.4144 -0.9001 -0.0473
  146SAPE   H3X16119   5.581   5.005  10.099  0.2525  0.5692  2.6042
  146SAPE   H3Y16120   5.465   5.128  10.061  2.6404 -0.7979 -0.5921
  146SAPE   C3416121   5.427   4.948   9.956  0.1312  0.4697 -0.3291
  146SAPE   H4X16122   5.319   4.960   9.933 -0.4327 -1.6144  0.9633
  146SAPE   H4Y16123   5.447   4.840   9.972 -0.0105  0.6080  0.8477
  146SAPE   C3516124   5.501   4.993   9.835  0.2803 -0.3598  0.3007
  146SAPE   H5X16125   5.610   4.977   9.852  1.5965  1.1855 -4.9808
  146SAPE   H5Y16126   5.478   5.100   9.822 -2.3495 -1.1926 -3.4053
  146SAPE   C3616127   5.451   4.925   9.706  0.6592 -0.2838  0.6165
  146SAPE   H6X16128   5.341   4.942   9.694  0.6446 -0.9549 -0.3787
  146SAPE   H6Y16129   5.469   4.816   9.719  3.1531 -0.3892 -2.4466
  146SAPE   C3716130   5.519   4.956   9.571  0.7030 -0.2922  0.5084
  146SAPE   H7X16131   5.625   4.924   9.580  0.2643 -1.2659  3.3924
  146SAPE   H7Y16132   5.517   5.067   9.560  0.1043 -0.5441 -2.7585
  146SAPE   C3816133   5.459   4.875   9.452  0.0851 -0.7614 -0.1196
  146SAPE   H8X16134   5.354   4.907   9.432  0.0951 -1.1201 -0.7561
  146SAPE   H8Y16135   5.447   4.770   9.487 -0.1402 -0.9891 -0.8600
  146SAPE   C3916136   5.531   4.880   9.309  0.6986 -0.1252 -0.5209
  146SAPE   H9X16137   5.623   4.818   9.310  0.5974 -0.2902 -1.2945
  146SAPE   H9Y16138   5.553   4.988   9.297  0.9880 -0.0904  0.2458
  146SAPE  C31016139   5.431   4.842   9.200 -0.4373  0.1788 -0.0533
  146SAPE  H10X16140   5.353   4.921   9.199 -0.0603  0.6424  2.0076
  146SAPE  H10Y16141   5.377   4.755   9.243  1.6587 -0.0081  2.4897
  146SAPE  C31116142   5.501   4.834   9.064 -0.5461  0.5104  0.5779
  146SAPE  H11X16143   5.416   4.837   8.993  0.6097 -2.2352 -1.0668
  146SAPE  H11Y16144   5.562   4.743   9.049 -2.9072 -1.2421  1.0154
  146SAPE  C31216145   5.592   4.957   9.014 -0.1648  0.1968 -0.8523
  146SAPE  H12X16146   5.649   4.937   8.921  0.3885  2.3017 -1.0088
  146SAPE  H12Y16147   5.659   4.984   9.098 -1.3626  1.1858 -0.1809
  146SAPE  C31316148   5.505   5.075   8.976  0.1540 -0.1651  0.0923
  146SAPE  H13X16149   5.566   5.166   8.954 -0.4582 -0.1095 -1.5091
  146SAPE  H13Y16150   5.445   5.095   9.067 -0.2167 -1.4032  0.1311
  146SAPE  C31416151   5.414   5.060   8.855 -0.0636 -0.6032  0.0908
  146SAPE  H14X16152   5.314   5.029   8.891 -0.5037  1.8568  1.1777
  146SAPE  H14Y16153   5.450   4.991   8.775 -2.7211 -3.0546  0.8170
  146SAPE  C31516154   5.388   5.190   8.778  0.1050  0.2290  0.9678
  146SAPE  H15X16155   5.482   5.227   8.733 -0.0644  2.0102  1.9961
  146SAPE  H15Y16156   5.357   5.272   8.846 -3.3329  2.0733 -2.4340
  146SAPE  C31616157   5.283   5.165   8.666  0.3160  0.1187 -0.3199
  146SAPE  H16X16158   5.179   5.156   8.702 -1.1837 -1.2704 -4.4324
  146SAPE  H16Y16159   5.309   5.065   8.623  1.5593 -0.0313  0.7068
  146SAPE  C31716160   5.273   5.282   8.568  0.2407 -0.0924  0.8341
  146SAPE  H17X16161   5.253   5.370   8.633 -3.3612 -1.2965  1.6156
  146SAPE  H17Y16162   5.179   5.277   8.508  0.0500 -0.6004  1.1695
  146SAPE  C31816163   5.392   5.316   8.466 -1.1468  0.5811 -0.0311
  146SAPE  H18X16164   5.422   5.222   8.414  0.2797  0.9152  0.1446
  146SAPE  H18Y16165   5.477   5.366   8.516 -0.9197  0.1592  0.0122
  146SAPE  H18Z16166   5.362   5.391   8.390 -0.1613 -0.2395 -1.2623
  147SAPE     N16167   1.622   1.700  11.093 -0.2265  0.5655 -0.4058
  147SAPE   HN116168   1.564   1.682  11.009 -0.7364  0.3719 -0.0119
  147SAPE   HN216169   1.595   1.628  11.164  0.3805 -1.7589 -2.3712
  147SAPE   HN316170   1.602   1.793  11.135  0.6525  0.7012 -0.2673
  147SAPE   C1216171   1.773   1.690  11.067 -0.3463 -0.5150  0.5993
  147SAPE  H12A16172   1.827   1.689  11.164 -2.5928 -3.1135  1.9612
  147SAPE  H12B16173   1.792   1.789  11.020 -1.8219 -0.0158  1.0146
  147SAPE   C1116174   1.830   1.578  10.967  0.4114  0.3204 -0.3301
  147SAPE  H11A16175   1.941   1.578  10.971  0.3968  1.5487  0.7590
  147SAPE  H11B16176   1.807   1.611  10.863 -1.8109  0.9758  0.3129
  147SAPE     P16177   1.779   1.325  10.907 -0.0733 -0.1096 -0.2899
  147SAPE   O1316178   1.799   1.212  11.002 -0.4641 -0.0416 -0.0806
  147SAPE   O1416179   1.664   1.324  10.808  0.2171 -0.1712 -0.0227
  147SAPE   O1216180   1.767   1.453  11.001  1.1576 -0.1611  0.7415
  147SAPE   O1116181   1.915   1.350  10.839 -0.2784  0.1025 -0.3904
  147SAPE    C116182   2.021   1.247  10.829 -0.5302  0.1366  0.0304
  147SAPE    HA16183   2.095   1.250  10.912  0.2788 -0.4593 -0.6482
  147SAPE    HB16184   1.983   1.144  10.820 -2.5417  0.7523  0.8742
  147SAPE    C216185   2.099   1.258  10.694 -0.2792  0.2837 -0.9847
  147SAPE    HS16186   2.140   1.361  10.697  1.6998 -0.4645  0.8024
  147SAPE   O2116187   2.018   1.223  10.583 -0.2386 -0.0297 -0.0116
  147SAPE   C2116188   2.039   1.307  10.478  0.2428  0.7643  0.3348
  147SAPE   O2216189   2.106   1.409  10.483  0.6495  0.1865  0.3592
  147SAPE   C2216190   1.994   1.229  10.351  0.4907  0.9284  0.0322
  147SAPE   H2R16191   2.033   1.125  10.355 -2.8068 -0.4458 -0.3120
  147SAPE   H2S16192   1.884   1.215  10.357  0.8000 -1.7958  0.5655
  147SAPE    C316193   2.227   1.170  10.693  0.3974 -0.0736 -0.0858
  147SAPE    HX16194   2.204   1.064  10.715  2.6279 -0.2944  1.4777
  147SAPE    HY16195   2.286   1.191  10.785  2.0887 -1.2963 -0.8467
  147SAPE   O3116196   2.301   1.197  10.571  0.0318 -0.0123  0.1101
  147SAPE   C3116197   2.393   1.093  10.554 -0.0220  0.5856  0.0659
  147SAPE   O3216198   2.410   0.994  10.624  0.6093 -0.3768 -0.0020
  147SAPE   C3216199   2.475   1.129  10.434  0.3283  0.3581  0.3107
  147SAPE   H2X16200   2.577   1.093  10.460  0.5762  0.4145 -0.5314
  147SAPE   H2Y16201   2.488   1.239  10.419 -0.0206  0.2031 -1.3633
  147SAPE   C2316202   2.042   1.311  10.225  0.1777  0.3490  0.1771
  147SAPE   H3R16203   2.153   1.310  10.228  0.1840 -2.3858  1.4173
  147SAPE   H3S16204   2.011   1.418  10.228  0.2432  0.3473  1.0801
  147SAPE   C2416205   2.010   1.247  10.093  0.1531  0.3340 -0.3571
  147SAPE   H4R16206   1.984   1.141  10.111 -0.7415  0.9161  2.3399
  147SAPE   H4S16207   2.099   1.248  10.026 -0.2371  3.0314 -0.9405
  147SAPE   C2516208   1.894   1.304  10.019  0.1680 -1.0274  0.1383
  147SAPE   H5R16209   1.802   1.309  10.080 -0.0833 -0.8918 -0.2457
  147SAPE   C2616210   1.886   1.343   9.891  0.0974 -0.2926 -0.3279
  147SAPE   H6R16211   1.793   1.384   9.850  1.0070  0.3063 -1.9005
  147SAPE   C2716212   2.005   1.332   9.793  0.8600 -0.1462 -0.2907
  147SAPE   H7R16213   2.095   1.375   9.842  0.2304  1.7038 -0.6797
  147SAPE   H7S16214   1.985   1.420   9.728  0.2808  0.8257  1.1519
  147SAPE   C2816215   2.047   1.215   9.711  0.2421 -0.9167 -0.8490
  147SAPE   H8R16216   2.144   1.178   9.748 -1.2055 -2.2781  1.8920
  147SAPE   C2916217   1.976   1.154   9.616  0.0175 -0.0897 -0.1601
  147SAPE   H9R16218   2.028   1.077   9.557  0.4659  0.8902 -1.0827
  147SAPE  C21016219   1.837   1.200   9.574 -0.3906  0.0573 -0.2585
  147SAPE  H10R16220   1.853   1.288   9.508  0.4617 -1.0530 -1.6145
  147SAPE  H10S16221   1.789   1.236   9.667 -0.6324 -0.7163 -0.0792
  147SAPE  C21116222   1.762   1.088   9.514 -0.2122  0.1373 -1.0775
  147SAPE  H11R16223   1.747   1.002   9.581  0.6532  0.4653 -0.4558
  147SAPE  C21216224   1.718   1.081   9.380  0.4338 -1.3345 -0.3527
  147SAPE  H12R16225   1.651   1.000   9.349 -1.2969  0.6019 -2.0396
  147SAPE  C21316226   1.734   1.188   9.275 -0.6323 -0.1754 -0.0094
  147SAPE  H13R16227   1.748   1.285   9.327  1.9762  0.2897 -1.4024
  147SAPE  H13S16228   1.637   1.204   9.225 -2.7287  1.0766  3.9961
  147SAPE  C21416229   1.844   1.158   9.170  0.2152 -0.4097 -0.5143
  147SAPE  H14R16230   1.941   1.134   9.214  1.0168  0.6768 -1.6341
  147SAPE  C21516231   1.831   1.152   9.036 -0.2407  0.3205  0.9768
  147SAPE  H15R16232   1.917   1.131   8.972 -0.4145  1.1366  0.4607
  147SAPE  C21616233   1.701   1.176   8.962  0.1199  0.0556 -0.1119
  147SAPE  H16R16234   1.708   1.274   8.910  1.6983  0.3142  0.5149
  147SAPE  H16S16235   1.610   1.163   9.024  0.3253 -1.7353 -0.1292
  147SAPE  C21716236   1.679   1.063   8.856  0.3526 -0.1941  0.8297
  147SAPE  H17R16237   1.762   1.065   8.783 -2.2303  0.8341 -2.2846
  147SAPE  H17S16238   1.584   1.075   8.801  0.4620 -2.0220  0.1598
  147SAPE  C21816239   1.665   0.926   8.920 -0.3277  0.1671 -0.2998
  147SAPE  H18R16240   1.566   0.936   8.969 -1.1126  0.8852 -1.9447
  147SAPE  H18S16241   1.748   0.905   8.991 -0.1137  0.5170 -0.4422
  147SAPE  C21916242   1.649   0.802   8.826 -0.2385 -0.4438 -0.2651
  147SAPE  H19R16243   1.755   0.783   8.797  0.2695  1.1682  0.4607
  147SAPE  H19S16244   1.582   0.824   8.740  2.9211  1.0761 -2.5915
  147SAPE  C22016245   1.616   0.678   8.912 -0.0568 -0.1803 -0.2202
  147SAPE  H20R16246   1.696   0.656   8.986  2.2540  0.1964 -2.4720
  147SAPE  H20S16247   1.621   0.589   8.845  2.5534 -0.5131  0.3192
  147SAPE  H20T16248   1.519   0.689   8.965  0.1739  0.6169  0.0626
  147SAPE   C3316249   2.406   1.081  10.301  0.4653 -0.0438  0.0265
  147SAPE   H3X16250   2.299   1.107  10.294  0.4985  0.5656  1.3390
  147SAPE   H3Y16251   2.418   0.972  10.288 -1.3331 -0.3795  0.9374
  147SAPE   C3416252   2.471   1.147  10.179  0.6624 -0.0073 -0.1646
  147SAPE   H4X16253   2.576   1.112  10.167  0.3384 -0.3753 -2.1475
  147SAPE   H4Y16254   2.472   1.257  10.197  0.8734  0.0014 -0.2316
  147SAPE   C3516255   2.386   1.138  10.052 -0.0613 -0.3724 -0.5684
  147SAPE   H5X16256   2.426   1.217   9.984 -0.8819  1.1510  0.6603
  147SAPE   H5Y16257   2.277   1.143  10.070  0.2726  1.7110  1.1844
  147SAPE   C3616258   2.429   1.005   9.979 -0.1518  0.2106 -0.0592
  147SAPE   H6X16259   2.396   0.919  10.041  0.2337 -0.2476 -0.4800
  147SAPE   H6Y16260   2.537   0.994   9.955 -0.5002 -3.1187 -0.5139
  147SAPE   C3716261   2.349   1.003   9.848 -0.1806  0.6867  0.0870
  147SAPE   H7X16262   2.372   1.099   9.796  0.0658  0.5397 -0.0817
  147SAPE   H7Y16263   2.241   0.991   9.870  0.5431 -2.9359  2.4315
  147SAPE   C3816264   2.406   0.890   9.763  0.7305  0.3995  0.4511
  147SAPE   H8X16265   2.418   0.799   9.826  0.4516  0.6204  0.8304
  147SAPE   H8Y16266   2.511   0.917   9.736  0.2668  0.0437 -1.8527
  147SAPE   C3916267   2.321   0.862   9.641  0.1115 -1.2836  0.2434
  147SAPE   H9X16268   2.330   0.957   9.584  1.9898 -0.1572  2.2492
  147SAPE   H9Y16269   2.213   0.846   9.662  0.3534 -1.0482  1.7662
  147SAPE  C31016270   2.365   0.740   9.561 -0.0282 -0.3121  0.4508
  147SAPE  H10X16271   2.297   0.718   9.476 -1.4313 -2.3940  2.0236
  147SAPE  H10Y16272   2.368   0.652   9.628  0.6774 -0.1978  0.5785
  147SAPE  C31116273   2.507   0.763   9.509 -0.4893  0.4541  0.4324
  147SAPE  H11X16274   2.571   0.760   9.600  0.8090 -1.1705 -0.4651
  147SAPE  H11Y16275   2.521   0.857   9.452 -1.6491  0.5552  0.2916
  147SAPE  C31216276   2.546   0.651   9.411  0.4939 -0.2380 -0.0444
  147SAPE  H12X16277   2.513   0.554   9.453  0.3779 -1.6713 -3.1667
  147SAPE  H12Y16278   2.656   0.649   9.398  0.7954  0.8289  2.0338
  147SAPE  C31316279   2.471   0.663   9.276  0.1210 -0.5471 -0.2022
  147SAPE  H13X16280   2.531   0.726   9.208 -0.9111  0.8501  0.1335
  147SAPE  H13Y16281   2.377   0.722   9.277 -0.1999 -1.0476  0.8056
  147SAPE  C31416282   2.442   0.523   9.225 -0.2321 -0.0522 -0.0259
  147SAPE  H14X16283   2.379   0.470   9.300  0.2005 -0.3570  0.1264
  147SAPE  H14Y16284   2.536   0.465   9.212 -0.0504  0.7067 -2.5571
  147SAPE  C31516285   2.379   0.517   9.080  0.5900  0.3261 -0.0257
  147SAPE  H15X16286   2.278   0.563   9.071 -0.2176 -1.4203 -0.1905
  147SAPE  H15Y16287   2.353   0.410   9.066 -0.6899  0.1663  2.9118
  147SAPE  C31616288   2.469   0.556   8.957 -0.3264  0.6780  0.4231
  147SAPE  H16X16289   2.565   0.499   8.948 -0.2484  0.3445  2.7842
  147SAPE  H16Y16290   2.494   0.663   8.973  4.2649 -0.0385 -0.5160
  147SAPE  C31716291   2.396   0.555   8.822  0.5842  0.6870  0.0244
  147SAPE  H17X16292   2.456   0.614   8.749 -1.0623  1.7869 -0.4850
  147SAPE  H17Y16293   2.299   0.606   8.839  0.9670  1.2148  0.6861
  147SAPE  C31816294   2.366   0.412   8.765  0.2419 -0.2573  0.3512
  147SAPE  H18X16295   2.325   0.418   8.662 -1.5924  1.1617  1.0890
  147SAPE  H18Y16296   2.294   0.361   8.832 -1.0622  0.2216 -0.6360
  147SAPE  H18Z16297   2.458   0.352   8.751  0.1932 -0.2494 -0.0274
  148SAPE     N16298   2.772   2.767  10.753 -0.6703 -0.6620 -0.1070
  148SAPE   HN116299   2.833   2.846  10.782  0.1133 -1.7023  1.1794
  148SAPE   HN216300   2.699   2.745  10.823 -2.3845  0.6346 -1.3752
  148SAPE   HN316301   2.830   2.681  10.751 -1.0099 -0.9628  1.4483
  148SAPE   C1216302   2.701   2.806  10.628  0.0651  0.6268 -0.8046
  148SAPE  H12A16303   2.615   2.865  10.664 -0.5976 -0.7087 -0.1490
  148SAPE  H12B16304   2.643   2.717  10.596 -0.5486  0.8584 -0.3431
  148SAPE   C1116305   2.797   2.875  10.534  0.0214 -0.5436 -0.3107
  148SAPE  H11A16306   2.759   2.869  10.430  1.1588 -1.7222 -0.6833
  148SAPE  H11B16307   2.898   2.828  10.524  0.2943 -0.0818  0.1907
  148SAPE     P16308   2.888   3.082  10.666 -0.3349 -0.2423  0.4298
  148SAPE   O1316309   2.899   2.988  10.782 -0.7599  0.3206  0.1130
  148SAPE   O1416310   3.014   3.144  10.610 -0.1009 -0.0613  0.4746
  148SAPE   O1216311   2.812   3.018  10.545  0.4235  0.1775 -0.1156
  148SAPE   O1116312   2.794   3.196  10.715  0.4948 -0.0756  1.1307
  148SAPE    C116313   2.664   3.217  10.650 -0.2429  1.1055  0.4564
  148SAPE    HA16314   2.606   3.125  10.627  0.6012  0.5529  0.5237
  148SAPE    HB16315   2.595   3.258  10.728 -2.0952  0.4431 -0.7533
  148SAPE    C216316   2.664   3.314  10.531  0.3029 -0.4324  0.0028
  148SAPE    HS16317   2.562   3.349  10.505  0.4953  0.9675  1.0369
  148SAPE   O2116318   2.722   3.257  10.409  0.1956 -0.3849 -0.8306
  148SAPE   C2116319   2.652   3.161  10.357 -0.7571  0.4497  0.2351
  148SAPE   O2216320   2.551   3.105  10.405 -0.1984 -0.3703  0.4063
  148SAPE   C2216321   2.722   3.105  10.239 -0.2223  0.0002  0.1915
  148SAPE   H2R16322   2.812   3.045  10.265 -1.4092 -0.8136  2.9322
  148SAPE   H2S16323   2.650   3.035  10.191  0.2747  0.1426 -0.7700
  148SAPE    C316324   2.738   3.444  10.569 -0.3612 -0.3085 -0.0481
  148SAPE    HX16325   2.835   3.402  10.601 -0.2680 -0.2152 -0.2101
  148SAPE    HY16326   2.682   3.489  10.654 -0.0001 -0.1602  0.1137
  148SAPE   O3116327   2.767   3.531  10.460 -0.5094  0.2045  0.0140
  148SAPE   C3116328   2.658   3.587  10.412  0.7033  0.0969  0.3484
  148SAPE   O3216329   2.544   3.563  10.451  0.3033  0.4236 -0.6550
  148SAPE   C3216330   2.686   3.684  10.294 -0.3534  0.4510 -0.5083
  148SAPE   H2X16331   2.696   3.626  10.200  0.5920 -0.6478  0.2467
  148SAPE   H2Y16332   2.785   3.729  10.319 -0.5757  0.6926 -0.0486
  148SAPE   C2316333   2.760   3.214  10.143  0.6560 -0.3089  0.5202
  148SAPE   H3R16334   2.833   3.171  10.071  0.1016  0.2785 -0.4189
  148SAPE   H3S16335   2.809   3.303  10.188 -1.1677  0.8350  0.3534
  148SAPE   C2416336   2.631   3.258  10.055  0.2747 -0.6318 -0.3660
  148SAPE   H4R16337   2.541   3.263  10.121  0.4665  0.0054 -0.1462
  148SAPE   H4S16338   2.615   3.182   9.976 -1.6497 -1.0783  0.3840
  148SAPE   C2516339   2.670   3.393  10.001 -0.5721  0.4774  0.2756
  148SAPE   H5R16340   2.690   3.465  10.081 -1.1472 -1.2291  2.0500
  148SAPE   C2616341   2.684   3.430   9.869  0.6887  0.0043  0.3584
  148SAPE   H6R16342   2.700   3.537   9.851  0.3846  0.2019  1.2114
  148SAPE   C2716343   2.642   3.342   9.750 -0.6311 -0.5700 -0.4087
  148SAPE   H7R16344   2.534   3.318   9.749 -1.4128  2.4717 -1.1427
  148SAPE   H7S16345   2.688   3.244   9.773 -0.7168 -0.5548 -0.1745
  148SAPE   C2816346   2.678   3.411   9.621  0.7603 -0.6492  0.4989
  148SAPE   H8R16347   2.593   3.457   9.568  2.0997 -1.2018 -2.3452
  148SAPE   C2916348   2.801   3.428   9.564 -0.7134 -0.7303  0.0577
  148SAPE   H9R16349   2.801   3.500   9.481 -2.9634 -0.4437  0.2339
  148SAPE  C21016350   2.928   3.369   9.620 -0.2911  0.2865  0.4705
  148SAPE  H10R16351   2.931   3.379   9.730  0.5751  0.6239  0.4239
  148SAPE  H10S16352   3.017   3.425   9.585 -0.0152 -0.2433  0.3192
  148SAPE  C21116353   2.950   3.218   9.578 -0.1883 -0.2000 -0.8958
  148SAPE  H11R16354   2.960   3.148   9.662  2.4106  0.6352 -0.4192
  148SAPE  C21216355   2.951   3.170   9.456 -0.3185 -0.1622 -0.5238
  148SAPE  H12R16356   2.963   3.064   9.433  1.8237  0.1587 -1.0661
  148SAPE  C21316357   2.936   3.253   9.332 -0.2533 -0.3456  0.0237
  148SAPE  H13R16358   2.949   3.363   9.343  0.2721 -0.4877  0.9242
  148SAPE  H13S16359   2.835   3.231   9.291 -0.6536 -2.3796  1.9430
  148SAPE  C21416360   3.049   3.194   9.247  0.1637 -0.4027 -0.4096
  148SAPE  H14R16361   3.143   3.247   9.268 -0.6058  0.9627 -0.2658
  148SAPE  C21516362   3.041   3.107   9.148  0.4018 -0.0277 -0.1048
  148SAPE  H15R16363   3.127   3.050   9.109 -1.9966 -2.1018 -2.7567
  148SAPE  C21616364   2.915   3.030   9.103  0.1635  0.7576 -0.1853
  148SAPE  H16R16365   2.826   3.049   9.167 -2.0948  2.0148 -3.4397
  148SAPE  H16S16366   2.932   2.920   9.109 -4.4636 -0.1054  0.7054
  148SAPE  C21716367   2.852   3.075   8.966  0.3086  0.5035 -0.2704
  148SAPE  H17R16368   2.818   3.181   8.966  0.3906  0.5725  1.5859
  148SAPE  H17S16369   2.753   3.024   8.967  0.4751  0.1723 -0.4522
  148SAPE  C21816370   2.934   3.048   8.843 -0.2370 -0.3397  0.3631
  148SAPE  H18R16371   2.976   2.945   8.851 -1.3324 -0.7441  1.3289
  148SAPE  H18S16372   3.026   3.110   8.850 -0.3697 -0.0513 -0.3475
  148SAPE  C21916373   2.862   3.082   8.716 -0.5041 -0.2805 -0.2683
  148SAPE  H19R16374   2.825   3.185   8.737  2.3964  0.1835  3.6046
  148SAPE  H19S16375   2.781   3.008   8.698 -0.3008 -0.6078  0.1762
  148SAPE  C22016376   2.958   3.080   8.597  0.1438  1.1657  0.2161
  148SAPE  H20R16377   2.905   3.090   8.500 -1.1284  0.8890  0.8511
  148SAPE  H20S16378   2.997   2.976   8.592 -1.5209  0.5853 -2.4524
  148SAPE  H20T16379   3.053   3.134   8.611  0.3771  0.4388  1.6614
  148SAPE   C3316380   2.572   3.790  10.282  0.4830 -0.4218 -0.0133
  148SAPE   H3X16381   2.618   3.869  10.219  4.1413 -1.4885  1.0837
  148SAPE   H3Y16382   2.534   3.838  10.374 -0.7512  0.3976 -0.9071
  148SAPE   C3416383   2.454   3.748  10.192 -0.2081 -0.6312  0.1222
  148SAPE   H4X16384   2.391   3.672  10.243 -0.2493 -0.6067  0.1089
  148SAPE   H4Y16385   2.499   3.700  10.103  0.9452 -0.5180  0.6312
  148SAPE   C3516386   2.365   3.863  10.146  0.2526 -0.5748 -0.3640
  148SAPE   H5X16387   2.421   3.945  10.097 -3.0524  2.5997  0.7296
  148SAPE   H5Y16388   2.320   3.909  10.236  0.4949 -1.4389  0.2156
  148SAPE   C3616389   2.265   3.815  10.037 -0.6780  0.1986  0.2407
  148SAPE   H6X16390   2.205   3.734  10.084  0.1716  1.4483  3.8827
  148SAPE   H6Y16391   2.315   3.790   9.941 -0.9514 -1.2922  0.4661
  148SAPE   C3716392   2.169   3.929  10.013  0.2760  0.9222  0.5046
  148SAPE   H7X16393   2.222   4.027  10.008  0.1420  0.9443 -0.9193
  148SAPE   H7Y16394   2.093   3.931  10.094 -0.7681  3.1283 -0.4316
  148SAPE   C3816395   2.089   3.910   9.880  0.1718 -0.3313  0.4365
  148SAPE   H8X16396   1.994   3.967   9.874 -0.4263 -1.4173 -4.0980
  148SAPE   H8Y16397   2.055   3.805   9.871 -0.6829 -0.0089 -0.2448
  148SAPE   C3916398   2.165   3.929   9.752 -0.2302 -0.0910 -0.3117
  148SAPE   H9X16399   2.257   3.868   9.759 -1.4314 -2.0348 -0.6250
  148SAPE   H9Y16400   2.188   4.038   9.745 -0.3238  0.1532  2.2491
  148SAPE  C31016401   2.090   3.885   9.625 -0.0350 -0.9072  0.6232
  148SAPE  H10X16402   2.003   3.950   9.600  0.5857 -0.5520 -0.7334
  148SAPE  H10Y16403   2.053   3.780   9.625  0.9203 -1.3230 -1.8603
  148SAPE  C31116404   2.175   3.901   9.504 -0.0337  0.3050  0.7314
  148SAPE  H11X16405   2.272   3.853   9.530  0.1020  0.3997  0.4141
  148SAPE  H11Y16406   2.187   4.008   9.478 -1.9911  0.7824  1.6150
  148SAPE  C31216407   2.111   3.832   9.385 -0.1388 -0.0119 -0.4527
  148SAPE  H12X16408   2.011   3.878   9.367 -0.2117  0.9826  2.1120
  148SAPE  H12Y16409   2.097   3.722   9.397  1.8792 -0.1653  0.8698
  148SAPE  C31316410   2.193   3.864   9.256 -0.1314 -0.2961  0.5757
  148SAPE  H13X16411   2.151   3.811   9.168  1.6339  0.0029 -0.4919
  148SAPE  H13Y16412   2.295   3.825   9.276  0.4649  0.2167 -1.2236
  148SAPE  C31416413   2.201   4.012   9.219 -0.4396 -0.0929  0.4772
  148SAPE  H14X16414   2.263   4.056   9.300  0.3532  1.2108 -0.7889
  148SAPE  H14Y16415   2.101   4.058   9.235  0.1355  0.9488  1.2068
  148SAPE  C31516416   2.265   4.043   9.089 -0.2895 -0.6359 -0.1777
  148SAPE  H15X16417   2.327   3.956   9.060 -0.6460 -0.8530 -0.3043
  148SAPE  H15Y16418   2.334   4.130   9.090 -1.6205  0.4748  1.4564
  148SAPE  C31616419   2.156   4.068   8.989 -1.1595 -1.0016 -0.3500
  148SAPE  H16X16420   2.089   4.152   9.014  1.4950  0.6938  1.6695
  148SAPE  H16Y16421   2.099   3.973   8.982 -1.5402 -0.8429  0.5197
  148SAPE  C31716422   2.214   4.085   8.844 -0.1540  0.0241  0.5092
  148SAPE  H17X16423   2.285   4.170   8.855 -1.8496  1.4218  1.1418
  148SAPE  H17Y16424   2.132   4.122   8.778 -0.3469  0.7959  1.1648
  148SAPE  C31816425   2.295   3.974   8.785 -0.6846 -0.5810  0.3046
  148SAPE  H18X16426   2.351   4.007   8.694  0.1001 -0.4429  0.8261
  148SAPE  H18Y16427   2.225   3.893   8.756 -0.5253 -1.3058  1.8360
  148SAPE  H18Z16428   2.349   3.926   8.869 -0.7788 -1.3615 -0.0675
  149SAPE     N16429   4.490   4.557  11.415 -0.1171 -0.0999 -0.4114
  149SAPE   HN116430   4.492   4.619  11.499  1.7574 -2.0932  1.1333
  149SAPE   HN216431   4.582   4.542  11.370  1.7889  1.0649  2.7238
  149SAPE   HN316432   4.414   4.589  11.352 -1.3751  0.8770  1.4818
  149SAPE   C1216433   4.416   4.431  11.453 -0.2782  0.0961 -0.1043
  149SAPE  H12A16434   4.354   4.458  11.542  0.9798 -0.8977  1.1250
  149SAPE  H12B16435   4.494   4.359  11.488 -1.5238 -1.4259 -0.3219
  149SAPE   C1116436   4.342   4.379  11.330  0.1088 -0.5126  0.0489
  149SAPE  H11A16437   4.264   4.313  11.372  1.6426 -0.8184  2.6590
  149SAPE  H11B16438   4.412   4.319  11.268 -0.1867  1.1050 -1.9716
  149SAPE     P16439   4.176   4.465  11.152  0.1068  0.2380  0.4567
  149SAPE   O1316440   4.085   4.362  11.217 -0.1888 -0.4014  0.1961
  149SAPE   O1416441   4.121   4.600  11.124  0.2464 -0.0888  0.1460
  149SAPE   O1216442   4.293   4.491  11.246  0.3144  0.0115 -0.2879
  149SAPE   O1116443   4.238   4.400  11.024 -0.1093  1.0013  0.7090
  149SAPE    C116444   4.368   4.453  10.978 -0.0052 -0.4674  0.2649
  149SAPE    HA16445   4.384   4.561  11.002 -1.2020 -0.5041  1.3067
  149SAPE    HB16446   4.449   4.399  11.031 -0.7141 -1.3780  0.4322
  149SAPE    C216447   4.403   4.416  10.831 -0.0159  0.3769  0.1392
  149SAPE    HS16448   4.513   4.411  10.814  0.0997  2.6203 -0.0256
  149SAPE   O2116449   4.351   4.512  10.747  0.5739  0.0186 -0.2910
  149SAPE   C2116450   4.428   4.611  10.712 -0.6393  0.0265  0.2163
  149SAPE   O2216451   4.546   4.620  10.740 -0.1192 -0.4560  0.3254
  149SAPE   C2216452   4.359   4.701  10.600 -0.1027 -0.1886 -0.5462
  149SAPE   H2R16453   4.316   4.626  10.530  0.3395 -0.0810 -0.9378
  149SAPE   H2S16454   4.284   4.765  10.651  1.2310  0.9428  0.0666
  149SAPE    C316455   4.356   4.275  10.792  0.1765  0.2973 -0.4590
  149SAPE    HX16456   4.249   4.267  10.822  1.1570 -1.7308  3.1191
  149SAPE    HY16457   4.399   4.210  10.872 -1.6686 -1.2247 -0.6444
  149SAPE   O3116458   4.381   4.245  10.653  0.0663 -0.2594 -0.1513
  149SAPE   C3116459   4.500   4.191  10.620  0.6828  0.0267  0.0913
  149SAPE   O3216460   4.591   4.163  10.695  0.1272  0.5408 -0.5233
  149SAPE   C3216461   4.500   4.158  10.465  0.1308 -0.2403  0.0507
  149SAPE   H2X16462   4.493   4.049  10.447 -0.5573 -0.3217  0.7615
  149SAPE   H2Y16463   4.596   4.194  10.421 -1.0471  0.6473 -1.9318
  149SAPE   C2316464   4.461   4.790  10.528  0.1325 -0.1119  1.2902
  149SAPE   H3R16465   4.516   4.854  10.600  0.2481  0.9286  0.3215
  149SAPE   H3S16466   4.405   4.853  10.455  1.0747 -1.5461 -0.7409
  149SAPE   C2416467   4.560   4.697  10.444  0.3935  0.1059  0.3779
  149SAPE   H4R16468   4.493   4.640  10.377  1.2333 -1.1632  0.5866
  149SAPE   H4S16469   4.603   4.613  10.502 -1.2597 -0.5639  0.7042
  149SAPE   C2516470   4.668   4.785  10.385  0.4234  0.2763  0.3083
  149SAPE   H5R16471   4.747   4.803  10.459  0.4769  0.2189  0.2661
  149SAPE   C2616472   4.678   4.831  10.257 -0.2890 -0.2198 -0.1605
  149SAPE   H6R16473   4.778   4.875  10.244  0.2274 -1.0866  0.7838
  149SAPE   C2716474   4.584   4.815  10.141  0.1301  0.4244 -0.3629
  149SAPE   H7R16475   4.509   4.736  10.157  0.5448 -0.1067 -0.9899
  149SAPE   H7S16476   4.649   4.779  10.058  1.7608  0.4557  0.8539
  149SAPE   C2816477   4.502   4.936  10.114  0.0983  0.7189  0.2807
  149SAPE   H8R16478   4.439   4.944  10.204  0.0082 -3.9491  0.8707
  149SAPE   C2916479   4.513   5.030  10.016 -0.0420  0.2291  0.6285
  149SAPE   H9R16480   4.445   5.116  10.012  0.0717  0.2860 -0.2097
  149SAPE  C21016481   4.614   5.018   9.903 -0.3847 -0.0370  0.6011
  149SAPE  H10R16482   4.708   4.978   9.946 -0.1841 -0.8769 -0.5638
  149SAPE  H10S16483   4.623   5.116   9.851 -2.6840  0.1229  0.4259
  149SAPE  C21116484   4.572   4.917   9.800  0.6706 -0.2208  0.5834
  149SAPE  H11R16485   4.536   4.828   9.856  1.1625 -0.7387  0.0794
  149SAPE  C21216486   4.566   4.933   9.664  0.0997 -0.6305 -0.3688
  149SAPE  H12R16487   4.522   4.845   9.615 -1.8711 -0.1845  0.5172
  149SAPE  C21316488   4.610   5.045   9.579 -0.4463 -0.6865 -0.1588
  149SAPE  H13R16489   4.657   5.129   9.634 -1.4764  0.6995 -1.2985
  149SAPE  H13S16490   4.522   5.090   9.529 -1.3959  0.9991  2.8243
  149SAPE  C21416491   4.706   5.003   9.476  0.3997  0.1893 -0.0286
  149SAPE  H14R16492   4.808   4.992   9.516  0.6093  1.2118 -0.2531
  149SAPE  C21516493   4.673   4.960   9.350  0.8836  0.5126 -0.7449
  149SAPE  H15R16494   4.749   4.918   9.283  0.1976 -1.1878 -0.5228
  149SAPE  C21616495   4.534   4.946   9.293  0.4172 -0.7382 -0.3553
  149SAPE  H16R16496   4.470   5.027   9.332 -1.1149 -1.7947 -0.5698
  149SAPE  H16S16497   4.475   4.864   9.338  3.6541 -1.6970  2.5432
  149SAPE  C21716498   4.524   4.953   9.138  0.1325  0.2709  0.2322
  149SAPE  H17R16499   4.529   5.060   9.108  0.3152  0.5586  1.2473
  149SAPE  H17S16500   4.421   4.923   9.106  0.3791 -1.0850  0.6407
  149SAPE  C21816501   4.629   4.878   9.069  0.5428  0.2649 -0.4578
  149SAPE  H18R16502   4.643   4.786   9.128 -1.9006  0.4545  0.5728
  149SAPE  H18S16503   4.722   4.938   9.069  1.3265 -0.9025  1.0487
  149SAPE  C21916504   4.604   4.851   8.914  0.1922  0.0635 -0.4437
  149SAPE  H19R16505   4.497   4.821   8.906  0.3085 -0.6931  0.5782
  149SAPE  H19S16506   4.662   4.759   8.890 -0.5794 -0.4382 -0.4346
  149SAPE  C22016507   4.632   4.982   8.839 -0.3208  0.2053  0.4300
  149SAPE  H20R16508   4.620   4.970   8.729  0.6945  0.3883  0.2847
  149SAPE  H20S16509   4.740   5.006   8.852  0.0290 -0.6136 -0.7616
  149SAPE  H20T16510   4.563   5.064   8.870 -0.2523  0.1795  0.6518
  149SAPE   C3316511   4.390   4.225  10.384  0.7654  0.2965 -0.5175
  149SAPE   H3X16512   4.368   4.329  10.416 -0.6384 -0.7328  2.1898
  149SAPE   H3Y16513   4.305   4.157  10.407  0.4015  1.1443  0.7086
  149SAPE   C3416514   4.421   4.225  10.232 -0.3461 -0.1329 -0.2565
  149SAPE   H4X16515   4.328   4.238  10.173 -0.2367 -0.8985 -0.5945
  149SAPE   H4Y16516   4.460   4.127  10.199 -2.3892 -1.6075  1.4007
  149SAPE   C3516517   4.518   4.338  10.183  0.6378  0.0155  0.0546
  149SAPE   H5X16518   4.614   4.325  10.237  0.3018  2.5707  1.4398
  149SAPE   H5Y16519   4.470   4.433  10.215 -1.7073 -1.3920  0.9522
  149SAPE   C3616520   4.544   4.341  10.036  0.2550  0.0646  0.4640
  149SAPE   H6X16521   4.599   4.246  10.015 -1.1997 -0.5577 -0.7133
  149SAPE   H6Y16522   4.620   4.419  10.013  1.0152 -0.8698 -0.2618
  149SAPE   C3716523   4.422   4.361   9.939  0.1868  0.3646 -0.3467
  149SAPE   H7X16524   4.361   4.451   9.958 -0.2848 -0.0097 -0.0610
  149SAPE   H7Y16525   4.348   4.278   9.947 -0.9126  1.4119  0.8628
  149SAPE   C3816526   4.462   4.385   9.794 -0.2540  0.2976  0.2011
  149SAPE   H8X16527   4.539   4.464   9.803  0.1293 -0.2635  2.9616
  149SAPE   H8Y16528   4.371   4.407   9.735 -0.9537 -1.4330  0.5747
  149SAPE   C3916529   4.530   4.260   9.740  0.5764  0.4132  0.5706
  149SAPE   H9X16530   4.453   4.183   9.765  0.5249  1.2149  3.1792
  149SAPE   H9Y16531   4.632   4.244   9.782  1.2433 -0.8959 -1.4376
  149SAPE  C31016532   4.529   4.261   9.585 -0.0700  0.0247 -0.8711
  149SAPE  H10X16533   4.593   4.343   9.546 -0.0383  1.0555  1.2401
  149SAPE  H10Y16534   4.426   4.286   9.552 -0.6537  0.5543  1.2579
  149SAPE  C31116535   4.601   4.147   9.518 -0.0897 -0.0722  0.0261
  149SAPE  H11X16536   4.538   4.056   9.527 -1.5221  0.9512  0.6767
  149SAPE  H11Y16537   4.701   4.123   9.561 -0.7761 -0.8507  1.2302
  149SAPE  C31216538   4.636   4.167   9.370 -0.3026  0.9961  0.2712
  149SAPE  H12X16539   4.698   4.082   9.334  0.9250  1.4488  1.2349
  149SAPE  H12Y16540   4.701   4.257   9.361 -2.3481  2.6867  1.6494
  149SAPE  C31316541   4.513   4.166   9.281  0.5042 -0.5670 -0.1759
  149SAPE  H13X16542   4.445   4.247   9.314  2.6859  0.6658  1.6737
  149SAPE  H13Y16543   4.471   4.065   9.301  0.3578 -0.2004  1.5248
  149SAPE  C31416544   4.534   4.174   9.126 -0.3096 -0.5152  0.3974
  149SAPE  H14X16545   4.594   4.267   9.115 -1.6192  0.1532 -1.5444
  149SAPE  H14Y16546   4.441   4.175   9.066  0.8597  1.2897 -1.5395
  149SAPE  C31516547   4.607   4.053   9.056 -0.7762  0.6167  0.2256
  149SAPE  H15X16548   4.534   3.971   9.072 -1.6125  1.4713  0.9191
  149SAPE  H15Y16549   4.694   4.030   9.121 -1.7592  1.2032  1.8334
  149SAPE  C31616550   4.649   4.077   8.906  0.0325 -0.6015 -0.6534
  149SAPE  H16X16551   4.715   4.166   8.914 -0.2084 -0.5913  1.9317
  149SAPE  H16Y16552   4.565   4.119   8.847  0.5561  1.4221 -0.0703
  149SAPE  C31716553   4.711   3.953   8.845 -0.5285  0.5136  0.3584
  149SAPE  H17X16554   4.626   3.882   8.845 -0.0258 -0.1090 -0.0375
  149SAPE  H17Y16555   4.801   3.924   8.904  0.2102  1.4475 -0.2809
  149SAPE  C31816556   4.755   3.966   8.694  0.9167 -0.1593 -0.0792
  149SAPE  H18X16557   4.674   4.019   8.640  2.0834  0.6150 -1.1429
  149SAPE  H18Y16558   4.781   3.863   8.661  0.6411  0.6725 -3.2382
  149SAPE  H18Z16559   4.839   4.038   8.692  0.5475  0.2965  0.5211
  150SAPE     N16560   6.709   3.997  10.945 -0.2609  0.5018 -0.1151
  150SAPE   HN116561   6.770   4.058  11.003  1.4469  0.3369 -1.6690
  150SAPE   HN216562   6.616   4.045  10.946  0.2796  1.5834 -0.2673
  150SAPE   HN316563   6.701   3.909  10.999 -0.2532  0.0687 -0.8078
  150SAPE   C1216564   6.757   3.965  10.806 -0.5163 -0.5497 -0.1497
  150SAPE  H12A16565   6.803   3.864  10.803  1.5385  0.3227  0.0533
  150SAPE  H12B16566   6.848   4.026  10.787  1.4088 -2.7817  1.3762
  150SAPE   C1116567   6.639   3.991  10.712 -0.5540  0.2494  0.2568
  150SAPE  H11A16568   6.678   3.977  10.609  0.1311 -1.9315  0.7696
  150SAPE  H11B16569   6.608   4.098  10.711  1.6186  0.9231 -1.1660
  150SAPE     P16570   6.397   3.931  10.793 -0.0455  0.4448 -0.3349
  150SAPE   O1316571   6.313   3.812  10.830  0.1361  0.0354  0.1933
  150SAPE   O1416572   6.436   4.025  10.905  0.7533 -0.0375  0.5979
  150SAPE   O1216573   6.538   3.895  10.733  0.6144 -0.5548 -0.4603
  150SAPE   O1116574   6.337   4.004  10.677 -0.6816  0.2197 -0.0137
  150SAPE    C116575   6.257   3.934  10.579 -0.3814 -0.3843  0.6451
  150SAPE    HA16576   6.252   3.824  10.595  0.8515 -0.5002  0.3182
  150SAPE    HB16577   6.149   3.958  10.591 -0.0933  0.7633  1.0633
  150SAPE    C216578   6.286   3.963  10.425 -0.1028  0.1929 -1.3149
  150SAPE    HS16579   6.217   3.893  10.372 -0.3701 -0.0264 -0.6861
  150SAPE   O2116580   6.428   3.934  10.392  0.7826 -0.7591  0.5893
  150SAPE   C2116581   6.455   3.808  10.394  0.7857  0.3230  0.4071
  150SAPE   O2216582   6.378   3.714  10.403  0.0935 -0.1613 -0.5241
  150SAPE   C2216583   6.595   3.779  10.353 -0.0338  0.4052 -0.7173
  150SAPE   H2R16584   6.610   3.782  10.243 -0.5702  1.2354 -0.7792
  150SAPE   H2S16585   6.657   3.857  10.400 -0.5577  0.3900  0.0183
  150SAPE    C316586   6.254   4.110  10.385  0.5204  0.2798 -0.2083
  150SAPE    HX16587   6.313   4.185  10.442 -2.4372  3.9284 -1.5516
  150SAPE    HY16588   6.145   4.126  10.397  0.6985  0.2396  1.8408
  150SAPE   O3116589   6.277   4.131  10.246  0.4010  0.1147  0.1549
  150SAPE   C3116590   6.400   4.171  10.211  0.6480  1.3928 -0.6521
  150SAPE   O3216591   6.488   4.218  10.278 -0.3811 -0.4925  0.1340
  150SAPE   C3216592   6.412   4.168  10.058 -0.0401  0.7021  0.3163
  150SAPE   H2X16593   6.358   4.079  10.020 -1.1116  2.5847 -3.0797
  150SAPE   H2Y16594   6.518   4.171  10.024 -0.3953 -0.1572 -0.9304
  150SAPE   C2316595   6.632   3.636  10.409 -0.1569  0.1519  0.0743
  150SAPE   H3R16596   6.567   3.554  10.371  0.8949 -0.8333  0.3719
  150SAPE   H3S16597   6.613   3.633  10.518  0.1220  0.1162  0.1217
  150SAPE   C2416598   6.773   3.611  10.348  0.6935  0.0083  0.7501
  150SAPE   H4R16599   6.766   3.616  10.237  3.5221  1.6698  0.5443
  150SAPE   H4S16600   6.807   3.512  10.385  1.3364 -0.1798 -0.3011
  150SAPE   C2516601   6.872   3.719  10.393 -0.1176  0.2482  1.1306
  150SAPE   H5R16602   6.838   3.756  10.491  0.1568 -0.3944  1.4719
  150SAPE   C2616603   6.975   3.776  10.325  0.0306 -0.5793 -0.7125
  150SAPE   H6R16604   7.021   3.860  10.378 -0.9329  0.1813 -1.0530
  150SAPE   C2716605   7.028   3.737  10.187 -0.1470  0.4133  0.1367
  150SAPE   H7R16606   6.957   3.668  10.135  2.0683 -0.3295 -2.1016
  150SAPE   H7S16607   7.123   3.680  10.197 -1.9648 -2.9811 -0.2997
  150SAPE   C2816608   7.043   3.848  10.085  0.5996 -0.1022 -0.3269
  150SAPE   H8R16609   7.135   3.906  10.104  0.1258  0.4790  0.2532
  150SAPE   C2916610   6.959   3.904   9.998  0.5636  0.5310  0.5643
  150SAPE   H9R16611   7.000   3.980   9.930 -1.3441  1.1435  0.0507
  150SAPE  C21016612   6.813   3.874   9.964 -0.5194 -0.9959  0.0034
  150SAPE  H10R16613   6.772   3.961   9.909 -0.9558  0.0108  1.8175
  150SAPE  H10S16614   6.757   3.857  10.059 -0.3552  0.7650  0.4585
  150SAPE  C21116615   6.796   3.756   9.878  0.3501 -0.5642 -0.8310
  150SAPE  H11R16616   6.749   3.667   9.922  1.0740 -1.5515 -1.9792
  150SAPE  C21216617   6.813   3.751   9.745  0.1489  0.1251 -0.4089
  150SAPE  H12R16618   6.775   3.665   9.687 -2.2950  0.5333  0.4914
  150SAPE  C21316619   6.853   3.867   9.660  0.7429  0.7367 -0.0120
  150SAPE  H13R16620   6.931   3.832   9.589 -0.6974  0.8675 -1.7208
  150SAPE  H13S16621   6.909   3.941   9.721  0.2356  0.5619  0.6764
  150SAPE  C21416622   6.733   3.932   9.595  0.0403 -0.3442  0.2058
  150SAPE  H14R16623   6.703   4.023   9.649  1.6968 -0.6120  1.6451
  150SAPE  C21516624   6.656   3.885   9.492  0.6002 -0.1655 -0.1178
  150SAPE  H15R16625   6.574   3.949   9.459  1.6407  1.0285 -0.4672
  150SAPE  C21616626   6.706   3.764   9.409 -0.2341 -0.1346  0.3640
  150SAPE  H16R16627   6.640   3.675   9.417 -1.1950  0.4402 -0.8579
  150SAPE  H16S16628   6.811   3.741   9.436  1.1176  2.0414 -2.5138
  150SAPE  C21716629   6.724   3.798   9.261  0.1684 -0.1642  0.5202
  150SAPE  H17R16630   6.792   3.884   9.244  0.7661 -0.2594  2.1837
  150SAPE  H17S16631   6.625   3.829   9.221 -0.1467 -1.1583  0.4911
  150SAPE  C21816632   6.768   3.674   9.180  0.3857  0.1493  0.8327
  150SAPE  H18R16633   6.691   3.594   9.193  0.1654 -0.0106 -1.1598
  150SAPE  H18S16634   6.861   3.642   9.231  1.1114  2.3800  0.9981
  150SAPE  C21916635   6.779   3.704   9.029 -0.2031 -0.4846 -0.2824
  150SAPE  H19R16636   6.862   3.769   8.994 -1.6558  1.1103 -0.8808
  150SAPE  H19S16637   6.692   3.759   8.988 -0.1694  0.7495  1.2082
  150SAPE  C22016638   6.794   3.577   8.950  0.0332  0.1231 -0.6509
  150SAPE  H20R16639   6.836   3.505   9.024 -1.4076  0.9262  1.0251
  150SAPE  H20S16640   6.859   3.575   8.859  0.1348 -0.2637 -0.5743
  150SAPE  H20T16641   6.694   3.539   8.923 -0.9846  0.1635  2.5995
  150SAPE   C3316642   6.356   4.298   9.993 -0.3446 -0.7406 -0.7669
  150SAPE   H3X16643   6.412   4.393  10.010 -3.9129  1.4718 -0.4682
  150SAPE   H3Y16644   6.248   4.317  10.007 -0.4830 -0.4656 -2.0460
  150SAPE   C3416645   6.360   4.300   9.840  0.1383 -0.0257 -0.2749
  150SAPE   H4X16646   6.308   4.209   9.803 -0.9478 -0.2420  1.6368
  150SAPE   H4Y16647   6.464   4.273   9.812  0.3967 -0.8195  1.3480
  150SAPE   C3516648   6.316   4.425   9.766  0.2040 -0.8834 -0.0490
  150SAPE   H5X16649   6.209   4.430   9.796 -0.1580  0.3918 -1.4239
  150SAPE   H5Y16650   6.326   4.388   9.662 -2.0318  0.1604 -0.6973
  150SAPE   C3616651   6.392   4.554   9.802 -0.4495  0.2489  0.3398
  150SAPE   H6X16652   6.500   4.528   9.794 -0.0599  2.0538 -0.7338
  150SAPE   H6Y16653   6.367   4.589   9.904 -0.4961 -0.5233  0.6010
  150SAPE   C3716654   6.350   4.672   9.715  0.4190 -0.4477 -0.0791
  150SAPE   H7X16655   6.396   4.765   9.755  0.8302 -0.2485 -0.9933
  150SAPE   H7Y16656   6.239   4.670   9.719  0.2853  2.7900  0.2538
  150SAPE   C3816657   6.400   4.656   9.568 -0.6256  0.9616  0.1141
  150SAPE   H8X16658   6.356   4.560   9.534 -2.2535  1.2423  1.2927
  150SAPE   H8Y16659   6.511   4.653   9.565 -0.6265  0.7194  0.2889
  150SAPE   C3916660   6.346   4.761   9.475  0.3262 -0.2594  0.9734
  150SAPE   H9X16661   6.418   4.846   9.479 -1.6731  1.6145 -0.4588
  150SAPE   H9Y16662   6.249   4.801   9.512  0.1948  1.4823 -1.0597
  150SAPE  C31016663   6.309   4.722   9.328 -0.5012 -0.1211  0.4286
  150SAPE  H10X16664   6.392   4.664   9.281 -1.1849 -1.3380  0.6812
  150SAPE  H10Y16665   6.309   4.819   9.273 -0.6815  0.0349  0.7007
  150SAPE  C31116666   6.170   4.657   9.296 -0.6712  0.7043  0.0936
  150SAPE  H11X16667   6.101   4.744   9.303 -0.9011  0.4339  1.4846
  150SAPE  H11Y16668   6.162   4.581   9.377 -2.2316  1.4784  0.7053
  150SAPE  C31216669   6.139   4.594   9.164 -0.3248  0.2940 -0.2168
  150SAPE  H12X16670   6.206   4.507   9.146 -1.3606 -0.6840  0.5555
  150SAPE  H12Y16671   6.148   4.680   9.094 -1.2290 -0.4753 -1.3234
  150SAPE  C31316672   5.991   4.535   9.161  0.1193 -0.7987 -0.3240
  150SAPE  H13X16673   5.922   4.620   9.177  0.8636 -0.2182 -0.1268
  150SAPE  H13Y16674   5.977   4.460   9.242 -0.5597 -0.7278 -0.3735
  150SAPE  C31416675   5.977   4.480   9.020  0.2259 -0.1110  0.0975
  150SAPE  H14X16676   5.900   4.400   9.022  1.4247 -1.2759  1.8593
  150SAPE  H14Y16677   6.074   4.429   9.002 -0.0026 -0.5127 -0.0080
  150SAPE  C31516678   5.930   4.583   8.907  0.2848 -0.3885 -0.7810
  150SAPE  H15X16679   5.985   4.680   8.901  0.2238 -0.3242 -0.3371
  150SAPE  H15Y16680   5.826   4.611   8.935  1.0793  1.4670  0.5582
  150SAPE  C31616681   5.915   4.530   8.760 -1.0953 -0.0890  0.6475
  150SAPE  H16X16682   5.842   4.446   8.761  0.4303 -1.5048 -0.6482
  150SAPE  H16Y16683   6.011   4.483   8.729 -1.9044 -1.9782  0.9069
  150SAPE  C31716684   5.877   4.644   8.658  0.4507 -0.0127 -0.2232
  150SAPE  H17X16685   5.882   4.611   8.552  0.9298 -2.3832  0.4898
  150SAPE  H17Y16686   5.953   4.725   8.663  1.4203 -0.9865  2.7931
  150SAPE  C31816687   5.733   4.701   8.679 -0.5912 -0.3799 -0.3490
  150SAPE  H18X16688   5.705   4.774   8.600 -0.6394 -1.8386 -1.7344
  150SAPE  H18Y16689   5.710   4.745   8.778 -1.8407 -0.5581 -0.5405
  150SAPE  H18Z16690   5.658   4.620   8.672 -1.3650  0.3313 -0.4221
  151SAPE     N16691   4.525   1.476  10.825 -0.0657 -0.3769 -0.3283
  151SAPE   HN116692   4.546   1.463  10.926 -1.0143  0.3272 -0.0247
  151SAPE   HN216693   4.452   1.548  10.808  1.6388  1.0449 -2.2143
  151SAPE   HN316694   4.488   1.386  10.787 -1.5819 -0.1711  0.5789
  151SAPE   C1216695   4.639   1.515  10.744 -0.2668  0.5995 -0.0961
  151SAPE  H12A16696   4.687   1.608  10.780 -1.6094  1.5202 -0.5890
  151SAPE  H12B16697   4.605   1.521  10.638 -0.5644 -1.1090 -0.1293
  151SAPE   C1116698   4.749   1.407  10.746  0.4297  0.5629  0.2571
  151SAPE  H11A16699   4.769   1.397  10.855  0.1538  1.1829  0.3663
  151SAPE  H11B16700   4.847   1.442  10.707 -0.1775  1.5269 -0.4689
  151SAPE     P16701   4.726   1.227  10.552  0.4425 -0.2388 -0.1292
  151SAPE   O1316702   4.866   1.218  10.513 -0.3297  0.3434  0.0250
  151SAPE   O1416703   4.639   1.109  10.543  0.2329  0.5718  0.1469
  151SAPE   O1216704   4.712   1.277  10.706  0.5180  0.3040 -0.1747
  151SAPE   O1116705   4.656   1.347  10.477 -0.8230  0.4727 -0.2496
  151SAPE    C116706   4.521   1.349  10.434 -0.2734  0.1970 -0.2857
  151SAPE    HA16707   4.462   1.287  10.505 -0.8958  1.9368  0.7844
  151SAPE    HB16708   4.482   1.449  10.461  1.5275  0.2251  2.6449
  151SAPE    C216709   4.512   1.320  10.280 -0.0056 -0.0343 -0.0037
  151SAPE    HS16710   4.410   1.339  10.240  0.3783 -0.5562 -1.3209
  151SAPE   O2116711   4.557   1.193  10.235  0.3205 -0.2968  0.4209
  151SAPE   C2116712   4.481   1.099  10.265 -0.3064  0.7672 -0.3720
  151SAPE   O2216713   4.374   1.111  10.322  0.4044 -0.4950 -0.2579
  151SAPE   C2216714   4.538   0.957  10.232  0.6177 -0.6823  0.4578
  151SAPE   H2R16715   4.636   0.945  10.285 -0.2119 -0.0195  2.2118
  151SAPE   H2S16716   4.470   0.876  10.267 -1.6029  0.1505 -1.6735
  151SAPE    C316717   4.610   1.426  10.203  0.1710  0.0652 -0.0852
  151SAPE    HX16718   4.715   1.398  10.228 -0.2490 -2.0406 -0.5537
  151SAPE    HY16719   4.582   1.526  10.243 -1.4834 -0.4358  0.0841
  151SAPE   O3116720   4.589   1.415  10.064 -0.2159  0.4156  0.0776
  151SAPE   C3116721   4.662   1.513   9.995  0.5826  0.2687  0.5151
  151SAPE   O3216722   4.746   1.580  10.043  0.2678 -0.2285  0.2347
  151SAPE   C3216723   4.614   1.504   9.845  0.2282 -0.3449 -0.9545
  151SAPE   H2X16724   4.647   1.596   9.792  2.0777 -1.0781 -1.1633
  151SAPE   H2Y16725   4.503   1.503   9.850  0.2920 -0.5798  0.9345
  151SAPE   C2316726   4.561   0.936  10.078 -0.4802  0.2728 -0.5946
  151SAPE   H3R16727   4.625   0.847  10.063 -1.9222 -0.5997 -1.9889
  151SAPE   H3S16728   4.628   1.015  10.039  0.3826 -1.0391 -1.8873
  151SAPE   C2416729   4.432   0.924   9.999  0.0099  0.2880 -0.3038
  151SAPE   H4R16730   4.363   1.010  10.008 -1.1056 -0.6271  0.0416
  151SAPE   H4S16731   4.377   0.833  10.031  2.0417 -0.0127  2.7617
  151SAPE   C2516732   4.467   0.915   9.848  0.3700  0.0856 -0.1998
  151SAPE   H5R16733   4.511   0.820   9.815  0.5220  0.7821 -2.0813
  151SAPE   C2616734   4.431   0.996   9.742 -0.1800 -1.1811 -0.0893
  151SAPE   H6R16735   4.459   0.964   9.641  0.6889 -1.6229  0.2753
  151SAPE   C2716736   4.342   1.125   9.755 -0.8344  0.2172  0.1560
  151SAPE   H7R16737   4.380   1.187   9.672 -0.2691 -0.4532 -0.0954
  151SAPE   H7S16738   4.364   1.186   9.845  1.1799  1.5030 -1.1437
  151SAPE   C2816739   4.199   1.083   9.742 -0.0838 -0.7896  0.9128
  151SAPE   H8R16740   4.140   1.091   9.834 -1.6188 -2.4567  0.1404
  151SAPE   C2916741   4.136   1.039   9.634  0.1866  0.3561 -0.2240
  151SAPE   H9R16742   4.028   1.015   9.640  0.2714 -0.1383 -0.5948
  151SAPE  C21016743   4.190   1.019   9.494  0.4974  0.1755 -0.4312
  151SAPE  H10R16744   4.148   0.933   9.437  1.8304  0.1065 -1.3565
  151SAPE  H10S16745   4.298   0.993   9.495  0.0512 -1.8553 -0.5750
  151SAPE  C21116746   4.180   1.142   9.405 -0.2770 -0.5509  0.6129
  151SAPE  H11R16747   4.162   1.233   9.464  1.3536 -1.1335  2.1066
  151SAPE  C21216748   4.180   1.143   9.271  1.1307 -0.2209  0.1333
  151SAPE  H12R16749   4.175   1.236   9.213  2.1464  0.1917  0.6810
  151SAPE  C21316750   4.198   1.028   9.179 -0.2665  0.2247  0.4986
  151SAPE  H13R16751   4.106   0.971   9.155  0.9468 -1.7191  0.2827
  151SAPE  H13S16752   4.262   0.950   9.226 -0.2872 -0.2342 -0.2209
  151SAPE  C21416753   4.247   1.069   9.041  0.0969 -0.0588  0.0226
  151SAPE  H14R16754   4.187   1.149   8.994 -0.0806  0.0012  0.3481
  151SAPE  C21516755   4.338   1.002   8.968  0.9529  0.7770  0.1959
  151SAPE  H15R16756   4.367   1.045   8.870 -0.2459 -0.1327 -0.5757
  151SAPE  C21616757   4.409   0.873   9.000 -0.3971  0.0765  0.4720
  151SAPE  H16R16758   4.402   0.805   8.913 -0.2634  2.4588 -1.5095
  151SAPE  H16S16759   4.361   0.811   9.079 -1.6624 -0.2703 -0.5397
  151SAPE  C21716760   4.563   0.895   9.043  1.1965  0.2907 -0.0678
  151SAPE  H17R16761   4.602   0.964   8.966 -1.4111  1.5571 -0.3653
  151SAPE  H17S16762   4.613   0.796   9.030 -0.8557 -1.1091  1.8223
  151SAPE  C21816763   4.578   0.950   9.184  0.7646 -0.0070  0.0468
  151SAPE  H18R16764   4.517   1.042   9.193  1.0300  0.2526 -0.7456
  151SAPE  H18S16765   4.685   0.973   9.206  0.4533 -0.8299  2.7563
  151SAPE  C21916766   4.542   0.838   9.285  0.1209 -0.5622  0.3912
  151SAPE  H19R16767   4.583   0.739   9.255  0.5092 -0.4549  0.5663
  151SAPE  H19S16768   4.431   0.839   9.286  0.0704  1.2546 -0.9331
  151SAPE  C22016769   4.585   0.875   9.424  0.1682 -0.0468 -0.0123
  151SAPE  H20R16770   4.556   0.792   9.492  1.2970 -0.6535 -0.2459
  151SAPE  H20S16771   4.537   0.970   9.455  0.2012  0.0724 -0.3173
  151SAPE  H20T16772   4.696   0.882   9.427  0.2865 -1.2266 -0.9152
  151SAPE   C3316773   4.666   1.381   9.774  0.3019 -0.0591  0.1308
  151SAPE   H3X16774   4.631   1.294   9.833 -0.0913  0.5811  0.8542
  151SAPE   H3Y16775   4.777   1.375   9.767  0.4853  0.8778  1.6817
  151SAPE   C3416776   4.619   1.376   9.627  0.0718  0.1380 -0.6454
  151SAPE   H4X16777   4.644   1.470   9.575 -0.1584 -0.4224 -1.8030
  151SAPE   H4Y16778   4.508   1.371   9.635  0.1782 -0.2713  1.0748
  151SAPE   C3516779   4.680   1.260   9.545 -0.0661 -0.4267 -0.1539
  151SAPE   H5X16780   4.662   1.164   9.596 -1.7591 -0.2986 -0.4407
  151SAPE   H5Y16781   4.790   1.272   9.537 -0.2837  2.0790 -0.4481
  151SAPE   C3616782   4.621   1.251   9.402  0.0850 -0.6126 -0.6481
  151SAPE   H6X16783   4.517   1.213   9.413  0.7175 -1.9183  1.3966
  151SAPE   H6Y16784   4.674   1.170   9.347 -0.7838 -2.1141  0.6280
  151SAPE   C3716785   4.603   1.383   9.319  0.5173  0.3654 -0.2920
  151SAPE   H7X16786   4.701   1.432   9.299  0.5082  1.0811  1.2508
  151SAPE   H7Y16787   4.547   1.466   9.367 -0.3930 -0.2033 -0.3333
  151SAPE   C3816788   4.526   1.352   9.188 -0.7706 -0.5910  0.3186
  151SAPE   H8X16789   4.425   1.313   9.214 -0.4241 -1.8964 -0.2280
  151SAPE   H8Y16790   4.584   1.268   9.145 -0.0959  0.1884 -0.3374
  151SAPE   C3916791   4.509   1.473   9.085 -0.0894 -0.2771 -1.2482
  151SAPE   H9X16792   4.605   1.519   9.051 -1.3007  2.7643 -0.8943
  151SAPE   H9Y16793   4.447   1.544   9.143 -1.6840 -0.9285 -2.1161
  151SAPE  C31016794   4.434   1.424   8.961  0.1403 -0.2383  0.4652
  151SAPE  H10X16795   4.336   1.382   8.994 -0.5178  1.4130  0.6948
  151SAPE  H10Y16796   4.497   1.352   8.904  1.0834  0.8221  0.1397
  151SAPE  C31116797   4.403   1.543   8.869  0.4261 -0.6750 -0.3526
  151SAPE  H11X16798   4.474   1.628   8.871  1.3902 -1.4338 -1.1069
  151SAPE  H11Y16799   4.304   1.584   8.898  0.6655 -1.1337  1.2091
  151SAPE  C31216800   4.388   1.495   8.721 -0.4328 -0.3733  0.0728
  151SAPE  H12X16801   4.297   1.433   8.703  1.6186 -3.2020 -1.2871
  151SAPE  H12Y16802   4.477   1.438   8.688 -0.5875  0.9763 -3.0600
  151SAPE  C31316803   4.392   1.612   8.612  0.5551  0.4912 -0.4730
  151SAPE  H13X16804   4.499   1.637   8.596  0.6350 -0.2001 -1.0681
  151SAPE  H13Y16805   4.337   1.697   8.659 -0.9774 -0.7402  0.0511
  151SAPE  C31416806   4.338   1.578   8.476 -0.1672 -0.2193 -0.3125
  151SAPE  H14X16807   4.328   1.679   8.430 -0.7990 -0.2645 -0.2845
  151SAPE  H14Y16808   4.237   1.533   8.488 -0.4794  0.7506  0.9264
  151SAPE  C31516809   4.431   1.501   8.388  0.4357  0.2647 -0.1470
  151SAPE  H15X16810   4.383   1.467   8.294 -0.4182  1.1323 -0.0432
  151SAPE  H15Y16811   4.454   1.406   8.439 -0.8564  0.8269  1.5732
  151SAPE  C31616812   4.573   1.559   8.362  0.1552 -0.2688  0.1319
  151SAPE  H16X16813   4.633   1.565   8.455 -0.4195  3.1296  0.4199
  151SAPE  H16Y16814   4.558   1.669   8.349 -0.1643 -0.2865  0.3279
  151SAPE  C31716815   4.653   1.496   8.249 -0.2111  0.0963  0.0171
  151SAPE  H17X16816   4.623   1.389   8.241 -2.6029  0.7826 -1.0667
  151SAPE  H17Y16817   4.762   1.508   8.270 -0.2560  0.8523 -0.1887
  151SAPE  C31816818   4.616   1.572   8.122 -0.4038 -0.6846  0.2709
  151SAPE  H18X16819   4.660   1.530   8.029  0.0348  2.0540 -0.8851
  151SAPE  H18Y16820   4.654   1.676   8.136 -0.5571 -0.5286 -0.4180
  151SAPE  H18Z16821   4.508   1.586   8.100 -0.0769  0.3653 -0.8112
  152SAPE     N16822   4.868   6.375  10.720  0.3073 -0.3445 -0.5163
  152SAPE   HN116823   4.850   6.478  10.724  1.7351 -0.1060  1.6714
  152SAPE   HN216824   4.829   6.338  10.631  0.5974 -0.0599 -0.7678
  152SAPE   HN316825   4.813   6.339  10.800 -1.4638  0.9602 -1.0802
  152SAPE   C1216826   5.017   6.344  10.752 -0.0456 -0.2978 -0.1044
  152SAPE  H12A16827   5.025   6.235  10.733  1.3464 -0.6580  2.1884
  152SAPE  H12B16828   5.033   6.362  10.860  0.7698 -0.2691 -0.2183
  152SAPE   C1116829   5.107   6.422  10.659 -0.2200  0.0589  0.0229
  152SAPE  H11A16830   5.063   6.415  10.557  0.0756 -1.8922 -0.0027
  152SAPE  H11B16831   5.200   6.360  10.658  0.1456  0.5784  0.7478
  152SAPE     P16832   5.050   6.679  10.644  0.1544 -0.5034  0.3895
  152SAPE   O1316833   4.902   6.658  10.657 -0.6034 -0.4138  0.3529
  152SAPE   O1416834   5.106   6.796  10.712 -0.4167 -0.1691  0.5902
  152SAPE   O1216835   5.124   6.561  10.713  0.3070  0.0750  0.1778
  152SAPE   O1116836   5.102   6.666  10.494 -0.0224 -0.1404  0.7195
  152SAPE    C116837   5.168   6.779  10.432 -0.0993 -0.5666 -0.0384
  152SAPE    HA16838   5.098   6.865  10.433  1.2315  0.5620  0.8919
  152SAPE    HB16839   5.257   6.807  10.493  1.5567  0.6615 -2.8038
  152SAPE    C216840   5.218   6.773  10.282 -0.8184 -1.0348 -0.2644
  152SAPE    HS16841   5.252   6.870  10.241  0.0825 -1.5626 -0.8121
  152SAPE   O2116842   5.126   6.715  10.186 -0.0532 -0.7405  0.1274
  152SAPE   C2116843   5.016   6.790  10.163 -0.9470  0.2007  0.2098
  152SAPE   O2216844   4.989   6.891  10.224 -0.2087  0.0009  0.8142
  152SAPE   C2216845   4.924   6.715  10.072  0.3040  0.2847  0.0695
  152SAPE   H2R16846   4.928   6.609  10.103  0.8201  0.3456  0.2294
  152SAPE   H2S16847   4.824   6.751  10.102 -0.2660 -0.2126 -1.1911
  152SAPE    C316848   5.350   6.693  10.263  0.0626 -0.3543  0.1441
  152SAPE    HX16849   5.331   6.586  10.286 -0.5473 -0.9009 -2.5707
  152SAPE    HY16850   5.412   6.714  10.353 -0.2009 -3.5479  1.2099
  152SAPE   O3116851   5.435   6.714  10.142  0.5400  0.0630 -0.2621
  152SAPE   C3116852   5.450   6.617  10.058 -0.2956  0.5784 -0.1071
  152SAPE   O3216853   5.392   6.509  10.067  0.4434  0.0623  0.8186
  152SAPE   C3216854   5.528   6.663   9.929  0.5711  0.4795  0.0588
  152SAPE   H2X16855   5.634   6.646   9.955  0.4158 -0.1393  0.3025
  152SAPE   H2Y16856   5.525   6.774   9.920  1.7963  0.5947  0.8518
  152SAPE   C2316857   4.955   6.745   9.918  0.2409 -0.5321 -0.2905
  152SAPE   H3R16858   4.925   6.851   9.902 -0.5323 -0.8191 -0.7988
  152SAPE   H3S16859   4.871   6.692   9.868 -2.4712  1.0982  2.1889
  152SAPE   C2416860   5.094   6.711   9.867 -0.5156 -0.4692 -0.4400
  152SAPE   H4R16861   5.161   6.761   9.940 -1.4937  2.1667 -1.2283
  152SAPE   H4S16862   5.119   6.757   9.769 -0.4657 -1.8670 -1.1090
  152SAPE   C2516863   5.135   6.567   9.881 -0.4586  0.5322 -0.1273
  152SAPE   H5R16864   5.191   6.541   9.972  0.7499  1.8206 -0.4672
  152SAPE   C2616865   5.122   6.471   9.786 -0.5831 -0.0549  0.6153
  152SAPE   H6R16866   5.158   6.370   9.810 -0.4364 -0.1052  0.1934
  152SAPE   C2716867   5.055   6.492   9.650  0.5575  0.1431 -0.6944
  152SAPE   H7R16868   5.051   6.600   9.628 -3.6530 -0.4007 -3.8154
  152SAPE   H7S16869   4.948   6.462   9.657  0.4668  0.2517 -1.5289
  152SAPE   C2816870   5.136   6.431   9.542 -0.4917  0.5975  0.5758
  152SAPE   H8R16871   5.146   6.322   9.546  1.1249  0.6097 -1.6416
  152SAPE   C2916872   5.198   6.486   9.437 -0.4660  0.4135  0.3240
  152SAPE   H9R16873   5.261   6.420   9.376 -0.7126  1.3477 -0.9954
  152SAPE  C21016874   5.212   6.632   9.405 -0.0105  0.2112 -0.4796
  152SAPE  H10R16875   5.316   6.653   9.374  0.1853 -0.9600 -0.6740
  152SAPE  H10S16876   5.202   6.693   9.497  0.2972  1.2700 -1.1390
  152SAPE  C21116877   5.118   6.681   9.300 -0.7281  0.1385 -0.7174
  152SAPE  H11R16878   5.013   6.701   9.325 -0.6592  1.7099 -1.5900
  152SAPE  C21216879   5.146   6.700   9.171 -0.6552 -0.0577  0.2605
  152SAPE  H12R16880   5.061   6.732   9.110 -0.9693 -0.5354  0.4339
  152SAPE  C21316881   5.267   6.687   9.087 -0.4721  0.4450 -0.1999
  152SAPE  H13R16882   5.246   6.653   8.983 -0.5005  2.3758 -0.8563
  152SAPE  H13S16883   5.310   6.593   9.128  0.5638 -0.0719 -2.3322
  152SAPE  C21416884   5.364   6.806   9.104 -0.1194  0.1795  0.9816
  152SAPE  H14R16885   5.435   6.794   9.188 -0.1107 -1.9983  0.7276
  152SAPE  C21516886   5.363   6.912   9.018 -0.0774  0.2242  0.2219
  152SAPE  H15R16887   5.419   7.004   9.041 -1.3984  1.2903 -0.6601
  152SAPE  C21616888   5.271   6.924   8.902  0.6917 -0.0179  0.0558
  152SAPE  H16R16889   5.193   7.002   8.921  0.6231 -0.6191  2.5035
  152SAPE  H16S16890   5.220   6.828   8.876 -1.9689  0.8283  1.7789
  152SAPE  C21716891   5.358   6.957   8.779  0.4051 -0.4539 -0.7719
  152SAPE  H17R16892   5.422   6.868   8.763  0.0292 -1.2475  1.7275
  152SAPE  H17S16893   5.424   7.046   8.786  0.0170 -0.1498 -0.9164
  152SAPE  C21816894   5.284   6.967   8.647  0.9608 -0.3392  0.1433
  152SAPE  H18R16895   5.202   7.040   8.660  2.0027  0.5555  2.2205
  152SAPE  H18S16896   5.249   6.864   8.622 -0.8503  0.6865 -1.8112
  152SAPE  C21916897   5.381   7.002   8.534 -0.2521  0.8173 -0.0399
  152SAPE  H19R16898   5.458   6.922   8.534 -1.5448 -0.5350  2.3754
  152SAPE  H19S16899   5.431   7.099   8.557  2.4366 -0.7765  1.4409
  152SAPE  C22016900   5.314   7.021   8.398  0.5878 -0.2065  0.3997
  152SAPE  H20R16901   5.279   7.126   8.395 -0.7349 -0.6376  0.2904
  152SAPE  H20S16902   5.224   6.957   8.386 -0.8488  1.9038 -0.8318
  152SAPE  H20T16903   5.373   7.003   8.306 -0.3519 -3.7934  0.3576
  152SAPE   C3316904   5.500   6.574   9.805  0.5995  0.2887  0.2304
  152SAPE   H3X16905   5.390   6.562   9.793  0.6175 -4.9876  2.4619
  152SAPE   H3Y16906   5.522   6.467   9.828  0.4255  0.4405  1.1304
  152SAPE   C3416907   5.584   6.614   9.682 -0.2002 -0.3244 -0.3530
  152SAPE   H4X16908   5.688   6.609   9.722 -0.7301  1.3318  1.4414
  152SAPE   H4Y16909   5.566   6.717   9.644  1.3009  0.1523  0.1547
  152SAPE   C3516910   5.572   6.507   9.573  0.0474  0.1687 -0.1331
  152SAPE   H5X16911   5.473   6.522   9.527  0.3549  0.8413 -0.5829
  152SAPE   H5Y16912   5.568   6.403   9.612 -1.5474 -0.4366 -1.8195
  152SAPE   C3616913   5.678   6.536   9.465 -0.2105  0.3553 -0.1695
  152SAPE   H6X16914   5.779   6.507   9.502 -0.8712  0.5002  1.8665
  152SAPE   H6Y16915   5.683   6.644   9.441  0.1273 -0.0913 -2.3392
  152SAPE   C3716916   5.652   6.470   9.333 -0.3434 -0.1004  0.7814
  152SAPE   H7X16917   5.549   6.494   9.299  0.3736 -0.7347 -2.0707
  152SAPE   H7Y16918   5.671   6.361   9.343  1.0462  0.1620  1.2362
  152SAPE   C3816919   5.743   6.527   9.220  0.4612  0.5433  0.7235
  152SAPE   H8X16920   5.843   6.481   9.230  0.7500  0.7442 -0.9598
  152SAPE   H8Y16921   5.747   6.638   9.227  0.4995  0.5434  0.7027
  152SAPE   C3916922   5.694   6.492   9.080  0.0018 -0.2756  0.3915
  152SAPE   H9X16923   5.602   6.552   9.065  0.0361 -0.6308 -1.4362
  152SAPE   H9Y16924   5.657   6.387   9.075 -2.0748  0.3548  1.2741
  152SAPE  C31016925   5.799   6.526   8.966  0.0806  0.0905  0.3526
  152SAPE  H10X16926   5.894   6.476   8.992 -0.5126 -0.8118  0.8348
  152SAPE  H10Y16927   5.807   6.636   8.954 -1.4111  0.2029  0.1750
  152SAPE  C31116928   5.765   6.461   8.823  1.1017  0.4885 -0.3713
  152SAPE  H11X16929   5.762   6.350   8.820  1.3102  0.4679  0.1533
  152SAPE  H11Y16930   5.850   6.482   8.754  2.0566 -0.7111  0.3941
  152SAPE  C31216931   5.635   6.500   8.762  0.7486  0.1414  0.5808
  152SAPE  H12X16932   5.635   6.609   8.740  0.2339 -0.3056 -1.9319
  152SAPE  H12Y16933   5.551   6.485   8.834 -0.9467  0.4880 -1.2484
  152SAPE  C31316934   5.576   6.414   8.642 -0.2492 -0.6612 -1.1007
  152SAPE  H13X16935   5.577   6.305   8.662  0.6937 -0.2384  1.5853
  152SAPE  H13Y16936   5.641   6.437   8.554 -3.2083  1.2374 -2.9849
  152SAPE  C31416937   5.433   6.452   8.596  0.0651  0.2660 -0.3141
  152SAPE  H14X16938   5.429   6.562   8.583 -0.9189  0.0151 -2.5029
  152SAPE  H14Y16939   5.356   6.429   8.672 -2.4345  1.4639 -2.3415
  152SAPE  C31516940   5.389   6.392   8.465  0.2542  0.0989 -0.3147
  152SAPE  H15X16941   5.383   6.281   8.472  2.7351 -0.0277  0.5152
  152SAPE  H15Y16942   5.457   6.423   8.383  0.2486  2.6271  0.5765
  152SAPE  C31616943   5.257   6.452   8.412 -0.0833  0.5576 -0.5597
  152SAPE  H16X16944   5.232   6.399   8.318  1.4802  0.9521 -1.2349
  152SAPE  H16Y16945   5.272   6.560   8.392 -2.4685  1.1530  0.5396
  152SAPE  C31716946   5.131   6.438   8.510 -0.3740  0.5439 -0.0325
  152SAPE  H17X16947   5.045   6.478   8.452  0.5617  0.1592 -1.7497
  152SAPE  H17Y16948   5.145   6.499   8.602 -0.5706  0.8867 -0.2282
  152SAPE  C31816949   5.098   6.293   8.552 -0.4620  0.4521  0.6197
  152SAPE  H18X16950   5.164   6.255   8.634 -0.9941 -0.5542  0.6009
  152SAPE  H18Y16951   5.102   6.222   8.467 -1.9204 -1.3633  1.9704
  152SAPE  H18Z16952   4.993   6.292   8.588  0.1649 -0.3171  2.6061
  153SAPE     N16953   5.953   1.056  11.115  0.2603 -0.6883  0.6386
  153SAPE   HN116954   5.946   1.087  11.016 -0.6169 -2.5159  0.0955
  153SAPE   HN216955   5.923   1.137  11.172  1.1440  1.0208 -1.1907
  153SAPE   HN316956   6.048   1.022  11.141 -0.0736 -1.2970  1.0883
  153SAPE   C1216957   5.846   0.951  11.115 -0.6702 -0.1863 -0.2160
  153SAPE  H12A16958   5.759   1.016  11.094 -1.1734 -0.6595  0.3587
  153SAPE  H12B16959   5.845   0.902  11.215  2.5929 -1.8686 -0.8403
  153SAPE   C1116960   5.869   0.849  11.003  0.6851 -0.1136  0.2446
  153SAPE  H11A16961   5.853   0.893  10.902 -0.2892 -0.3101  0.3019
  153SAPE  H11B16962   5.791   0.770  11.009  0.3333  0.2779  1.0381
  153SAPE     P16963   6.069   0.679  10.937 -0.4539 -0.3559 -0.2213
  153SAPE   O1316964   6.207   0.652  10.982 -0.1849  0.0408 -0.1976
  153SAPE   O1416965   5.972   0.569  10.943  0.1998  0.3452 -0.2215
  153SAPE   O1216966   6.002   0.791  11.022 -0.0316  0.0140  0.1350
  153SAPE   O1116967   6.066   0.741  10.794  0.5284 -0.3090  0.0642
  153SAPE    C116968   6.180   0.790  10.725 -0.6653  0.0270  0.8963
  153SAPE    HA16969   6.150   0.872  10.658  0.0431  0.6306  1.3054
  153SAPE    HB16970   6.246   0.850  10.791 -0.4900  1.5761 -0.6322
  153SAPE    C216971   6.262   0.675  10.641 -0.2809 -0.5380 -0.2643
  153SAPE    HS16972   6.343   0.726  10.586 -0.6975  0.6910  0.2173
  153SAPE   O2116973   6.173   0.599  10.552 -0.0540 -0.7771 -0.9531
  153SAPE   C2116974   6.155   0.665  10.435 -0.2186 -0.2444 -0.9701
  153SAPE   O2216975   6.197   0.773  10.408 -0.3269  0.6013 -0.0327
  153SAPE   C2216976   6.056   0.588  10.345 -0.2592 -0.2703  0.2589
  153SAPE   H2R16977   6.003   0.517  10.413  0.8198 -2.0983 -0.7369
  153SAPE   H2S16978   5.974   0.650  10.304 -0.6975 -0.1561  1.2652
  153SAPE    C316979   6.322   0.570  10.731  0.1098 -0.5201 -0.2363
  153SAPE    HX16980   6.250   0.514  10.795 -1.0566 -0.8376 -1.7586
  153SAPE    HY16981   6.379   0.628  10.807  1.1441 -2.0339  0.1992
  153SAPE   O3116982   6.417   0.487  10.658  1.5484  0.6357 -0.1262
  153SAPE   C3116983   6.378   0.360  10.635  0.9453  0.8489 -0.0889
  153SAPE   O3216984   6.274   0.309  10.678  0.2127  0.4303  0.6249
  153SAPE   C3216985   6.492   0.287  10.552 -0.0452  0.0688 -0.0254
  153SAPE   H2X16986   6.578   0.282  10.622  0.2095 -0.9556 -0.3903
  153SAPE   H2Y16987   6.516   0.347  10.461  1.2944  0.8570  0.8108
  153SAPE   C2316988   6.132   0.500  10.250  0.5736  0.0009  0.4448
  153SAPE   H3R16989   6.070   0.413  10.220 -0.4539  1.2439 -1.2449
  153SAPE   H3S16990   6.222   0.460  10.302 -0.5148 -1.1538  1.5077
  153SAPE   C2416991   6.190   0.572  10.131  0.5208 -0.2028  0.1412
  153SAPE   H4R16992   6.268   0.506  10.087  2.8985  2.1289  0.5712
  153SAPE   H4S16993   6.252   0.656  10.168 -0.9137  0.6632  0.6507
  153SAPE   C2516994   6.083   0.629  10.032 -0.3228  0.1984 -0.4209
  153SAPE   H5R16995   6.002   0.679  10.087 -1.4301  0.4996 -2.2341
  153SAPE   C2616996   6.067   0.637   9.899 -0.2733  0.3464  0.4002
  153SAPE   H6R16997   5.969   0.668   9.860 -0.5473  0.3772  1.1162
  153SAPE   C2716998   6.161   0.577   9.796  0.2573 -0.0516  0.5589
  153SAPE   H7R16999   6.190   0.478   9.837  0.4187 -0.2955 -0.1368
  153SAPE   H7S17000   6.250   0.639   9.772  1.3869 -0.2604  3.7315
  153SAPE   C2817001   6.084   0.552   9.667 -0.0330  0.2893  0.0854
  153SAPE   H8R17002   5.975   0.541   9.672 -0.3731  2.2236 -1.5993
  153SAPE   C2917003   6.134   0.558   9.538  0.7808 -0.3314  0.1316
  153SAPE   H9R17004   6.060   0.549   9.458  0.5969 -0.2820  0.2949
  153SAPE  C21017005   6.279   0.577   9.508 -0.0985  0.0126 -0.6502
  153SAPE  H10R17006   6.341   0.554   9.597 -1.1899  0.7603  0.3306
  153SAPE  H10S17007   6.298   0.684   9.487  0.7293  0.5402  2.3332
  153SAPE  C21117008   6.320   0.482   9.398 -0.0006  0.0003 -0.1857
  153SAPE  H11R17009   6.303   0.379   9.432 -2.2749  0.8044  1.3547
  153SAPE  C21217010   6.353   0.512   9.268 -0.8841 -0.2214  0.3850
  153SAPE  H12R17011   6.388   0.432   9.202 -0.4056 -1.1928  1.7705
  153SAPE  C21317012   6.373   0.658   9.219  0.7135  0.1197 -0.2902
  153SAPE  H13R17013   6.323   0.736   9.279  1.7135 -0.1099  0.9049
  153SAPE  H13S17014   6.324   0.668   9.120 -0.2493  2.5699  0.3837
  153SAPE  C21417015   6.517   0.699   9.208 -0.1778  0.0965 -0.3932
  153SAPE  H14R17016   6.580   0.670   9.294  0.0866 -1.0674 -0.9609
  153SAPE  C21517017   6.590   0.768   9.114  0.3414 -0.6101 -0.0583
  153SAPE  H15R17018   6.695   0.796   9.127 -0.3286  1.7696  0.8676
  153SAPE  C21617019   6.534   0.824   8.985  0.6315  0.4627 -0.7624
  153SAPE  H16R17020   6.424   0.815   8.994 -0.0063  4.6421 -1.8433
  153SAPE  H16S17021   6.562   0.772   8.891  0.3850 -1.6737  0.2851
  153SAPE  C21717022   6.549   0.975   8.954 -0.3300  0.5387  0.3890
  153SAPE  H17R17023   6.654   1.003   8.934 -0.9348  1.0295 -2.6762
  153SAPE  H17S17024   6.521   1.025   9.048 -1.9226 -2.0244  1.3925
  153SAPE  C21817025   6.449   1.009   8.838  0.5692  0.5364 -0.2840
  153SAPE  H18R17026   6.346   0.977   8.863  1.3888 -1.5381  0.7104
  153SAPE  H18S17027   6.469   0.952   8.745 -1.0646 -1.0260  0.2686
  153SAPE  C21917028   6.473   1.149   8.789  0.8399  0.5330  0.1362
  153SAPE  H19R17029   6.573   1.156   8.741  0.7216  0.3096 -0.1462
  153SAPE  H19S17030   6.471   1.209   8.883 -0.2429 -1.3075  1.3448
  153SAPE  C22017031   6.371   1.214   8.695  1.0568  0.4165  0.2624
  153SAPE  H20R17032   6.419   1.308   8.660 -1.7848  1.6406 -0.5455
  153SAPE  H20S17033   6.281   1.242   8.753 -0.0182 -0.5788 -0.8770
  153SAPE  H20T17034   6.347   1.146   8.610 -0.2202  0.4122  0.6085
  153SAPE   C3317035   6.457   0.144  10.513  0.4096 -0.0667 -0.0959
  153SAPE   H3X17036   6.447   0.075  10.600 -0.8865  2.2681  1.7056
  153SAPE   H3Y17037   6.543   0.102  10.455  2.2360  2.6592  0.4302
  153SAPE   C3417038   6.338   0.122  10.415 -0.0214 -0.4075  0.5502
  153SAPE   H4X17039   6.246   0.179  10.440  0.1779  0.0187  0.3424
  153SAPE   H4Y17040   6.296   0.020  10.406 -1.7272  0.4154 -1.9143
  153SAPE   C3517041   6.373   0.169  10.268  0.3339 -0.1389 -0.3423
  153SAPE   H5X17042   6.477   0.134  10.252  0.9650  1.3026  0.4249
  153SAPE   H5Y17043   6.371   0.280  10.266  1.7070 -0.0795  0.6536
  153SAPE   C3617044   6.274   0.113  10.163  0.6999  0.2150 -0.5057
  153SAPE   H6X17045   6.178   0.168  10.171  1.4548  1.6066 -0.6613
  153SAPE   H6Y17046   6.251   0.005  10.175 -1.6602  0.5877 -1.1260
  153SAPE   C3717047   6.319   0.125  10.024  0.7339  0.2594 -0.3542
  153SAPE   H7X17048   6.409   0.062  10.007  0.8369 -0.6142  2.7796
  153SAPE   H7Y17049   6.360   0.229  10.018 -0.5870  0.7622 -0.9534
  153SAPE   C3817050   6.208   0.099   9.919  0.3004 -0.2049 -0.6154
  153SAPE   H8X17051   6.113   0.151   9.945 -0.3341 -1.3979 -0.4774
  153SAPE   H8Y17052   6.190  -0.010   9.911 -2.0824  0.1322 -0.7274
  153SAPE   C3917053   6.246   0.129   9.771  0.0681  0.7619  0.0127
  153SAPE   H9X17054   6.333   0.062   9.755 -0.4089  0.4295 -1.2527
  153SAPE   H9Y17055   6.277   0.235   9.755  0.3833  0.9265  1.5437
  153SAPE  C31017056   6.137   0.093   9.670 -0.2510 -0.4210 -0.0906
  153SAPE  H10X17057   6.065   0.177   9.664  0.5797  0.2412 -1.1281
  153SAPE  H10Y17058   6.082   0.000   9.697  1.2164 -0.7533  1.9562
  153SAPE  C31117059   6.194   0.091   9.529 -0.1147 -1.1316  0.3640
  153SAPE  H11X17060   6.278   0.018   9.525  0.7473 -0.1038 -1.4464
  153SAPE  H11Y17061   6.219   0.198   9.516  0.2936 -0.8889  2.6787
  153SAPE  C31217062   6.080   0.047   9.431  0.8303  0.3856 -0.2129
  153SAPE  H12X17063   6.007   0.128   9.411  1.0480  0.3652 -1.1339
  153SAPE  H12Y17064   6.027  -0.036   9.482  2.5593 -0.9018 -0.3882
  153SAPE  C31317065   6.133  -0.029   9.304  0.1856 -0.5415 -0.1466
  153SAPE  H13X17066   6.047  -0.086   9.262 -1.3984  1.0048  0.8817
  153SAPE  H13Y17067   6.219  -0.097   9.326  0.1670 -0.0596  1.5856
  153SAPE  C31417068   6.185   0.078   9.207 -0.1464 -0.5671 -0.0215
  153SAPE  H14X17069   6.282   0.129   9.227 -0.7134  1.3079 -1.7267
  153SAPE  H14Y17070   6.110   0.160   9.200  0.0817 -0.4129 -0.6680
  153SAPE  C31517071   6.180   0.027   9.059 -0.5729  0.2352  0.1726
  153SAPE  H15X17072   6.073   0.017   9.030 -0.6293 -1.5481  0.8517
  153SAPE  H15Y17073   6.233  -0.069   9.042 -0.2424  0.3921  0.3105
  153SAPE  C31617074   6.243   0.140   8.976 -0.4174  0.7376 -0.2126
  153SAPE  H16X17075   6.350   0.146   9.005 -0.8096  2.0931  1.1025
  153SAPE  H16Y17076   6.194   0.235   9.003  0.8478  1.2751  0.2865
  153SAPE  C31717077   6.242   0.106   8.832  0.2060  0.5976 -0.7752
  153SAPE  H17X17078   6.146   0.069   8.789 -0.6496 -0.7745  2.1106
  153SAPE  H17Y17079   6.319   0.027   8.820 -1.0211 -0.3983 -2.7075
  153SAPE  C31817080   6.287   0.207   8.738  0.5959 -0.7370  0.9042
  153SAPE  H18X17081   6.396   0.230   8.738  0.2820  0.8606  1.0611
  153SAPE  H18Y17082   6.229   0.300   8.757 -1.7661 -2.1347  0.8640
  153SAPE  H18Z17083   6.248   0.194   8.635  1.3562  3.5113 -0.1276
  154SAPE     N17084   6.353   1.462  10.767  0.3487 -0.5997 -0.2499
  154SAPE   HN117085   6.372   1.547  10.823 -0.0050 -0.7795  0.1417
  154SAPE   HN217086   6.360   1.478  10.664 -0.5365  1.9726  0.0116
  154SAPE   HN317087   6.252   1.437  10.774 -0.1409  0.7434 -1.9224
  154SAPE   C1217088   6.437   1.355  10.828  0.7376 -0.8613 -0.0120
  154SAPE  H12A17089   6.422   1.268  10.762 -0.1305  0.1693 -1.2128
  154SAPE  H12B17090   6.418   1.339  10.937 -0.3253  0.3448  0.0125
  154SAPE   C1117091   6.584   1.385  10.812  0.1294  1.1132  0.0848
  154SAPE  H11A17092   6.603   1.372  10.703  1.8432 -0.5046  0.5078
  154SAPE  H11B17093   6.631   1.292  10.851 -1.7009  0.8150  1.7206
  154SAPE     P17094   6.692   1.614  10.789  0.0622 -0.1833 -0.0509
  154SAPE   O1317095   6.580   1.679  10.720 -0.4519  0.1301 -0.1257
  154SAPE   O1417096   6.786   1.702  10.866  0.1477 -0.7863  0.3432
  154SAPE   O1217097   6.631   1.503  10.882 -0.4657 -0.8430  0.7404
  154SAPE   O1117098   6.779   1.536  10.683 -0.4408 -0.0879 -0.0562
  154SAPE    C117099   6.842   1.607  10.585  0.0297 -0.1344  0.1003
  154SAPE    HA17100   6.876   1.710  10.612  0.4777 -0.4613  0.7905
  154SAPE    HB17101   6.934   1.547  10.567 -0.3094  0.2042 -3.4702
  154SAPE    C217102   6.777   1.612  10.445  1.1231  0.0259 -0.1588
  154SAPE    HS17103   6.676   1.657  10.460  1.8075  0.7842  2.9623
  154SAPE   O2117104   6.769   1.470  10.402 -0.3167 -0.4556  0.2038
  154SAPE   C2117105   6.654   1.432  10.332  0.2235 -0.2601 -0.0008
  154SAPE   O2217106   6.557   1.505  10.306 -0.5071 -0.1416 -0.8557
  154SAPE   C2217107   6.659   1.283  10.312  0.0339 -0.2901 -0.6726
  154SAPE   H2R17108   6.749   1.229  10.348 -0.9834 -0.6777  1.4337
  154SAPE   H2S17109   6.569   1.263  10.374 -0.2286  2.0099 -0.2250
  154SAPE    C317110   6.855   1.685  10.337 -0.4890  0.3507 -1.0309
  154SAPE    HX17111   6.954   1.634  10.335 -1.5561 -1.9453  0.9386
  154SAPE    HY17112   6.869   1.793  10.362  1.4486 -0.1455  0.2813
  154SAPE   O3117113   6.810   1.657  10.212 -0.0894  0.1193 -0.6520
  154SAPE   C3117114   6.720   1.743  10.163 -0.0958 -0.1665  0.4221
  154SAPE   O3217115   6.682   1.842  10.226 -0.1916 -0.0733 -0.3451
  154SAPE   C3217116   6.674   1.712  10.024  0.0184 -0.0214 -0.1204
  154SAPE   H2X17117   6.607   1.624  10.025 -0.1896  0.0925 -1.5520
  154SAPE   H2Y17118   6.771   1.688   9.975 -0.5795  0.5135 -1.6288
  154SAPE   C2317119   6.623   1.242  10.166 -0.0710 -0.3331  0.2039
  154SAPE   H3R17120   6.569   1.317  10.105 -0.7110  0.5116  1.7339
  154SAPE   H3S17121   6.561   1.151  10.178  0.2022 -1.0180 -2.8733
  154SAPE   C2417122   6.747   1.190  10.085  0.3260  0.8219 -0.5838
  154SAPE   H4R17123   6.701   1.122  10.010  1.5556 -0.3468 -0.3132
  154SAPE   H4S17124   6.831   1.142  10.140 -0.4307  1.3199  1.0804
  154SAPE   C2517125   6.824   1.309  10.027  0.3341  0.0592  0.4326
  154SAPE   H5R17126   6.904   1.350  10.090  1.8440 -0.0002 -1.3258
  154SAPE   C2617127   6.804   1.376   9.907 -1.0266 -0.3395  0.4816
  154SAPE   H6R17128   6.872   1.462   9.894 -0.0479 -1.1962 -0.1919
  154SAPE   C2717129   6.708   1.345   9.796  0.5751 -0.3137  0.0553
  154SAPE   H7R17130   6.624   1.418   9.806 -1.6118 -2.6086 -0.6689
  154SAPE   H7S17131   6.665   1.245   9.818 -0.2454  0.6850  3.6367
  154SAPE   C2817132   6.769   1.330   9.662 -1.1024 -0.0861  0.8545
  154SAPE   H8R17133   6.867   1.283   9.647 -0.3361  1.8873 -0.8057
  154SAPE   C2917134   6.709   1.375   9.552  0.4868  0.1960 -0.0799
  154SAPE   H9R17135   6.759   1.365   9.455 -1.0448  3.5382 -1.3538
  154SAPE  C21017136   6.571   1.428   9.547 -0.8276  0.2049  0.7188
  154SAPE  H10R17137   6.589   1.538   9.551 -0.9507  0.1928  1.7120
  154SAPE  H10S17138   6.510   1.405   9.637  0.6413  1.5074  2.1132
  154SAPE  C21117139   6.502   1.363   9.429 -0.2344  0.0115  0.3515
  154SAPE  H11R17140   6.475   1.257   9.439  0.4842 -0.4292 -1.8753
  154SAPE  C21217141   6.465   1.423   9.323 -1.0515 -0.3996 -0.3618
  154SAPE  H12R17142   6.441   1.359   9.237 -0.8489  0.4012 -1.0293
  154SAPE  C21317143   6.497   1.562   9.284  0.8368 -0.4116  0.2699
  154SAPE  H13R17144   6.593   1.551   9.229  0.8122 -0.6653  0.2795
  154SAPE  H13S17145   6.530   1.629   9.366  4.2204  0.1329 -1.3310
  154SAPE  C21417146   6.384   1.629   9.210  0.2009  0.0692 -0.8350
  154SAPE  H14R17147   6.323   1.691   9.279  0.1934  0.0609 -0.8343
  154SAPE  C21517148   6.361   1.631   9.075  0.1697 -0.4775 -1.4834
  154SAPE  H15R17149   6.273   1.684   9.036  0.6102  0.9271 -0.6484
  154SAPE  C21617150   6.447   1.566   8.971 -0.2123 -0.4088 -1.3422
  154SAPE  H16R17151   6.408   1.462   8.968 -1.7438  0.1080 -0.4755
  154SAPE  H16S17152   6.555   1.575   8.997 -0.3984 -2.1425  0.2181
  154SAPE  C21717153   6.447   1.631   8.828  0.4976 -0.7070 -0.2625
  154SAPE  H17R17154   6.349   1.619   8.778  1.0743 -1.5561 -1.2215
  154SAPE  H17S17155   6.518   1.567   8.772 -0.4023 -1.2625 -0.7697
  154SAPE  C21817156   6.493   1.777   8.823  0.6500 -0.2253  0.1629
  154SAPE  H18R17157   6.588   1.776   8.880  0.6829  1.1238  0.1510
  154SAPE  H18S17158   6.426   1.849   8.875  0.8236  0.8303 -1.0516
  154SAPE  C21917159   6.497   1.832   8.682  0.4932 -0.6158  0.0183
  154SAPE  H19R17160   6.392   1.829   8.645  0.0062  0.2782  1.2374
  154SAPE  H19S17161   6.560   1.758   8.628  0.5065 -0.5927  0.0019
  154SAPE  C22017162   6.553   1.976   8.668  0.3996  0.3323  0.6079
  154SAPE  H20R17163   6.639   1.969   8.738  0.0905 -0.8922  0.9043
  154SAPE  H20S17164   6.474   2.051   8.691 -1.0409 -0.5923 -1.0690
  154SAPE  H20T17165   6.576   1.998   8.562 -2.7756 -2.0817 -0.7663
  154SAPE   C3317166   6.609   1.828   9.944 -0.0885  0.4685  0.8499
  154SAPE   H3X17167   6.676   1.916   9.944  1.1247 -0.3822 -0.9034
  154SAPE   H3Y17168   6.523   1.862  10.005 -0.8645  0.0289  0.0425
  154SAPE   C3417169   6.581   1.776   9.797 -0.0310 -0.0647  0.7469
  154SAPE   H4X17170   6.531   1.677   9.803  2.1544 -1.2863  0.0796
  154SAPE   H4Y17171   6.677   1.757   9.745 -0.7459 -1.5113 -0.1038
  154SAPE   C3517172   6.503   1.878   9.712 -0.8203  0.9651 -0.2153
  154SAPE   H5X17173   6.575   1.962   9.719  2.2336 -1.5848  1.5391
  154SAPE   H5Y17174   6.407   1.898   9.765 -0.1792  1.4690  0.8031
  154SAPE   C3617175   6.482   1.828   9.575 -0.0741  0.1221  0.4509
  154SAPE   H6X17176   6.420   1.735   9.569 -0.4380  0.4056 -0.3352
  154SAPE   H6Y17177   6.579   1.830   9.521  2.5883  1.9887  4.7874
  154SAPE   C3717178   6.384   1.932   9.510  0.5684 -0.3850  0.8182
  154SAPE   H7X17179   6.378   2.024   9.573  1.5321  0.5899 -0.4457
  154SAPE   H7Y17180   6.279   1.898   9.500 -0.2779  1.3626  2.8958
  154SAPE   C3817181   6.437   1.976   9.370  0.5219 -0.3275 -0.4393
  154SAPE   H8X17182   6.449   1.880   9.315  2.6790 -0.1287 -0.4101
  154SAPE   H8Y17183   6.532   2.035   9.373 -0.5679  1.5379 -0.8954
  154SAPE   C3917184   6.344   2.058   9.293  0.4356  0.4642  0.1205
  154SAPE   H9X17185   6.350   2.160   9.337  0.7712  0.0012  1.1849
  154SAPE   H9Y17186   6.241   2.017   9.286  0.9856 -1.2103  1.2383
  154SAPE  C31017187   6.374   2.056   9.140 -0.4164  0.3555 -0.2525
  154SAPE  H10X17188   6.371   1.957   9.089 -1.3888  0.8556 -1.2146
  154SAPE  H10Y17189   6.481   2.083   9.132 -0.0557 -0.0653  2.3663
  154SAPE  C31117190   6.280   2.154   9.065 -0.0649 -0.4707 -0.1667
  154SAPE  H11X17191   6.278   2.241   9.133  4.2405 -0.4982  0.2291
  154SAPE  H11Y17192   6.179   2.107   9.066  0.4110 -1.5379 -0.7514
  154SAPE  C31217193   6.308   2.208   8.925 -0.1019 -0.7185  0.5552
  154SAPE  H12X17194   6.220   2.265   8.888  1.2634  0.6354 -0.6849
  154SAPE  H12Y17195   6.321   2.117   8.862  0.5538 -0.4170  0.2507
  154SAPE  C31317196   6.442   2.276   8.918  0.8343  0.1038  0.6636
  154SAPE  H13X17197   6.520   2.198   8.932  0.1019 -0.7174  0.2412
  154SAPE  H13Y17198   6.446   2.356   8.994  1.5025  0.0580  0.6905
  154SAPE  C31417199   6.471   2.337   8.779  0.2566 -0.5599 -0.1991
  154SAPE  H14X17200   6.452   2.264   8.697  0.5385  0.6377 -1.3763
  154SAPE  H14Y17201   6.577   2.368   8.774  0.1988  0.3427  2.4896
  154SAPE  C31517202   6.381   2.467   8.751 -0.4665 -0.0048  0.1061
  154SAPE  H15X17203   6.401   2.528   8.841  0.5776 -1.1237  0.6655
  154SAPE  H15Y17204   6.275   2.437   8.741 -1.1336  1.8347  1.2233
  154SAPE  C31617205   6.424   2.535   8.620 -0.0419  0.3394 -0.6307
  154SAPE  H16X17206   6.441   2.470   8.532 -0.6046  0.7437 -1.0524
  154SAPE  H16Y17207   6.517   2.590   8.645  1.7677 -2.7965  0.0141
  154SAPE  C31717208   6.318   2.643   8.588 -0.3313  0.2460 -0.3942
  154SAPE  H17X17209   6.303   2.718   8.668 -0.4657 -0.0811 -0.1117
  154SAPE  H17Y17210   6.223   2.585   8.583  0.9067 -2.0144  0.6080
  154SAPE  C31817211   6.345   2.708   8.455  0.2927 -0.5560 -0.0720
  154SAPE  H18X17212   6.275   2.792   8.434  1.4304 -0.4392 -4.3799
  154SAPE  H18Y17213   6.349   2.637   8.370  1.4284 -0.6460  0.0402
  154SAPE  H18Z17214   6.444   2.758   8.447 -1.0552  2.0060 -3.1583
  155SAPE     N17215   0.285   3.504  11.067  0.0258 -0.2600 -1.2482
  155SAPE   HN117216   0.363   3.438  11.088  2.1569  2.8862  1.8462
  155SAPE   HN217217   0.203   3.462  11.114  0.2687 -1.4304 -1.8290
  155SAPE   HN317218   0.265   3.519  10.966 -1.5622  2.0759 -0.6615
  155SAPE   C1217219   0.324   3.635  11.129  0.6882 -0.3463 -0.2129
  155SAPE  H12A17220   0.350   3.620  11.236  0.3008 -2.6292 -0.3950
  155SAPE  H12B17221   0.238   3.705  11.121 -0.1831 -1.3378  0.1491
  155SAPE   C1117222   0.449   3.684  11.055  0.4283 -0.5687 -0.5436
  155SAPE  H11A17223   0.478   3.785  11.092 -1.3777 -0.4907  0.8340
  155SAPE  H11B17224   0.431   3.696  10.946 -0.3547 -1.3378 -0.5115
  155SAPE     P17225   0.688   3.592  11.015 -0.2307 -0.0936  0.5244
  155SAPE   O1317226   0.732   3.734  11.030  0.0579  0.2279  0.4914
  155SAPE   O1417227   0.778   3.483  11.062  0.7893  0.3453 -0.0232
  155SAPE   O1217228   0.547   3.591  11.086 -0.2775  0.6274  0.8036
  155SAPE   O1117229   0.651   3.571  10.863 -0.4421  0.3332  0.0548
  155SAPE    C117230   0.569   3.476  10.811  0.4440 -0.0890  0.0476
  155SAPE    HA17231   0.563   3.391  10.882  0.2874 -0.7522 -0.7543
  155SAPE    HB17232   0.468   3.516  10.789  0.2984 -0.6553 -0.3360
  155SAPE    C217233   0.619   3.424  10.679 -0.6822  0.0027  0.7334
  155SAPE    HS17234   0.728   3.403  10.683 -0.9147 -1.2621  0.8106
  155SAPE   O2117235   0.587   3.511  10.571  0.0595  0.2721 -0.6694
  155SAPE   C2117236   0.661   3.616  10.536  0.1230 -0.4236 -0.0714
  155SAPE   O2217237   0.772   3.635  10.565 -0.9205  0.2445  0.0509
  155SAPE   C2217238   0.578   3.714  10.457 -0.1967 -0.1499  0.6408
  155SAPE   H2R17239   0.473   3.682  10.442  0.1126 -0.6659 -0.5558
  155SAPE   H2S17240   0.578   3.815  10.502  0.6466  0.3527 -0.4463
  155SAPE    C317241   0.568   3.286  10.634  0.3336  0.3384  0.3343
  155SAPE    HX17242   0.468   3.299  10.587  0.5638 -2.0661 -0.9875
  155SAPE    HY17243   0.562   3.225  10.726  2.1070  0.3237  0.4790
  155SAPE   O3117244   0.659   3.224  10.541  0.5199 -0.2009  0.3442
  155SAPE   C3117245   0.608   3.116  10.486  0.3669  0.3243  0.3048
  155SAPE   O3217246   0.506   3.058  10.526 -0.0684 -0.1725 -0.0863
  155SAPE   C3217247   0.699   3.067  10.374 -0.0799 -0.0863  0.1334
  155SAPE   H2X17248   0.741   2.966  10.396  1.5251  0.6431  0.5596
  155SAPE   H2Y17249   0.784   3.137  10.360 -0.3734  0.8569  2.5740
  155SAPE   C2317250   0.626   3.739  10.311  0.1554  0.5641 -0.2587
  155SAPE   H3R17251   0.718   3.801  10.308 -0.6395  1.7433 -1.0378
  155SAPE   H3S17252   0.545   3.789  10.253  1.2441  0.7340 -1.6837
  155SAPE   C2417253   0.656   3.600  10.239 -0.5741 -0.1061  0.1216
  155SAPE   H4R17254   0.637   3.614  10.130 -1.0273 -0.7793  0.1110
  155SAPE   H4S17255   0.571   3.534  10.263  0.6653 -1.4179  1.1030
  155SAPE   C2517256   0.789   3.529  10.260 -0.2469  0.9588 -0.6448
  155SAPE   H5R17257   0.802   3.480  10.358 -2.6727 -2.3260 -1.7619
  155SAPE   C2617258   0.884   3.494  10.168 -0.0302  0.4791 -0.2106
  155SAPE   H6R17259   0.969   3.431  10.197  0.9000  2.1792  0.8710
  155SAPE   C2717260   0.877   3.530  10.022  0.4752 -0.5153  1.3061
  155SAPE   H7R17261   0.983   3.531   9.987  0.1232 -0.2901  0.2086
  155SAPE   H7S17262   0.852   3.637  10.006 -3.2249 -1.3664  0.6298
  155SAPE   C2817263   0.779   3.447   9.936 -0.2673  0.5131  0.6351
  155SAPE   H8R17264   0.693   3.396   9.982 -1.1027  1.0711 -0.2594
  155SAPE   C2917265   0.785   3.435   9.799 -0.8923  0.1827 -1.2184
  155SAPE   H9R17266   0.728   3.351   9.759 -0.4874 -2.2194  2.6847
  155SAPE  C21017267   0.884   3.495   9.699 -0.1085  0.0897 -0.4841
  155SAPE  H10R17268   0.899   3.415   9.623  0.7773  0.8515 -1.1392
  155SAPE  H10S17269   0.977   3.501   9.760 -1.9155 -1.1521  2.6108
  155SAPE  C21117270   0.852   3.626   9.646 -0.0980 -0.1822 -0.6386
  155SAPE  H11R17271   0.806   3.689   9.723 -0.8102  1.2856 -2.1903
  155SAPE  C21217272   0.861   3.659   9.516 -1.3485  0.0352 -0.1661
  155SAPE  H12R17273   0.831   3.757   9.476  0.7027 -0.5970 -3.6308
  155SAPE  C21317274   0.905   3.582   9.396  0.1073  0.2765  0.5348
  155SAPE  H13R17275   0.828   3.598   9.318  0.2633  0.4567  0.4170
  155SAPE  H13S17276   0.902   3.473   9.419 -1.6432  0.0869 -0.4384
  155SAPE  C21417277   1.034   3.620   9.340  0.1732  0.0686 -0.0598
  155SAPE  H14R17278   1.113   3.591   9.411 -0.6263  2.5207  1.9519
  155SAPE  C21517279   1.059   3.693   9.238 -0.9788 -0.5263  0.0129
  155SAPE  H15R17280   1.166   3.706   9.215 -1.0923 -0.6659 -0.6118
  155SAPE  C21617281   0.961   3.768   9.154  0.3500  1.1754 -0.3238
  155SAPE  H16R17282   0.999   3.872   9.139 -0.2925  1.3103 -1.0839
  155SAPE  H16S17283   0.860   3.764   9.200 -0.2849 -1.6205 -1.7519
  155SAPE  C21717284   0.951   3.703   9.024  0.3500  0.1053  0.3141
  155SAPE  H17R17285   0.868   3.756   8.973  0.4195  0.2619  0.3610
  155SAPE  H17S17286   0.924   3.596   9.031 -0.3704  0.1229 -1.6738
  155SAPE  C21817287   1.078   3.723   8.945 -0.0545 -0.0158 -0.4931
  155SAPE  H18R17288   1.150   3.645   8.977 -1.9307 -1.9000 -0.6533
  155SAPE  H18S17289   1.114   3.826   8.964 -0.0999 -0.0120 -0.4282
  155SAPE  C21917290   1.060   3.695   8.793 -0.2162 -0.3942 -0.3308
  155SAPE  H19R17291   0.986   3.612   8.783 -0.5224 -0.1711  0.0658
  155SAPE  H19S17292   1.153   3.658   8.746 -1.4180 -4.3624  0.0258
  155SAPE  C22017293   1.011   3.820   8.724 -0.5676  0.1084  0.0238
  155SAPE  H20R17294   1.083   3.905   8.733 -0.2123  0.0035 -1.4999
  155SAPE  H20S17295   0.909   3.846   8.761 -1.8217 -2.6158 -1.2733
  155SAPE  H20T17296   1.002   3.808   8.614  0.4643 -2.0428  0.1238
  155SAPE   C3317297   0.610   3.053  10.245 -0.1603 -0.0148 -0.2821
  155SAPE   H3X17298   0.549   3.145  10.236 -0.9643 -0.6715 -1.9398
  155SAPE   H3Y17299   0.556   2.956  10.250 -1.2135  0.5722 -0.1132
  155SAPE   C3417300   0.700   3.045  10.125  0.6309 -0.0666  0.0061
  155SAPE   H4X17301   0.749   2.945  10.132 -1.4455 -1.1171  0.3249
  155SAPE   H4Y17302   0.769   3.132  10.130  0.5449 -0.0048  0.1192
  155SAPE   C3517303   0.628   3.053   9.988 -0.8985 -0.4246 -0.3319
  155SAPE   H5X17304   0.584   3.156   9.986 -0.9882 -0.4528  0.0450
  155SAPE   H5Y17305   0.549   2.975   9.983 -2.3224  0.8337  1.1700
  155SAPE   C3617306   0.723   3.062   9.872 -0.3155 -0.0760  0.1547
  155SAPE   H6X17307   0.788   2.972   9.860 -1.4700 -0.8063 -0.8158
  155SAPE   H6Y17308   0.785   3.153   9.883 -1.8637  0.8409  1.7890
  155SAPE   C3717309   0.636   3.076   9.748 -0.1487 -0.8665 -0.0386
  155SAPE   H7X17310   0.562   3.159   9.749 -0.1216 -0.8480  0.2985
  155SAPE   H7Y17311   0.585   2.978   9.738  2.2149 -2.4021  1.7109
  155SAPE   C3817312   0.726   3.109   9.629 -0.0482  0.2208  0.1850
  155SAPE   H8X17313   0.753   3.005   9.602  0.3701  0.8327 -1.9026
  155SAPE   H8Y17314   0.815   3.171   9.655 -1.9257  3.1484  0.1584
  155SAPE   C3917315   0.658   3.196   9.522  0.6197  0.5151 -0.1489
  155SAPE   H9X17316   0.653   3.301   9.556 -0.7993  0.4714 -0.1734
  155SAPE   H9Y17317   0.553   3.164   9.506  0.2963  1.7523 -0.5827
  155SAPE  C31017318   0.737   3.193   9.391  0.3874  0.0609 -0.0243
  155SAPE  H10X17319   0.719   3.101   9.332  2.9785  1.2635 -2.9405
  155SAPE  H10Y17320   0.848   3.198   9.401  0.5472 -1.3733 -0.7604
  155SAPE  C31117321   0.689   3.299   9.291 -0.7148 -0.4236  0.0898
  155SAPE  H11X17322   0.715   3.401   9.327  1.1214 -0.1085 -1.8848
  155SAPE  H11Y17323   0.579   3.290   9.292 -0.8996  1.4964  0.4224
  155SAPE  C31217324   0.747   3.270   9.151  0.0939  0.0074  0.4859
  155SAPE  H12X17325   0.714   3.168   9.121 -1.5901  0.4551  0.7335
  155SAPE  H12Y17326   0.858   3.269   9.150  0.1090 -0.2281  1.1684
  155SAPE  C31317327   0.694   3.358   9.045  0.7113  0.8211  0.4208
  155SAPE  H13X17328   0.700   3.463   9.081  1.0968  1.3110 -0.9898
  155SAPE  H13Y17329   0.588   3.328   9.032  0.5897  1.6777 -0.7895
  155SAPE  C31417330   0.772   3.336   8.912 -0.2921  0.1428  0.3651
  155SAPE  H14X17331   0.774   3.236   8.863  1.1032 -0.1219  0.9158
  155SAPE  H14Y17332   0.879   3.364   8.925  0.1190 -0.4968 -1.3465
  155SAPE  C31517333   0.717   3.434   8.807 -0.5739  0.8251  0.0343
  155SAPE  H15X17334   0.718   3.540   8.841 -0.7208  0.1409  2.3197
  155SAPE  H15Y17335   0.608   3.415   8.804 -0.8962  2.6146 -1.2883
  155SAPE  C31617336   0.779   3.427   8.665  0.2951 -0.3417  0.0547
  155SAPE  H16X17337   0.753   3.335   8.608 -0.7698 -0.5737  0.8838
  155SAPE  H16Y17338   0.890   3.418   8.672  0.3612  1.1576  1.4015
  155SAPE  C31717339   0.737   3.550   8.582 -0.3643  0.4716  0.5315
  155SAPE  H17X17340   0.797   3.635   8.621  1.5138 -0.5825  0.0570
  155SAPE  H17Y17341   0.633   3.578   8.611 -1.0029 -0.3767 -0.8704
  155SAPE  C31817342   0.739   3.522   8.437  0.2785  0.3131 -0.5588
  155SAPE  H18X17343   0.706   3.420   8.408 -0.6134 -0.0316  1.5145
  155SAPE  H18Y17344   0.834   3.551   8.387 -1.3011 -0.1688 -4.1715
  155SAPE  H18Z17345   0.662   3.594   8.401  0.1395  0.4542  0.0105
  156SAPE     N17346   3.723   0.431  10.608  0.1337  0.3908  0.0225
  156SAPE   HN117347   3.708   0.336  10.647  1.5040 -0.9555 -2.4938
  156SAPE   HN217348   3.632   0.481  10.598  0.1940  0.6382  0.6982
  156SAPE   HN317349   3.762   0.426  10.511 -1.6507  3.6844 -1.0473
  156SAPE   C1217350   3.818   0.522  10.682  0.1183  0.2743 -0.3634
  156SAPE  H12A17351   3.914   0.471  10.700  0.1674  0.9980  1.8021
  156SAPE  H12B17352   3.771   0.561  10.775  2.2862  2.2928 -0.0209
  156SAPE   C1117353   3.843   0.663  10.619  0.1701  0.3080 -0.5926
  156SAPE  H11A17354   3.918   0.641  10.540  0.3180 -0.4946 -0.2357
  156SAPE  H11B17355   3.888   0.729  10.696 -3.0042  1.6212  0.3068
  156SAPE     P17356   3.701   0.879  10.589 -0.1348  0.0203 -0.1726
  156SAPE   O1317357   3.597   0.895  10.697 -0.9842 -0.1184 -0.0713
  156SAPE   O1417358   3.830   0.948  10.607  0.7295  0.3743  0.6124
  156SAPE   O1217359   3.725   0.725  10.570 -0.0376 -0.7709 -0.6479
  156SAPE   O1117360   3.632   0.922  10.451 -0.1948  0.2880 -0.1289
  156SAPE    C117361   3.553   0.841  10.366 -0.2858  0.1037 -0.6478
  156SAPE    HA17362   3.494   0.773  10.432  0.5288  0.9502  1.0083
  156SAPE    HB17363   3.480   0.900  10.306 -0.3086  0.9402  0.1862
  156SAPE    C217364   3.635   0.756  10.266  0.2767  0.3246  0.2268
  156SAPE    HS17365   3.686   0.681  10.329 -0.1415  1.3069  1.8112
  156SAPE   O2117366   3.713   0.847  10.192 -0.5429 -0.1773  0.3651
  156SAPE   C2117367   3.815   0.793  10.124  0.0178  0.0271  0.0979
  156SAPE   O2217368   3.866   0.684  10.142 -0.3194 -0.2952 -0.0344
  156SAPE   C2217369   3.881   0.902  10.029  0.3525  0.2057 -0.0222
  156SAPE   H2R17370   3.803   0.977  10.004  0.1570  1.1292  2.9571
  156SAPE   H2S17371   3.958   0.948  10.095 -2.9815  2.1009  2.9366
  156SAPE    C317372   3.528   0.689  10.179 -0.0314  0.0572 -0.4033
  156SAPE    HX17373   3.473   0.767  10.123  2.2604  2.6808  0.7874
  156SAPE    HY17374   3.452   0.648  10.250 -0.7939 -0.6085 -1.5745
  156SAPE   O3117375   3.586   0.586  10.092 -0.0250  0.2085  0.0122
  156SAPE   C3117376   3.600   0.469  10.151 -0.8278 -0.1500  0.7094
  156SAPE   O3217377   3.561   0.437  10.263 -0.0415 -0.1828  0.3160
  156SAPE   C3217378   3.682   0.377  10.065 -0.1413  1.3460  0.0203
  156SAPE   H2X17379   3.720   0.293  10.126  1.5259  2.5447  0.7079
  156SAPE   H2Y17380   3.774   0.428  10.028  0.1133 -0.2642 -1.7038
  156SAPE   C2317381   3.931   0.849   9.892 -0.3426 -0.1557 -0.0795
  156SAPE   H3R17382   3.975   0.748   9.910  2.4434  0.8111 -0.8707
  156SAPE   H3S17383   4.026   0.903   9.872 -0.0689 -0.7027 -0.2936
  156SAPE   C2417384   3.827   0.857   9.780  0.1671 -0.2514  0.6963
  156SAPE   H4R17385   3.878   0.829   9.685  0.1181 -1.9444  1.1363
  156SAPE   H4S17386   3.806   0.964   9.758  3.8038  0.2796 -0.9666
  156SAPE   C2517387   3.713   0.757   9.793 -0.5282 -0.4142  0.2731
  156SAPE   H5R17388   3.740   0.650   9.800  0.4126 -0.2330 -0.3768
  156SAPE   C2617389   3.579   0.781   9.788  0.0035  0.1091  0.5059
  156SAPE   H6R17390   3.520   0.691   9.810  2.0695 -1.7054 -0.9558
  156SAPE   C2717391   3.496   0.908   9.780  0.1774 -0.1419  0.3537
  156SAPE   H7R17392   3.410   0.894   9.712  0.4194  0.4681 -0.0830
  156SAPE   H7S17393   3.564   0.985   9.738 -2.6688  1.8254 -0.9008
  156SAPE   C2817394   3.448   0.955   9.911  0.0547  0.5965  0.1617
  156SAPE   H8R17395   3.527   0.943   9.987  0.1377  0.2055  0.0174
  156SAPE   C2917396   3.329   1.005   9.940 -0.5063  0.0996 -0.0254
  156SAPE   H9R17397   3.317   1.035  10.045 -0.2955  1.1551 -0.2845
  156SAPE  C21017398   3.214   1.019   9.845 -0.2143  0.1826  0.8625
  156SAPE  H10R17399   3.238   1.081   9.756 -1.0401 -0.9123 -0.1503
  156SAPE  H10S17400   3.148   1.088   9.901 -2.3313 -1.0835  0.0300
  156SAPE  C21117401   3.136   0.902   9.793  0.4838 -0.0612  0.2053
  156SAPE  H11R17402   3.070   0.861   9.870  0.5765  2.3698  1.6697
  156SAPE  C21217403   3.129   0.852   9.664  0.0826 -1.1528 -0.3745
  156SAPE  H12R17404   3.053   0.773   9.653  0.1476 -1.2040 -0.4568
  156SAPE  C21317405   3.202   0.888   9.530  0.0101 -0.7841 -0.1568
  156SAPE  H13R17406   3.264   0.806   9.488 -0.7924 -1.8500  0.6893
  156SAPE  H13S17407   3.281   0.962   9.555 -0.8061 -0.2281  0.8611
  156SAPE  C21417408   3.114   0.951   9.427 -0.2481  0.8103  0.3112
  156SAPE  H14R17409   3.033   1.018   9.460  0.6892  1.9525  0.3824
  156SAPE  C21517410   3.122   0.931   9.291 -0.5549 -0.0609 -0.6305
  156SAPE  H15R17411   3.060   0.992   9.223 -1.0777  0.8602  0.6282
  156SAPE  C21617412   3.222   0.852   9.220 -0.0927  0.5303  0.4926
  156SAPE  H16R17413   3.173   0.782   9.150  1.3148 -1.4080  1.3403
  156SAPE  H16S17414   3.281   0.775   9.274 -1.2737 -1.9990 -1.6168
  156SAPE  C21717415   3.315   0.932   9.127  0.9397  0.1984 -0.5967
  156SAPE  H17R17416   3.380   1.008   9.175  0.5489  1.1676 -1.5752
  156SAPE  H17S17417   3.253   0.994   9.059 -0.6866 -0.4375  0.2407
  156SAPE  C21817418   3.402   0.840   9.049  0.0549 -0.5326 -0.1984
  156SAPE  H18R17419   3.349   0.788   8.966  1.5927  0.0695 -1.6149
  156SAPE  H18S17420   3.458   0.771   9.115 -0.2760  0.7571  1.4965
  156SAPE  C21917421   3.510   0.921   8.972 -0.2127 -0.3331  0.2383
  156SAPE  H19R17422   3.570   0.978   9.047  1.2162  0.9016 -1.7480
  156SAPE  H19S17423   3.461   0.994   8.904  1.1846 -0.7105 -1.2381
  156SAPE  C22017424   3.611   0.834   8.898 -0.5455  0.1065 -0.2445
  156SAPE  H20R17425   3.569   0.752   8.835  0.8480 -2.2451  1.7044
  156SAPE  H20S17426   3.668   0.777   8.975 -0.0220  1.3764  0.3253
  156SAPE  H20T17427   3.677   0.891   8.830  1.4100 -1.0896  0.5557
  156SAPE   C3317428   3.617   0.331   9.939 -0.3267 -0.2002  0.5440
  156SAPE   H3X17429   3.597   0.424   9.881 -2.6250  0.1588  1.8214
  156SAPE   H3Y17430   3.514   0.291   9.939 -1.6113  2.7920  1.4681
  156SAPE   C3417431   3.713   0.247   9.845  0.6941 -0.4268  0.3299
  156SAPE   H4X17432   3.728   0.142   9.879 -0.7492 -0.7228  0.1213
  156SAPE   H4Y17433   3.814   0.293   9.850  0.6667 -0.2278 -0.7944
  156SAPE   C3517434   3.666   0.255   9.699 -0.1022 -0.5711  0.0390
  156SAPE   H5X17435   3.631   0.356   9.668 -1.9698 -1.1279  0.1760
  156SAPE   H5Y17436   3.578   0.187   9.693  0.8540 -1.9847  1.3004
  156SAPE   C3617437   3.775   0.203   9.610 -0.4895  0.3514  0.6292
  156SAPE   H6X17438   3.818   0.112   9.656  0.3622  0.4820  0.1163
  156SAPE   H6Y17439   3.865   0.268   9.618 -1.1870  1.6093 -1.0893
  156SAPE   C3717440   3.732   0.173   9.461  0.6426  0.3120  0.0197
  156SAPE   H7X17441   3.672   0.252   9.411 -0.4142  1.0700  2.3882
  156SAPE   H7Y17442   3.662   0.087   9.469  1.9295 -0.7822 -0.0460
  156SAPE   C3817443   3.855   0.130   9.376 -0.0732 -0.3406 -0.6705
  156SAPE   H8X17444   3.908   0.037   9.406  0.0060 -0.1024 -0.0452
  156SAPE   H8Y17445   3.935   0.203   9.399 -0.5094 -0.1949  0.4668
  156SAPE   C3917446   3.811   0.132   9.233  0.0486 -0.3116 -0.0957
  156SAPE   H9X17447   3.892   0.135   9.157  0.7965 -0.5269  0.6843
  156SAPE   H9Y17448   3.747   0.220   9.212  1.4083  0.5289 -0.8400
  156SAPE  C31017449   3.735   0.002   9.194  0.0274  0.4224  0.4350
  156SAPE  H10X17450   3.640  -0.005   9.252 -0.2959 -1.5595 -0.2406
  156SAPE  H10Y17451   3.805  -0.082   9.217  1.3211  0.6350 -2.3733
  156SAPE  C31117452   3.706   0.004   9.044 -0.2563 -0.7377  0.2552
  156SAPE  H11X17453   3.799   0.015   8.985 -0.7979  1.6448 -0.2570
  156SAPE  H11Y17454   3.638   0.089   9.024 -0.7925 -1.3339 -0.5045
  156SAPE  C31217455   3.633  -0.120   8.990 -0.1480 -0.3444 -0.8317
  156SAPE  H12X17456   3.579  -0.165   9.076  0.8104 -2.8130 -1.4313
  156SAPE  H12Y17457   3.708  -0.199   8.969  0.9253  0.3636  0.2390
  156SAPE  C31317458   3.540  -0.090   8.866  0.3130 -0.3656 -0.2486
  156SAPE  H13X17459   3.480  -0.002   8.897  0.9350  0.5567 -1.5556
  156SAPE  H13Y17460   3.469  -0.174   8.848  0.1608 -0.8149  2.1047
  156SAPE  C31417461   3.616  -0.069   8.734 -0.3100  0.4482 -0.7267
  156SAPE  H14X17462   3.674   0.025   8.747 -0.1232 -0.0139  2.6364
  156SAPE  H14Y17463   3.551  -0.053   8.645 -0.4762 -0.1492 -0.7162
  156SAPE  C31517464   3.713  -0.179   8.704 -0.7001 -0.2562  0.2992
  156SAPE  H15X17465   3.665  -0.279   8.696 -1.7359  0.2161  0.5377
  156SAPE  H15Y17466   3.787  -0.186   8.786  0.3293 -1.0472 -0.6618
  156SAPE  C31617467   3.797  -0.159   8.576  0.2440 -0.2803 -0.0174
  156SAPE  H16X17468   3.833  -0.054   8.571 -0.2149 -0.1468 -0.7658
  156SAPE  H16Y17469   3.731  -0.189   8.492  0.0774  0.6606 -0.2332
  156SAPE  C31717470   3.925  -0.245   8.556 -0.4294  0.0331 -0.2887
  156SAPE  H17X17471   3.917  -0.354   8.573 -1.8944 -0.4152 -3.1675
  156SAPE  H17Y17472   4.013  -0.217   8.618  2.8083 -0.7493 -4.0629
  156SAPE  C31817473   3.972  -0.234   8.415 -0.2836  0.2823 -0.4577
  156SAPE  H18X17474   3.889  -0.234   8.342 -0.6652 -0.3141 -0.0388
  156SAPE  H18Y17475   4.060  -0.297   8.390 -0.5937  0.7568 -2.9247
  156SAPE  H18Z17476   4.020  -0.135   8.401 -0.9336  1.1013  2.4201
  157SAPE     N17477   4.476   0.956  10.699  0.3430  0.2385  0.5280
  157SAPE   HN117478   4.540   1.015  10.642  0.9273 -0.4411  0.4703
  157SAPE   HN217479   4.450   1.009  10.785  0.5420  3.4936 -1.2574
  157SAPE   HN317480   4.532   0.872  10.724 -2.1430 -1.6636  0.1185
  157SAPE   C1217481   4.358   0.915  10.624 -0.6293  0.3838 -0.3109
  157SAPE  H12A17482   4.324   0.827  10.684 -1.7333 -0.7551 -2.4920
  157SAPE  H12B17483   4.391   0.883  10.523 -0.4388  1.0048 -0.4454
  157SAPE   C1117484   4.253   1.028  10.612 -0.2432  0.0648 -0.1647
  157SAPE  H11A17485   4.169   0.993  10.549 -1.2981  2.5545 -0.2734
  157SAPE  H11B17486   4.299   1.107  10.548  2.5365 -0.8788  0.5029
  157SAPE     P17487   4.212   1.237  10.768  0.1545  0.2110 -0.2091
  157SAPE   O1317488   4.117   1.285  10.869 -0.4494  0.2568  0.3829
  157SAPE   O1417489   4.355   1.275  10.783  0.5354  0.0293  0.3595
  157SAPE   O1217490   4.217   1.078  10.740  0.3298 -0.3494 -0.4296
  157SAPE   O1117491   4.162   1.287  10.626  0.1626  0.1624  0.7573
  157SAPE    C117492   4.022   1.308  10.611  0.0398  0.5296 -1.0020
  157SAPE    HA17493   3.964   1.215  10.628  2.2991 -0.7311  0.2658
  157SAPE    HB17494   3.991   1.382  10.688 -0.7285 -1.5559  0.7788
  157SAPE    C217495   4.003   1.374  10.477 -0.4914  0.3653  0.5126
  157SAPE    HS17496   3.936   1.460  10.499 -0.8198 -0.4746  3.0772
  157SAPE   O2117497   3.955   1.297  10.364 -0.0496  0.0720 -0.2859
  157SAPE   C2117498   3.834   1.260  10.377  0.5685  0.2888  0.0653
  157SAPE   O2217499   3.756   1.286  10.470 -0.3036  0.3358 -0.5169
  157SAPE   C2217500   3.787   1.188  10.254 -0.1077 -0.5103  0.2799
  157SAPE   H2R17501   3.868   1.127  10.209 -1.6352 -1.2785 -1.5778
  157SAPE   H2S17502   3.722   1.106  10.292  1.2762 -2.4479 -1.3110
  157SAPE    C317503   4.133   1.451  10.426  0.4809  0.3636 -0.2151
  157SAPE    HX17504   4.195   1.381  10.367  1.1985  0.5525  0.2970
  157SAPE    HY17505   4.190   1.481  10.517 -0.0150 -3.2723  1.4526
  157SAPE   O3117506   4.077   1.565  10.345 -0.3531  0.0825 -0.6750
  157SAPE   C3117507   4.175   1.652  10.310 -0.4236  0.1066 -0.1303
  157SAPE   O3217508   4.290   1.637  10.348 -0.3519 -0.0354  0.7627
  157SAPE   C3217509   4.135   1.729  10.180 -0.5830  0.2545 -0.3319
  157SAPE   H2X17510   4.172   1.831  10.205 -3.1378  1.3110 -0.4344
  157SAPE   H2Y17511   4.024   1.721  10.173 -0.5568 -0.3927 -0.0423
  157SAPE   C2317512   3.711   1.270  10.143 -0.6233  0.9079 -0.6942
  157SAPE   H3R17513   3.651   1.351  10.191 -2.0202 -0.4765 -0.0322
  157SAPE   H3S17514   3.634   1.222  10.079 -1.7624 -0.5320  1.6014
  157SAPE   C2417515   3.812   1.351  10.055 -0.1849 -0.2274  0.0746
  157SAPE   H4R17516   3.885   1.395  10.127 -0.3637 -1.3114  0.9445
  157SAPE   H4S17517   3.764   1.430   9.994 -0.2287 -0.5815 -0.3477
  157SAPE   C2517518   3.898   1.262   9.961 -0.6370 -0.4335  0.3294
  157SAPE   H5R17519   4.000   1.234   9.992  0.2964  1.5551 -0.7224
  157SAPE   C2617520   3.872   1.229   9.839 -0.0567 -0.1749  0.2011
  157SAPE   H6R17521   3.924   1.146   9.789  0.1698  0.5307 -0.7723
  157SAPE   C2717522   3.742   1.257   9.765 -0.7655  0.5474  0.4353
  157SAPE   H7R17523   3.683   1.323   9.832 -2.7712 -0.8633  0.1714
  157SAPE   H7S17524   3.685   1.161   9.760  0.0942 -0.1467  2.7587
  157SAPE   C2817525   3.780   1.321   9.631 -0.2848 -0.5689 -0.2626
  157SAPE   H8R17526   3.778   1.431   9.625 -0.6463 -0.5483  0.2270
  157SAPE   C2917527   3.765   1.263   9.511  0.5319  0.4940  0.3929
  157SAPE   H9R17528   3.789   1.319   9.419 -0.4382  0.6398  0.2136
  157SAPE  C21017529   3.742   1.110   9.494 -0.0176  0.0800  0.6061
  157SAPE  H10R17530   3.637   1.089   9.526  0.4513  0.2554  2.3603
  157SAPE  H10S17531   3.815   1.057   9.558  2.4915  0.6830 -1.5883
  157SAPE  C21117532   3.762   1.057   9.351 -0.3495 -0.3572 -0.7845
  157SAPE  H11R17533   3.837   1.123   9.304 -3.2931  2.3491 -2.1632
  157SAPE  C21217534   3.712   0.947   9.291 -0.2359 -0.1165 -0.0109
  157SAPE  H12R17535   3.738   0.924   9.186 -0.2373 -1.9435  0.3665
  157SAPE  C21317536   3.627   0.839   9.358  0.1672 -0.1919 -0.3998
  157SAPE  H13R17537   3.557   0.797   9.283 -0.5877  0.9965 -0.3868
  157SAPE  H13S17538   3.571   0.898   9.433 -1.6367  1.0868 -2.6216
  157SAPE  C21417539   3.710   0.729   9.425 -0.0830 -0.0382  0.8044
  157SAPE  H14R17540   3.739   0.748   9.529  0.0269  1.2154  0.5654
  157SAPE  C21517541   3.739   0.607   9.375  0.3811  0.4765  0.1180
  157SAPE  H15R17542   3.803   0.535   9.429 -0.7765  1.4643  2.9858
  157SAPE  C21617543   3.698   0.558   9.237  0.0503 -0.5908 -0.2675
  157SAPE  H16R17544   3.624   0.626   9.190 -0.7909  0.3065  2.1907
  157SAPE  H16S17545   3.654   0.456   9.240  1.8709 -1.4667 -1.3705
  157SAPE  C21717546   3.810   0.552   9.130 -0.7312 -0.0643  0.0358
  157SAPE  H17R17547   3.887   0.483   9.171  0.5841  2.7527  2.7419
  157SAPE  H17S17548   3.863   0.649   9.119  2.3287 -1.5274  0.8738
  157SAPE  C21817549   3.772   0.509   8.992  0.2591 -0.0216 -0.3323
  157SAPE  H18R17550   3.670   0.547   8.971 -0.2350 -2.6990 -3.6966
  157SAPE  H18S17551   3.747   0.400   8.989 -0.0928 -0.0877  2.3338
  157SAPE  C21917552   3.869   0.543   8.879  0.5869  0.2767  0.3155
  157SAPE  H19R17553   3.964   0.485   8.881  1.4710  1.6876  2.2966
  157SAPE  H19S17554   3.894   0.651   8.887  0.4852  0.1801  2.4498
  157SAPE  C22017555   3.797   0.514   8.740  0.4124 -0.0295 -0.3622
  157SAPE  H20R17556   3.793   0.404   8.728  0.1932 -0.0311 -0.2698
  157SAPE  H20S17557   3.847   0.563   8.653 -1.9693  0.1613 -1.7080
  157SAPE  H20T17558   3.696   0.560   8.748  1.0224  1.0011  2.8501
  157SAPE   C3317559   4.193   1.681  10.046 -0.2119 -0.1937 -0.6580
  157SAPE   H3X17560   4.304   1.693  10.052 -0.3840  1.9638 -0.8602
  157SAPE   H3Y17561   4.155   1.749   9.967 -0.2504  1.3422  0.6206
  157SAPE   C3417562   4.144   1.541  10.017  0.1817  0.0467  0.1621
  157SAPE   H4X17563   4.034   1.539  10.030  0.1996 -0.0677  0.2958
  157SAPE   H4Y17564   4.194   1.472  10.088  0.5735  0.9190  0.7665
  157SAPE   C3517565   4.187   1.498   9.873 -0.6478  0.6918 -0.2612
  157SAPE   H5X17566   4.161   1.390   9.872  0.6251  0.3394  0.7319
  157SAPE   H5Y17567   4.298   1.498   9.861 -0.3475  2.0099  1.9738
  157SAPE   C3617568   4.124   1.577   9.762  0.2879  0.1878  0.3234
  157SAPE   H6X17569   4.169   1.678   9.748  1.8225 -0.4309  0.5519
  157SAPE   H6Y17570   4.017   1.589   9.787 -0.0233  0.6883 -1.1207
  157SAPE   C3717571   4.138   1.504   9.628 -0.4075  0.5155  0.5938
  157SAPE   H7X17572   4.065   1.420   9.627  0.8000 -0.5699 -0.5866
  157SAPE   H7Y17573   4.242   1.468   9.613 -0.6412  0.7225 -1.9801
  157SAPE   C3817574   4.102   1.601   9.512  0.7513  0.0804  0.6924
  157SAPE   H8X17575   4.174   1.685   9.508 -1.3535  1.9165 -0.2961
  157SAPE   H8Y17576   3.999   1.637   9.534 -0.0424 -2.1911  1.0057
  157SAPE   C3917577   4.101   1.542   9.368  0.1049  0.4140  0.3263
  157SAPE   H9X17578   4.035   1.453   9.360 -1.0533  1.3626 -1.3138
  157SAPE   H9Y17579   4.208   1.518   9.351 -0.1834 -0.5698 -0.1933
  157SAPE  C31017580   4.057   1.634   9.249 -0.4745  0.3550 -0.0371
  157SAPE  H10X17581   4.123   1.724   9.245  0.7992 -0.5721 -2.2417
  157SAPE  H10Y17582   3.957   1.676   9.272 -0.7449 -0.1301 -0.3223
  157SAPE  C31117583   4.065   1.575   9.103  0.4609  0.0877 -0.0453
  157SAPE  H11X17584   4.171   1.542   9.099  0.3892 -0.1762  0.2113
  157SAPE  H11Y17585   4.060   1.665   9.037  1.5723  1.8207  2.1156
  157SAPE  C31217586   3.974   1.453   9.075  0.4447 -0.1000 -0.3624
  157SAPE  H12X17587   3.868   1.483   9.086  0.4563 -0.0524 -0.3805
  157SAPE  H12Y17588   3.985   1.386   9.163 -0.7580  3.0396  2.3824
  157SAPE  C31317589   4.017   1.388   8.942  0.1466  0.2267  0.2320
  157SAPE  H13X17590   4.126   1.372   8.933  0.1624  1.4093 -2.6100
  157SAPE  H13Y17591   3.990   1.459   8.861 -0.3517  1.2475  1.2758
  157SAPE  C31417592   3.943   1.255   8.929 -0.3391  0.5147  0.3057
  157SAPE  H14X17593   3.833   1.273   8.937 -0.2200  1.0024  0.9033
  157SAPE  H14Y17594   3.961   1.187   9.015  2.3759 -0.2026 -0.7207
  157SAPE  C31517595   3.987   1.184   8.795 -0.5361 -0.7074  0.2094
  157SAPE  H15X17596   4.087   1.135   8.800 -0.9136 -2.1949 -3.5429
  157SAPE  H15Y17597   3.989   1.255   8.709  1.9940 -1.0034 -0.0642
  157SAPE  C31617598   3.896   1.067   8.750 -0.8481  0.1398 -0.2482
  157SAPE  H16X17599   3.802   1.120   8.723 -2.6154 -2.0761  1.2597
  157SAPE  H16Y17600   3.866   1.007   8.838  0.4302  0.7521  0.6306
  157SAPE  C31717601   3.953   0.982   8.632  0.5721 -0.0571 -0.6482
  157SAPE  H17X17602   4.004   1.051   8.561 -0.4944  0.6656 -0.7255
  157SAPE  H17Y17603   3.867   0.945   8.573 -0.0761 -1.1992  0.9409
  157SAPE  C31817604   4.060   0.875   8.653 -0.3087 -0.0960  0.2205
  157SAPE  H18X17605   4.032   0.794   8.723 -1.5566  0.9675  1.0111
  157SAPE  H18Y17606   4.157   0.922   8.680  1.1664 -2.2660 -1.0270
  157SAPE  H18Z17607   4.083   0.843   8.549 -4.1807  0.6432 -1.0398
  158SAPE     N17608   5.648   1.529  10.656  0.0435  0.1461  0.6323
  158SAPE   HN117609   5.689   1.620  10.628  0.0101  0.2546  0.9327
  158SAPE   HN217610   5.671   1.460  10.582 -3.5692  0.5161 -1.0686
  158SAPE   HN317611   5.544   1.534  10.654 -0.0005  4.3522  2.0312
  158SAPE   C1217612   5.703   1.478  10.783  0.7318  0.0947  0.1572
  158SAPE  H12A17613   5.651   1.383  10.807 -0.4848  0.1885 -1.8616
  158SAPE  H12B17614   5.664   1.542  10.865 -3.2892 -0.3341 -1.2101
  158SAPE   C1117615   5.858   1.457  10.788  1.0021 -0.9342  0.2268
  158SAPE  H11A17616   5.874   1.433  10.896 -0.2198 -1.5078  0.2990
  158SAPE  H11B17617   5.916   1.549  10.767  1.3344 -1.1341  0.2581
  158SAPE     P17618   5.997   1.241  10.766  0.0128  0.6254 -0.1712
  158SAPE   O1317619   6.123   1.299  10.798  0.0277  0.0389  0.0337
  158SAPE   O1417620   5.932   1.150  10.866 -0.1814  0.5761 -0.3201
  158SAPE   O1217621   5.904   1.351  10.712  0.2492 -0.0593  0.1354
  158SAPE   O1117622   6.026   1.168  10.632 -0.1024 -0.2463 -0.5707
  158SAPE    C117623   5.945   1.058  10.573 -0.2168 -0.1234 -0.2432
  158SAPE    HA17624   6.020   0.986  10.535 -0.9736 -1.0434 -0.0404
  158SAPE    HB17625   5.897   0.995  10.651  1.5394 -2.0003 -0.6040
  158SAPE    C217626   5.855   1.104  10.454 -0.3447  0.5139 -0.6046
  158SAPE    HS17627   5.759   1.146  10.491  1.0062  3.2936 -0.0112
  158SAPE   O2117628   5.826   0.992  10.372 -0.1400 -0.1629  0.5354
  158SAPE   C2117629   5.707   0.988  10.311  0.3136  0.3076 -0.7534
  158SAPE   O2217630   5.618   1.070  10.318 -0.6482 -0.5724  0.2713
  158SAPE   C2217631   5.718   0.874  10.210 -0.1032 -0.3361 -0.0816
  158SAPE   H2R17632   5.793   0.919  10.142  0.0971  2.0831  1.6301
  158SAPE   H2S17633   5.750   0.777  10.253  0.0928 -0.3212 -0.1936
  158SAPE    C317634   5.929   1.217  10.380 -0.6648 -0.4653 -0.0416
  158SAPE    HX17635   6.022   1.180  10.333 -0.6809 -1.0300  0.3638
  158SAPE    HY17636   5.954   1.298  10.451  0.2295 -1.7180  1.1204
  158SAPE   O3117637   5.851   1.277  10.280 -0.1702 -0.4721  0.3581
  158SAPE   C3117638   5.752   1.355  10.313 -0.5196 -0.7172 -0.6877
  158SAPE   O3217639   5.721   1.397  10.427 -0.2718 -0.0597  0.5493
  158SAPE   C3217640   5.656   1.378  10.194 -0.2668 -0.1625 -0.3746
  158SAPE   H2X17641   5.591   1.466  10.215 -1.2100 -1.4454  2.5171
  158SAPE   H2Y17642   5.590   1.289  10.193 -1.5118  0.6685  1.7786
  158SAPE   C2317643   5.588   0.858  10.136  0.6829  0.4824 -0.2963
  158SAPE   H3R17644   5.528   0.951  10.127 -3.2807 -1.8249  0.4355
  158SAPE   H3S17645   5.513   0.789  10.180  2.3420 -0.3805  1.3339
  158SAPE   C2417646   5.624   0.811   9.995 -0.0207 -0.9040 -0.2423
  158SAPE   H4R17647   5.660   0.706   9.991  0.6465 -0.7227  0.7140
  158SAPE   H4S17648   5.704   0.881   9.962 -1.0609  0.5745  0.2565
  158SAPE   C2517649   5.506   0.819   9.896  0.4080 -0.0908  0.1219
  158SAPE   H5R17650   5.430   0.893   9.925  1.2760  0.4469  1.1049
  158SAPE   C2617651   5.489   0.742   9.786  0.3758  0.4421  0.1541
  158SAPE   H6R17652   5.400   0.767   9.725  1.0632  2.0103 -0.2581
  158SAPE   C2717653   5.590   0.638   9.730  0.5868 -0.1580 -0.1196
  158SAPE   H7R17654   5.542   0.586   9.644 -0.0270 -1.0772  0.7490
  158SAPE   H7S17655   5.608   0.564   9.811  2.5502 -1.5194 -1.7031
  158SAPE   C2817656   5.727   0.691   9.693  0.0222 -0.2026  0.8197
  158SAPE   H8R17657   5.790   0.721   9.778  1.0489  0.2031 -0.0624
  158SAPE   C2917658   5.775   0.699   9.564  0.3118 -0.3978 -0.0205
  158SAPE   H9R17659   5.880   0.728   9.547 -0.0960  1.3901  0.2471
  158SAPE  C21017660   5.688   0.661   9.448  0.0837 -0.3099 -0.3679
  158SAPE  H10R17661   5.606   0.735   9.436 -2.0510 -2.1874  1.6340
  158SAPE  H10S17662   5.638   0.563   9.465 -1.0768  0.3577  0.2687
  158SAPE  C21117663   5.755   0.649   9.314 -0.4397  0.5215 -0.8664
  158SAPE  H11R17664   5.761   0.544   9.282 -1.7037 -0.9549  3.0830
  158SAPE  C21217665   5.808   0.750   9.237  0.0171  0.9770  0.8413
  158SAPE  H12R17666   5.874   0.727   9.152  1.4555 -0.1663  2.2208
  158SAPE  C21317667   5.817   0.894   9.274  0.5112 -0.8731  0.1058
  158SAPE  H13R17668   5.922   0.915   9.303  0.9614 -1.5537 -0.9459
  158SAPE  H13S17669   5.759   0.913   9.366 -0.5044 -3.2338  0.0371
  158SAPE  C21417670   5.785   0.999   9.166 -0.2285  0.0025  0.3595
  158SAPE  H14R17671   5.693   1.060   9.162  0.9408  1.7818 -1.8146
  158SAPE  C21517672   5.860   1.040   9.066 -0.1709  0.2591  0.0841
  158SAPE  H15R17673   5.814   1.126   9.014 -2.4820  0.5606  2.4059
  158SAPE  C21617674   5.998   1.008   9.022 -0.4850 -0.5888  0.4214
  158SAPE  H16R17675   6.002   0.937   8.936  1.5838 -1.9177  1.5276
  158SAPE  H16S17676   6.064   0.971   9.103  0.0130 -0.0864  0.2549
  158SAPE  C21717677   6.066   1.144   8.980 -0.3593  0.1747 -0.3577
  158SAPE  H17R17678   6.174   1.118   8.980 -0.5360 -0.7769  2.0091
  158SAPE  H17S17679   6.045   1.211   9.066  1.0877 -0.5869  0.6228
  158SAPE  C21817680   6.007   1.217   8.855 -0.8686 -0.7908  1.0104
  158SAPE  H18R17681   5.898   1.199   8.842 -0.8935  0.7425 -1.6857
  158SAPE  H18S17682   6.061   1.178   8.766  0.8949  2.0512  0.7391
  158SAPE  C21917683   6.031   1.373   8.866 -0.1161 -0.5140  1.4848
  158SAPE  H19R17684   6.139   1.383   8.889  0.5164  1.4543 -1.7122
  158SAPE  H19S17685   5.980   1.406   8.959 -0.9600 -0.7329  1.1123
  158SAPE  C22017686   5.981   1.446   8.748  0.1690  0.4027  0.0585
  158SAPE  H20R17687   5.976   1.557   8.756 -0.1608  0.3881  0.0899
  158SAPE  H20S17688   5.878   1.423   8.714  0.3758 -2.1513  0.9167
  158SAPE  H20T17689   6.035   1.416   8.656 -2.2536 -1.0934 -0.9875
  158SAPE   C3317690   5.732   1.394  10.057 -0.2628  0.4831 -0.4813
  158SAPE   H3X17691   5.841   1.404  10.078  0.1896 -1.7290 -1.4664
  158SAPE   H3Y17692   5.687   1.486  10.014  0.5409  0.7424 -0.7820
  158SAPE   C3417693   5.727   1.266   9.967  0.0808  0.3568  0.0992
  158SAPE   H4X17694   5.628   1.216   9.973  1.1202 -2.0717 -1.2678
  158SAPE   H4Y17695   5.801   1.193  10.007  1.5631  1.0429 -1.2675
  158SAPE   C3517696   5.773   1.299   9.823 -0.0689  0.1359 -0.7524
  158SAPE   H5X17697   5.865   1.360   9.828  2.2898 -3.2507  0.5795
  158SAPE   H5Y17698   5.698   1.364   9.772  1.0617  0.6078 -1.8446
  158SAPE   C3617699   5.825   1.173   9.760  0.6545 -0.2272  0.4406
  158SAPE   H6X17700   5.889   1.119   9.833  2.1600  2.4090  1.2119
  158SAPE   H6Y17701   5.892   1.201   9.675  1.2455 -1.7422  0.3806
  158SAPE   C3717702   5.716   1.070   9.717 -0.0036  0.0454  0.4884
  158SAPE   H7X17703   5.643   1.069   9.800 -2.1302 -0.7281 -1.3002
  158SAPE   H7Y17704   5.770   0.973   9.717  0.4857  0.3082  1.3784
  158SAPE   C3817705   5.647   1.109   9.594 -0.3952 -0.6306 -0.2120
  158SAPE   H8X17706   5.710   1.070   9.511  1.4450  0.2157  0.7336
  158SAPE   H8Y17707   5.637   1.219   9.583  2.0273 -0.2765  0.5512
  158SAPE   C3917708   5.503   1.051   9.578  0.2933 -0.2529 -0.1919
  158SAPE   H9X17709   5.447   1.069   9.672 -0.1697 -0.7397 -0.3734
  158SAPE   H9Y17710   5.494   0.940   9.578 -4.9339 -0.0667  0.2212
  158SAPE  C31017711   5.412   1.105   9.465  0.3435  0.2927 -0.6864
  158SAPE  H10X17712   5.397   1.215   9.467  1.1751  0.4624 -2.2803
  158SAPE  H10Y17713   5.315   1.056   9.489 -0.0022  1.7306  1.0507
  158SAPE  C31117714   5.461   1.053   9.329  0.1738  0.1905  0.3276
  158SAPE  H11X17715   5.448   0.943   9.323  0.1129  0.2167 -0.0895
  158SAPE  H11Y17716   5.568   1.079   9.319  0.0469  1.6268  2.1918
  158SAPE  C31217717   5.380   1.117   9.214  0.1074  0.0226 -1.2211
  158SAPE  H12X17718   5.394   1.228   9.217 -1.4075  0.2152  1.3420
  158SAPE  H12Y17719   5.272   1.097   9.228  0.0394  0.7397 -0.6429
  158SAPE  C31317720   5.420   1.066   9.070  0.5497  0.6655 -0.3130
  158SAPE  H13X17721   5.450   0.959   9.073 -3.0875 -0.5157 -0.9458
  158SAPE  H13Y17722   5.502   1.134   9.040  1.3264  0.7471  1.7914
  158SAPE  C31417723   5.308   1.078   8.971  1.4724 -0.4123  0.7736
  158SAPE  H14X17724   5.260   1.177   8.985 -0.9363 -1.0157 -2.1733
  158SAPE  H14Y17725   5.227   1.002   8.981 -1.1554  2.0269 -0.4441
  158SAPE  C31517726   5.339   1.077   8.821 -0.6616  0.8459 -0.2401
  158SAPE  H15X17727   5.380   0.975   8.804 -0.8712  0.8522 -0.8250
  158SAPE  H15Y17728   5.414   1.147   8.780  0.1975  0.2771  0.3313
  158SAPE  C31617729   5.211   1.100   8.728  0.0167  0.0045  0.7070
  158SAPE  H16X17730   5.186   1.208   8.737 -2.1747 -0.4928  1.1667
  158SAPE  H16Y17731   5.129   1.037   8.767 -0.1824 -0.5614 -0.5993
  158SAPE  C31717732   5.237   1.072   8.580  0.2277 -0.4945 -0.0760
  158SAPE  H17X17733   5.274   0.967   8.582  0.1380 -0.5175  1.2928
  158SAPE  H17Y17734   5.305   1.150   8.539  0.4857 -0.6286  0.0886
  158SAPE  C31817735   5.111   1.075   8.495 -0.1466  0.0543 -0.6794
  158SAPE  H18X17736   5.059   0.978   8.511  0.9792 -0.2241  1.6533
  158SAPE  H18Y17737   5.135   1.077   8.387 -0.5841 -0.4533 -0.7864
  158SAPE  H18Z17738   5.052   1.167   8.515  0.4691  0.5278 -0.9813
  159SAPE     N17739   2.136   6.037   6.086 -0.0529 -0.2410  0.3293
  159SAPE   HN117740   2.069   6.034   6.006  0.4099  0.3100 -0.0833
  159SAPE   HN217741   2.234   6.044   6.050 -0.2952 -0.1704 -0.3301
  159SAPE   HN317742   2.119   5.947   6.136 -2.3394 -0.9207 -1.4876
  159SAPE   C1217743   2.105   6.158   6.175 -0.3849  0.0608 -0.5792
  159SAPE  H12A17744   2.002   6.149   6.217  0.0041 -1.0513  0.1727
  159SAPE  H12B17745   2.104   6.246   6.107  0.5029  0.3305 -0.2539
  159SAPE   C1117746   2.213   6.176   6.284  0.3252 -0.2204  0.2294
  159SAPE  H11A17747   2.200   6.281   6.317  0.2925 -0.2471  0.3013
  159SAPE  H11B17748   2.310   6.156   6.232  0.4816 -2.5395  1.2962
  159SAPE     P17749   2.298   6.082   6.502  0.3324  0.1078 -0.4867
  159SAPE   O1317750   2.265   5.989   6.610 -0.6261  0.0620  0.0909
  159SAPE   O1417751   2.432   6.058   6.440 -0.4160 -0.0218  0.2675
  159SAPE   O1217752   2.199   6.084   6.387  0.3907 -0.8134  0.0552
  159SAPE   O1117753   2.292   6.230   6.561  0.0787 -0.3161  0.9541
  159SAPE    C117754   2.385   6.284   6.653 -0.5100  0.2719  0.2677
  159SAPE    HA17755   2.488   6.258   6.621  0.2982  2.2631  1.0762
  159SAPE    HB17756   2.385   6.395   6.660  2.6387  0.3952 -0.2782
  159SAPE    C217757   2.365   6.245   6.795 -0.1720  0.3797 -0.7314
  159SAPE    HS17758   2.351   6.135   6.803  0.4701  0.3401 -0.0736
  159SAPE   O2117759   2.251   6.313   6.846 -0.2231 -0.1010  0.7327
  159SAPE   C2117760   2.192   6.265   6.955  0.7374 -0.0222  0.4919
  159SAPE   O2217761   2.179   6.146   6.976 -0.1277 -0.3247 -0.4906
  159SAPE   C2217762   2.128   6.377   7.025  0.4441 -0.1554 -0.2038
  159SAPE   H2R17763   2.195   6.464   7.041 -1.8983  1.4421  1.8897
  159SAPE   H2S17764   2.039   6.404   6.963 -0.5277 -2.4929  0.0794
  159SAPE    C317765   2.490   6.284   6.869 -0.3339 -0.3640 -0.1955
  159SAPE    HX17766   2.516   6.391   6.861  1.1118 -0.6680  0.2389
  159SAPE    HY17767   2.580   6.229   6.835  0.3340 -0.7959  2.1417
  159SAPE   O3117768   2.480   6.254   7.009 -0.2240  0.1730  0.2459
  159SAPE   C3117769   2.599   6.240   7.087  0.7740 -0.5353  0.9323
  159SAPE   O3217770   2.710   6.261   7.041 -0.1114  0.3867 -0.4438
  159SAPE   C3217771   2.558   6.200   7.224 -0.5524  0.7802  0.6797
  159SAPE   H2X17772   2.526   6.094   7.230  1.0208  0.3260  1.8422
  159SAPE   H2Y17773   2.484   6.275   7.259 -1.5997  0.7338 -1.2893
  159SAPE   C2317774   2.079   6.339   7.169 -0.1802  0.4287  0.2437
  159SAPE   H3R17775   2.157   6.268   7.206 -1.6707 -0.9937  0.8001
  159SAPE   H3S17776   1.980   6.292   7.155 -0.2272  0.5291  0.2394
  159SAPE   C2417777   2.069   6.450   7.273 -0.3051  0.2901 -0.1109
  159SAPE   H4R17778   1.993   6.527   7.250 -1.3869 -1.3541 -2.4398
  159SAPE   H4S17779   2.167   6.500   7.258 -0.0789 -0.3887 -0.9487
  159SAPE   C2517780   2.035   6.395   7.409 -0.0157 -0.0715 -0.2897
  159SAPE   H5R17781   1.929   6.368   7.416 -0.4188  1.2160 -1.0883
  159SAPE   C2617782   2.119   6.368   7.513 -0.1597 -0.2901 -0.0446
  159SAPE   H6R17783   2.070   6.332   7.604 -1.1083  1.5705  0.2300
  159SAPE   C2717784   2.271   6.390   7.510 -0.4071  0.8678  0.3503
  159SAPE   H7R17785   2.313   6.359   7.412 -1.3256 -1.4916  0.6260
  159SAPE   H7S17786   2.318   6.322   7.584 -0.8189 -1.6375 -1.5340
  159SAPE   C2817787   2.294   6.537   7.532  0.2904 -0.1890  0.2934
  159SAPE   H8R17788   2.237   6.601   7.463  1.2223 -0.9954 -1.3007
  159SAPE   C2917789   2.358   6.595   7.638  0.1833  0.9674 -0.2576
  159SAPE   H9R17790   2.347   6.705   7.647  1.2105  0.9981  0.9624
  159SAPE  C21017791   2.410   6.513   7.757 -0.4033  0.4790  0.6804
  159SAPE  H10R17792   2.499   6.546   7.814 -1.1685  0.7650  1.7481
  159SAPE  H10S17793   2.440   6.414   7.718  2.6899  1.8402 -0.6825
  159SAPE  C21117794   2.307   6.481   7.859  0.2511  0.4299  0.7159
  159SAPE  H11R17795   2.236   6.399   7.841  1.2266 -0.1526 -0.6371
  159SAPE  C21217796   2.282   6.554   7.975 -0.2791  0.2760  0.0116
  159SAPE  H12R17797   2.219   6.505   8.050 -2.4991 -0.7279 -2.3256
  159SAPE  C21317798   2.365   6.674   8.005  0.6606  0.1288 -0.4683
  159SAPE  H13R17799   2.415   6.717   7.915 -3.5134  0.8218 -2.6847
  159SAPE  H13S17800   2.441   6.650   8.083 -0.1876  1.7880  0.9358
  159SAPE  C21417801   2.278   6.783   8.063 -0.0984  0.3715 -0.2891
  159SAPE  H14R17802   2.175   6.776   8.025 -0.6036  0.1558  1.0568
  159SAPE  C21517803   2.291   6.871   8.163 -0.9414  0.9250 -0.1511
  159SAPE  H15R17804   2.221   6.953   8.184 -0.1697  1.1960  1.5537
  159SAPE  C21617805   2.414   6.880   8.253  0.6718  0.1963  0.5926
  159SAPE  H16R17806   2.464   6.977   8.230  0.0930  0.6843  1.2959
  159SAPE  H16S17807   2.489   6.803   8.225  0.8744  0.8457 -0.7412
  159SAPE  C21717808   2.388   6.883   8.405  0.0582  0.4095 -0.1308
  159SAPE  H17R17809   2.328   6.793   8.434 -1.0318  1.5303  1.2557
  159SAPE  H17S17810   2.328   6.971   8.436  0.6521  1.1897 -1.1355
  159SAPE  C21817811   2.523   6.883   8.488  0.2619 -0.5115  0.2935
  159SAPE  H18R17812   2.576   6.978   8.464 -0.2857 -0.3546 -0.3137
  159SAPE  H18S17813   2.580   6.808   8.430  1.9724  1.5573 -0.8510
  159SAPE  C21917814   2.509   6.853   8.638  0.2574  1.1471  0.6739
  159SAPE  H19R17815   2.459   6.756   8.658  1.9980  0.3564  1.3346
  159SAPE  H19S17816   2.433   6.925   8.675 -1.6580 -0.8866  0.8657
  159SAPE  C22017817   2.640   6.864   8.712  0.2680  0.1469  0.8951
  159SAPE  H20R17818   2.699   6.956   8.694  1.2666 -0.3727  1.4584
  159SAPE  H20S17819   2.699   6.778   8.673  0.8532  1.3239 -0.9662
  159SAPE  H20T17820   2.634   6.863   8.822  1.8540 -1.4795  1.0270
  159SAPE   C3317821   2.672   6.210   7.333  0.4483 -0.2466 -0.3426
  159SAPE   H3X17822   2.741   6.295   7.313  0.9598 -1.0487 -2.2270
  159SAPE   H3Y17823   2.730   6.116   7.335  0.4784 -0.2435 -0.8957
  159SAPE   C3417824   2.619   6.233   7.479  0.3142  0.2861  1.0234
  159SAPE   H4X17825   2.522   6.180   7.486  0.3370  0.2242  0.8815
  159SAPE   H4Y17826   2.594   6.341   7.475  2.7543  0.8666 -1.8717
  159SAPE   C3517827   2.696   6.172   7.596 -0.8712  0.5763 -0.9296
  159SAPE   H5X17828   2.783   6.107   7.573  0.6335  1.2908  2.1958
  159SAPE   H5Y17829   2.629   6.116   7.665  1.7714 -2.1949 -0.4126
  159SAPE   C3617830   2.755   6.283   7.683 -0.1135 -0.2681  0.6622
  159SAPE   H6X17831   2.682   6.362   7.711  2.0881  2.2697 -0.3643
  159SAPE   H6Y17832   2.824   6.335   7.613 -2.1563  0.0757 -1.2084
  159SAPE   C3717833   2.832   6.234   7.804 -0.8200 -1.2204  0.5812
  159SAPE   H7X17834   2.926   6.192   7.762  0.1723 -0.9046  2.3554
  159SAPE   H7Y17835   2.795   6.140   7.850 -0.2583 -1.7986 -0.1316
  159SAPE   C3817836   2.860   6.345   7.908 -0.1572 -0.4039 -0.5217
  159SAPE   H8X17837   2.760   6.372   7.948  0.3323  1.4867 -0.4521
  159SAPE   H8Y17838   2.908   6.423   7.845 -1.9073  0.0533 -1.3537
  159SAPE   C3917839   2.966   6.293   8.016 -0.2755  0.2238 -0.2909
  159SAPE   H9X17840   3.057   6.265   7.957 -0.1734  1.8728 -0.9711
  159SAPE   H9Y17841   2.922   6.200   8.057  1.5962  0.3075  2.1113
  159SAPE  C31017842   2.990   6.375   8.136 -0.5514  0.2501 -0.3476
  159SAPE  H10X17843   2.887   6.399   8.171 -0.4080 -1.8922  1.7855
  159SAPE  H10Y17844   3.045   6.468   8.107  1.7202 -0.6836  0.7001
  159SAPE  C31117845   3.074   6.311   8.254 -0.0048 -0.3390  0.3127
  159SAPE  H11X17846   3.171   6.283   8.207  0.6065  3.3881 -1.0126
  159SAPE  H11Y17847   3.012   6.226   8.289 -0.9985 -1.1512 -3.0608
  159SAPE  C31217848   3.111   6.412   8.358 -0.0082  0.4429 -0.0848
  159SAPE  H12X17849   3.021   6.453   8.408 -1.8141 -0.3036 -2.5630
  159SAPE  H12Y17850   3.164   6.494   8.305 -0.8780  0.2694 -1.2369
  159SAPE  C31317851   3.226   6.353   8.445 -0.4483  0.6952 -0.8647
  159SAPE  H13X17852   3.323   6.338   8.391  0.4660 -1.5453  1.2126
  159SAPE  H13Y17853   3.198   6.252   8.480  0.2977  0.4525 -0.9372
  159SAPE  C31417854   3.258   6.441   8.572 -0.2009  0.2989 -0.2005
  159SAPE  H14X17855   3.169   6.465   8.633  0.3529 -0.6140  1.0096
  159SAPE  H14Y17856   3.300   6.536   8.533 -0.0835  0.0141 -0.7913
  159SAPE  C31517857   3.361   6.374   8.670 -0.2961 -0.0748 -0.3058
  159SAPE  H15X17858   3.362   6.440   8.759  1.0626  1.1734 -1.2015
  159SAPE  H15Y17859   3.459   6.369   8.617 -0.7307 -1.8874 -1.0162
  159SAPE  C31617860   3.323   6.231   8.723  0.0579 -0.0393 -0.1443
  159SAPE  H16X17861   3.310   6.161   8.638 -0.1612 -0.8361  0.5330
  159SAPE  H16Y17862   3.227   6.251   8.775  2.1145  1.6572  3.4258
  159SAPE  C31717863   3.434   6.181   8.813  0.6833  0.3283  0.3533
  159SAPE  H17X17864   3.447   6.252   8.898  0.2247  0.6591  0.1487
  159SAPE  H17Y17865   3.533   6.178   8.761  0.5182  0.8166  0.0066
  159SAPE  C31817866   3.403   6.044   8.871 -0.1154 -0.4055 -0.4267
  159SAPE  H18X17867   3.454   6.043   8.970 -2.1454 -1.9845  0.6744
  159SAPE  H18Y17868   3.440   5.956   8.813 -0.4005 -0.9742  0.2295
  159SAPE  H18Z17869   3.293   6.037   8.881 -0.2553  1.8528 -0.0358
  160SAPE     N17870   1.616   0.091   6.519 -0.0550 -0.2317  0.6553
  160SAPE   HN117871   1.614   0.191   6.491 -0.7228 -0.3967  0.0725
  160SAPE   HN217872   1.644   0.049   6.428 -1.5925  2.7923 -1.3690
  160SAPE   HN317873   1.525   0.052   6.551  0.0733 -0.3054  0.9380
  160SAPE   C1217874   1.723   0.074   6.627  0.5925 -0.2389  0.4351
  160SAPE  H12A17875   1.751  -0.033   6.634 -0.2124 -0.6270 -1.6674
  160SAPE  H12B17876   1.681   0.108   6.724 -0.0104  0.2155  0.0239
  160SAPE   C1117877   1.848   0.160   6.592 -0.2446  0.8555 -0.6603
  160SAPE  H11A17878   1.910   0.167   6.685 -1.2726 -0.6472  0.1753
  160SAPE  H11B17879   1.812   0.264   6.575  0.3311  0.7659 -2.6790
  160SAPE     P17880   2.067   0.113   6.455 -0.3241  0.2468  0.1047
  160SAPE   O1317881   2.099   0.044   6.332  0.2384  0.3704  0.0464
  160SAPE   O1417882   2.108   0.254   6.458  0.0033 -0.5123  0.2103
  160SAPE   O1217883   1.910   0.106   6.475 -0.4807 -0.3718  0.6964
  160SAPE   O1117884   2.130   0.041   6.577 -0.0087 -0.2685 -0.2700
  160SAPE    C117885   2.116  -0.102   6.605  0.3585 -0.8532 -0.2701
  160SAPE    HA17886   2.010  -0.132   6.594  0.7249 -2.0825 -0.6551
  160SAPE    HB17887   2.169  -0.150   6.519  0.1902  1.8485 -2.0035
  160SAPE    C217888   2.173  -0.135   6.745  0.0333  0.2459  0.0354
  160SAPE    HS17889   2.151  -0.244   6.745  1.8840 -0.1566 -0.2546
  160SAPE   O2117890   2.123  -0.052   6.850  0.0697  0.2956  0.7389
  160SAPE   C2117891   1.994  -0.064   6.879  0.2182  0.2096 -0.2390
  160SAPE   O2217892   1.923  -0.161   6.858  0.6517 -0.1993 -0.0118
  160SAPE   C2217893   1.946   0.046   6.972 -0.0241 -0.5101  0.0130
  160SAPE   H2R17894   2.021   0.091   7.039 -1.7492  2.6726  0.0138
  160SAPE   H2S17895   1.928   0.132   6.905  1.2931  1.0696  1.6062
  160SAPE    C317896   2.327  -0.106   6.735  0.3580 -0.3340  0.2144
  160SAPE    HX17897   2.335   0.004   6.722 -0.5264 -0.2228  0.4970
  160SAPE    HY17898   2.361  -0.154   6.640  0.1070  0.6113 -0.3705
  160SAPE   O3117899   2.394  -0.157   6.849 -0.1847  1.0343 -0.6397
  160SAPE   C3117900   2.458  -0.072   6.930  0.2050  0.9721  0.8964
  160SAPE   O3217901   2.485   0.044   6.911 -0.0106  0.3364  0.5302
  160SAPE   C3217902   2.490  -0.132   7.062 -0.0732 -0.1623 -0.1001
  160SAPE   H2X17903   2.537  -0.231   7.050 -1.1716 -0.9934  1.9024
  160SAPE   H2Y17904   2.391  -0.156   7.107  0.7264 -1.1245  1.2142
  160SAPE   C2317905   1.824   0.011   7.050  0.7243 -0.6642  0.0452
  160SAPE   H3R17906   1.831  -0.084   7.108  1.6287 -1.2839 -1.0506
  160SAPE   H3S17907   1.735   0.009   6.984 -0.7732 -2.6359  1.9593
  160SAPE   C2417908   1.787   0.122   7.146  0.0939  0.6195  0.5679
  160SAPE   H4R17909   1.769   0.218   7.093 -2.2450  0.9086  1.7512
  160SAPE   H4S17910   1.881   0.157   7.195  0.6143 -0.6130  0.4971
  160SAPE   C2517911   1.673   0.104   7.239  0.7474 -1.2222 -0.0683
  160SAPE   H5R17912   1.588   0.165   7.205  1.3868 -0.2146  0.0779
  160SAPE   C2617913   1.663   0.028   7.345 -0.3039  0.1144  0.1976
  160SAPE   H6R17914   1.562   0.022   7.388 -0.4846  1.5894  0.0349
  160SAPE   C2717915   1.765  -0.063   7.401  0.3551 -0.4182  0.1239
  160SAPE   H7R17916   1.763  -0.158   7.343 -0.9241 -0.3982  0.1141
  160SAPE   H7S17917   1.725  -0.093   7.500  1.7808 -2.4311  0.1498
  160SAPE   C2817918   1.913  -0.026   7.402  0.7062 -0.3847  0.9558
  160SAPE   H8R17919   1.959  -0.031   7.302  0.2238 -0.7315  0.7484
  160SAPE   C2917920   2.001   0.000   7.506  0.5049 -0.2907 -0.2820
  160SAPE   H9R17921   2.107   0.023   7.486  0.8457 -0.4909  1.1638
  160SAPE  C21017922   1.961   0.004   7.648  0.2521  0.8089  0.3174
  160SAPE  H10R17923   2.016  -0.075   7.703 -0.5052 -0.6454 -0.9533
  160SAPE  H10S17924   1.853  -0.013   7.665 -0.0919  0.7892 -1.6524
  160SAPE  C21117925   2.002   0.141   7.713 -0.6819 -0.1961  0.0812
  160SAPE  H11R17926   2.061   0.206   7.648 -0.2995 -1.2802 -0.6849
  160SAPE  C21217927   1.950   0.195   7.822 -0.5526 -0.0307  0.2718
  160SAPE  H12R17928   1.999   0.287   7.855 -0.5072 -0.3327  1.0646
  160SAPE  C21317929   1.846   0.128   7.909  0.4687 -0.2539 -0.0524
  160SAPE  H13R17930   1.746   0.100   7.868  0.8982 -1.8637 -0.0546
  160SAPE  H13S17931   1.809   0.206   7.979  1.3977 -0.9662  1.2726
  160SAPE  C21417932   1.898   0.014   7.998 -0.0357  0.0785 -0.0575
  160SAPE  H14R17933   1.910  -0.084   7.949  0.6207  0.2119 -0.1643
  160SAPE  C21517934   1.926   0.004   8.131 -0.1791  0.0913 -0.5790
  160SAPE  H15R17935   1.976  -0.086   8.171  1.8187  1.1318 -0.6155
  160SAPE  C21617936   1.899   0.123   8.228 -0.2819  0.0274  0.2002
  160SAPE  H16R17937   1.802   0.172   8.205 -0.2543 -1.2790 -3.1471
  160SAPE  H16S17938   1.979   0.200   8.222 -2.1077  1.9791 -0.2841
  160SAPE  C21717939   1.905   0.071   8.378  0.3781  0.3128  0.6501
  160SAPE  H17R17940   1.849  -0.024   8.383 -0.4122  0.8183  1.7313
  160SAPE  H17S17941   1.859   0.147   8.445 -2.0799  1.2063 -1.8378
  160SAPE  C21817942   2.053   0.048   8.417 -0.5200 -0.2227  0.1185
  160SAPE  H18R17943   2.123   0.122   8.372 -0.3391  0.4221  1.4261
  160SAPE  H18S17944   2.090  -0.051   8.382  3.8487  0.8699  0.9881
  160SAPE  C21917945   2.071   0.057   8.568 -0.1689  0.3906 -0.2679
  160SAPE  H19R17946   2.051   0.157   8.610  0.9028 -0.2222  1.8561
  160SAPE  H19S17947   2.178   0.035   8.588 -0.4478  0.4466  1.3574
  160SAPE  C22017948   1.996  -0.047   8.657 -0.2861 -0.3088 -0.1822
  160SAPE  H20R17949   1.888  -0.049   8.634  0.1038 -0.2191 -2.2124
  160SAPE  H20S17950   2.021  -0.033   8.764 -2.7646  0.8760  0.2994
  160SAPE  H20T17951   2.031  -0.150   8.632  1.0538  0.2888 -0.8976
  160SAPE   C3317952   2.568  -0.035   7.148 -0.5099 -0.0490  0.1441
  160SAPE   H3X17953   2.525   0.067   7.137 -0.7728 -0.0048  1.4535
  160SAPE   H3Y17954   2.672  -0.033   7.109 -0.2706 -1.5147  0.6575
  160SAPE   C3417955   2.574  -0.070   7.298 -0.2079  0.2642  0.0527
  160SAPE   H4X17956   2.601  -0.178   7.305 -0.2940  0.1782 -0.8558
  160SAPE   H4Y17957   2.478  -0.048   7.348  0.3987  0.8822  0.9745
  160SAPE   C3517958   2.686  -0.001   7.380 -0.6367  0.0702 -0.1503
  160SAPE   H5X17959   2.693   0.109   7.367  1.1244  0.0868  0.6330
  160SAPE   H5Y17960   2.783  -0.044   7.346 -1.0603 -1.2505  0.2606
  160SAPE   C3617961   2.666  -0.028   7.532 -0.0341  0.5521  1.1068
  160SAPE   H6X17962   2.633  -0.134   7.544 -1.4438  0.6594 -1.1268
  160SAPE   H6Y17963   2.579   0.029   7.570 -0.6772  0.3114  0.0535
  160SAPE   C3717964   2.786   0.007   7.623 -0.0374 -0.5800  0.3109
  160SAPE   H7X17965   2.816   0.113   7.612  2.9366 -1.0159  2.9143
  160SAPE   H7Y17966   2.879  -0.044   7.590  1.3741  1.5614  0.7832
  160SAPE   C3817967   2.767  -0.033   7.771 -0.3867  0.5589 -0.1729
  160SAPE   H8X17968   2.757  -0.143   7.780 -1.5384  0.6503 -0.2185
  160SAPE   H8Y17969   2.678   0.007   7.824 -0.7704 -0.0567 -0.3378
  160SAPE   C3917970   2.893  -0.014   7.862  0.1773  0.3299  0.7965
  160SAPE   H9X17971   2.954   0.079   7.849  2.6217 -1.4011 -1.1612
  160SAPE   H9Y17972   2.966  -0.090   7.826 -1.9278 -1.7130  0.6782
  160SAPE  C31017973   2.874  -0.048   8.004 -0.4377  1.0342  0.5963
  160SAPE  H10X17974   2.977  -0.065   8.043 -0.2133 -2.0687 -1.0003
  160SAPE  H10Y17975   2.811  -0.136   8.031 -0.0274  1.3125  2.6547
  160SAPE  C31117976   2.828   0.079   8.080 -0.0516 -1.1612  0.4400
  160SAPE  H11X17977   2.723   0.098   8.048 -0.4061 -3.3766  0.0958
  160SAPE  H11Y17978   2.889   0.162   8.041  2.5246 -1.6406  3.1032
  160SAPE  C31217979   2.817   0.065   8.230  0.0906  0.5005  0.0729
  160SAPE  H12X17980   2.756  -0.020   8.267  0.3663 -2.0414 -4.5797
  160SAPE  H12Y17981   2.785   0.165   8.266  0.8525  0.8603 -0.2211
  160SAPE  C31317982   2.946   0.053   8.294 -0.0305  1.0894 -0.0138
  160SAPE  H13X17983   3.021   0.111   8.236  1.6438 -0.2786  0.6901
  160SAPE  H13Y17984   2.976  -0.053   8.288 -0.6568  0.9975 -2.2079
  160SAPE  C31417985   2.945   0.103   8.442 -0.2806 -0.5032  0.0319
  160SAPE  H14X17986   2.849   0.055   8.471 -2.5114  3.4763 -0.0741
  160SAPE  H14Y17987   2.948   0.214   8.445  2.1777 -0.4319 -1.8294
  160SAPE  C31517988   3.067   0.052   8.520  0.2765 -0.7693  0.1332
  160SAPE  H15X17989   3.151   0.115   8.483  0.3461 -2.4727 -2.9659
  160SAPE  H15Y17990   3.099  -0.051   8.494 -0.1515 -0.8902  0.0807
  160SAPE  C31617991   3.045   0.064   8.674  0.0255  0.2755  0.4981
  160SAPE  H16X17992   2.942   0.038   8.707  0.1572 -1.6865 -0.4821
  160SAPE  H16Y17993   3.068   0.171   8.692  1.1040  0.2035 -0.3178
  160SAPE  C31717994   3.149  -0.012   8.754 -0.0261 -0.0808  0.0762
  160SAPE  H17X17995   3.257  -0.000   8.731  0.1820 -2.5061 -0.3843
  160SAPE  H17Y17996   3.126  -0.120   8.758  2.0558 -0.5461  2.6352
  160SAPE  C31817997   3.146   0.039   8.896 -0.5139 -0.1539 -0.2127
  160SAPE  H18X17998   3.147   0.150   8.905  1.2143 -0.0824 -1.1007
  160SAPE  H18Y17999   3.219  -0.001   8.969 -0.7469 -0.8046 -0.3288
  160SAPE  H18Z18000   3.046   0.005   8.930 -0.6986  0.9939  0.4584
  161SAPE     N18001   5.236   5.142   6.405  0.1876  0.0042 -0.7749
  161SAPE   HN118002   5.329   5.150   6.360 -1.0292  0.0076 -3.4912
  161SAPE   HN218003   5.166   5.205   6.361 -0.6402  1.7984  2.7308
  161SAPE   HN318004   5.239   5.186   6.499 -2.2862 -0.7757 -0.2678
  161SAPE   C1218005   5.169   5.006   6.407 -0.2994  0.3200 -0.0203
  161SAPE  H12A18006   5.216   4.942   6.329 -0.2388 -1.3612  1.3362
  161SAPE  H12B18007   5.059   5.011   6.396 -0.2720 -1.5613 -1.9856
  161SAPE   C1118008   5.206   4.925   6.537 -0.3500  0.0884 -0.0514
  161SAPE  H11A18009   5.148   4.830   6.545  1.6240 -1.3151 -1.3781
  161SAPE  H11B18010   5.181   4.989   6.623 -2.3144 -0.0496 -0.4679
  161SAPE     P18011   5.413   4.773   6.495 -0.0046  0.2025 -0.0088
  161SAPE   O1318012   5.381   4.749   6.352 -0.7764  0.3997  0.2616
  161SAPE   O1418013   5.557   4.769   6.530  0.7848  0.9619 -0.3424
  161SAPE   O1218014   5.351   4.911   6.532  0.1805  0.1472  0.1873
  161SAPE   O1118015   5.334   4.673   6.595  0.5859 -0.2730  0.2042
  161SAPE    C118016   5.338   4.697   6.735  0.2003  0.0818  0.1927
  161SAPE    HA18017   5.406   4.779   6.766 -0.0608  0.5159 -0.3663
  161SAPE    HB18018   5.238   4.722   6.778  0.2092 -0.8474  0.7978
  161SAPE    C218019   5.387   4.567   6.805 -0.7512 -0.8763  0.7415
  161SAPE    HS18020   5.364   4.477   6.744  2.9664 -2.3066  1.1985
  161SAPE   O2118021   5.343   4.550   6.941  0.3315  0.0385 -0.4534
  161SAPE   C2118022   5.226   4.498   6.944  0.5573  0.6468 -0.3381
  161SAPE   O2218023   5.151   4.475   6.852  0.2279 -0.1619  0.0130
  161SAPE   C2218024   5.192   4.451   7.089  0.1666 -0.2556  0.8406
  161SAPE   H2R18025   5.253   4.511   7.160  3.3533  0.1506 -1.9678
  161SAPE   H2S18026   5.087   4.482   7.111  0.5347  1.8673 -0.1441
  161SAPE    C318027   5.544   4.562   6.801  0.0467 -0.2816  0.2683
  161SAPE    HX18028   5.563   4.588   6.695 -1.0609  1.3706  0.4357
  161SAPE    HY18029   5.579   4.462   6.833  0.2404  0.3982  2.3726
  161SAPE   O3118030   5.608   4.660   6.888  0.4642  0.2671  0.5745
  161SAPE   C3118031   5.740   4.652   6.907 -0.0050  0.0660 -0.3265
  161SAPE   O3218032   5.813   4.564   6.865  0.2102  0.1228  0.1822
  161SAPE   C3218033   5.794   4.769   6.985 -0.3090 -0.0914 -0.7771
  161SAPE   H2X18034   5.821   4.844   6.908  0.8338  0.6667  0.3354
  161SAPE   H2Y18035   5.891   4.729   7.020 -0.6272  0.0489  0.2736
  161SAPE   C2318036   5.232   4.300   7.104 -0.0406 -0.0148 -0.0475
  161SAPE   H3R18037   5.340   4.314   7.128  0.5507 -0.7571 -2.0365
  161SAPE   H3S18038   5.216   4.234   7.015  0.7932 -0.1457 -0.1077
  161SAPE   C2418039   5.160   4.242   7.226 -0.8631  0.4062 -0.3897
  161SAPE   H4R18040   5.059   4.210   7.192 -0.1213 -1.0528 -1.3191
  161SAPE   H4S18041   5.154   4.314   7.311 -0.0799  0.3693 -0.3019
  161SAPE   C2518042   5.240   4.124   7.275 -0.3806 -0.1342  0.3692
  161SAPE   H5R18043   5.294   4.067   7.198 -1.9995  0.3000 -1.1465
  161SAPE   C2618044   5.275   4.098   7.407  0.6836  0.1157  0.4656
  161SAPE   H6R18045   5.351   4.020   7.421 -0.0696 -0.3764  2.0043
  161SAPE   C2718046   5.230   4.155   7.537  0.9707  0.2084  0.5716
  161SAPE   H7R18047   5.256   4.263   7.539  0.3049  0.3755  2.9929
  161SAPE   H7S18048   5.298   4.108   7.611  1.4201 -0.6056 -0.3266
  161SAPE   C2818049   5.085   4.137   7.574  0.8838  0.3202  0.3320
  161SAPE   H8R18050   5.019   4.095   7.496  0.2660  3.5465 -1.0388
  161SAPE   C2918051   5.039   4.152   7.701  0.4892 -0.3407  0.9967
  161SAPE   H9R18052   4.932   4.136   7.721  0.6373 -1.2208  1.1180
  161SAPE  C21018053   5.126   4.207   7.813  0.8441  0.3003 -0.5237
  161SAPE  H10R18054   5.183   4.296   7.779 -1.0030  1.9704  0.4769
  161SAPE  H10S18055   5.201   4.130   7.841  1.7494  1.5215  0.5786
  161SAPE  C21118056   5.051   4.243   7.941  0.1849 -0.2037  0.0733
  161SAPE  H11R18057   5.006   4.343   7.942 -1.3584 -0.8623  1.4767
  161SAPE  C21218058   5.029   4.165   8.048 -0.5288  0.5588 -0.0872
  161SAPE  H12R18059   4.991   4.214   8.140  1.7773  1.5838  0.3744
  161SAPE  C21318060   5.081   4.025   8.066 -0.3249  0.2479 -0.1525
  161SAPE  H13R18061   5.189   4.026   8.093 -0.5231 -3.0990  1.2762
  161SAPE  H13S18062   5.077   3.967   7.971  0.5364 -0.2138  0.0817
  161SAPE  C21418063   5.018   3.940   8.179 -0.1286 -0.3673  0.7911
  161SAPE  H14R18064   5.082   3.905   8.261 -0.6471 -2.7647  0.2596
  161SAPE  C21518065   4.891   3.896   8.167 -0.3862 -0.3397 -0.8440
  161SAPE  H15R18066   4.859   3.825   8.244 -0.0332  1.9399  1.5639
  161SAPE  C21618067   4.802   3.913   8.050 -0.5960  0.7272 -0.1060
  161SAPE  H16R18068   4.772   3.812   8.015  0.1949 -0.2293  1.8460
  161SAPE  H16S18069   4.847   3.972   7.967  1.6218  1.0368  1.2538
  161SAPE  C21718070   4.673   3.986   8.093 -0.6760  0.0853 -0.3324
  161SAPE  H17R18071   4.629   4.035   8.004  1.0033  0.6632 -0.8779
  161SAPE  H17S18072   4.699   4.069   8.161  2.2984 -0.2261 -0.9472
  161SAPE  C21818073   4.579   3.894   8.177  0.4273 -0.3166  0.6502
  161SAPE  H18R18074   4.620   3.854   8.272 -0.5301 -0.6251  0.9452
  161SAPE  H18S18075   4.553   3.816   8.102  0.8115  1.7663 -1.7841
  161SAPE  C21918076   4.434   3.948   8.206  1.4469 -0.6053 -0.1143
  161SAPE  H19R18077   4.349   3.879   8.221 -0.4429  1.7386  0.4303
  161SAPE  H19S18078   4.407   4.019   8.124  2.3083  1.2969  1.1797
  161SAPE  C22018079   4.430   4.026   8.336  0.1267 -0.1290 -0.1581
  161SAPE  H20R18080   4.330   4.075   8.338  0.7172  1.2145 -1.5282
  161SAPE  H20S18081   4.492   4.118   8.341  0.9244 -0.6237 -0.8114
  161SAPE  H20T18082   4.434   3.965   8.429 -3.3640  0.4877  0.5362
  161SAPE   C3318083   5.707   4.835   7.094  0.2964  0.5296 -0.1068
  161SAPE   H3X18084   5.601   4.844   7.063  0.1743 -2.2933 -0.7857
  161SAPE   H3Y18085   5.751   4.935   7.112 -1.3469  1.5065 -1.2833
  161SAPE   C3418086   5.706   4.752   7.222  1.0889  0.0022  0.4958
  161SAPE   H4X18087   5.808   4.709   7.234  2.2708  2.2642 -0.8235
  161SAPE   H4Y18088   5.635   4.672   7.193  1.0792  0.5150 -0.9319
  161SAPE   C3518089   5.657   4.820   7.350 -0.0135 -0.2580  0.4857
  161SAPE   H5X18090   5.555   4.863   7.335 -0.1386 -1.0663 -1.2732
  161SAPE   H5Y18091   5.729   4.904   7.355 -0.4546  0.3160 -1.7638
  161SAPE   C3618092   5.668   4.729   7.475 -0.2116 -0.6780  0.4545
  161SAPE   H6X18093   5.772   4.689   7.463 -0.2815 -0.4661 -1.0589
  161SAPE   H6Y18094   5.606   4.640   7.449 -2.6083  1.1725 -0.4603
  161SAPE   C3718095   5.638   4.801   7.606 -0.1556 -0.2417 -0.0758
  161SAPE   H7X18096   5.529   4.821   7.605 -0.4037 -1.5444 -1.1406
  161SAPE   H7Y18097   5.703   4.891   7.612 -0.9848  0.3626 -0.0283
  161SAPE   C3818098   5.652   4.721   7.740 -0.1442  0.3959 -0.2947
  161SAPE   H8X18099   5.753   4.676   7.751  0.4464  1.4192 -1.3297
  161SAPE   H8Y18100   5.579   4.638   7.727 -0.8144  0.9259  0.0178
  161SAPE   C3918101   5.602   4.808   7.855 -0.6335  0.9429 -0.0389
  161SAPE   H9X18102   5.495   4.790   7.878  0.1823 -3.1239  1.3591
  161SAPE   H9Y18103   5.610   4.918   7.841 -0.4254  0.7800 -1.3201
  161SAPE  C31018104   5.686   4.773   7.971 -0.4145 -0.0731  0.1340
  161SAPE  H10X18105   5.653   4.846   8.049 -0.8841  0.4357 -0.5337
  161SAPE  H10Y18106   5.795   4.789   7.953 -0.4769 -0.4023 -0.5464
  161SAPE  C31118107   5.666   4.624   8.006  0.3222  0.5893 -0.0976
  161SAPE  H11X18108   5.698   4.555   7.925  4.1347  0.0893  1.5881
  161SAPE  H11Y18109   5.565   4.602   8.045  1.1579 -2.9876  0.3951
  161SAPE  C31218110   5.763   4.596   8.126  0.2919  0.0741 -0.0215
  161SAPE  H12X18111   5.745   4.668   8.208 -0.4885 -0.6457  0.4496
  161SAPE  H12Y18112   5.870   4.590   8.096  0.8283 -0.0496  1.8045
  161SAPE  C31318113   5.735   4.464   8.184  0.4290 -0.2761  0.5421
  161SAPE  H13X18114   5.762   4.400   8.097 -1.8837  0.8642 -1.1214
  161SAPE  H13Y18115   5.629   4.434   8.199 -0.0561  1.0653 -0.0954
  161SAPE  C31418116   5.821   4.451   8.314  0.1800 -0.4867 -0.0099
  161SAPE  H14X18117   5.774   4.498   8.403 -0.8948 -3.0839  0.8856
  161SAPE  H14Y18118   5.919   4.498   8.294  0.3456 -0.7055  0.2727
  161SAPE  C31518119   5.859   4.310   8.346 -0.3018 -0.2041 -1.0976
  161SAPE  H15X18120   5.963   4.289   8.313  0.8153  0.3695  1.7629
  161SAPE  H15Y18121   5.786   4.242   8.297 -0.8755 -2.3619  2.3769
  161SAPE  C31618122   5.852   4.279   8.499  0.4348 -0.3419  0.4291
  161SAPE  H16X18123   5.758   4.315   8.545 -1.1219  1.7197 -3.7894
  161SAPE  H16Y18124   5.926   4.352   8.538  2.7436 -1.5789 -1.3451
  161SAPE  C31718125   5.917   4.143   8.533 -0.6927  0.1392 -0.0512
  161SAPE  H17X18126   6.013   4.128   8.478 -0.9275 -1.0885 -0.1479
  161SAPE  H17Y18127   5.856   4.059   8.493  0.9225 -0.2946 -1.7197
  161SAPE  C31818128   5.961   4.123   8.682 -0.1146 -0.6215  0.0060
  161SAPE  H18X18129   6.065   4.152   8.710  0.2000 -1.1635 -0.5710
  161SAPE  H18Y18130   5.949   4.018   8.715 -0.6912  0.6456  4.6092
  161SAPE  H18Z18131   5.894   4.170   8.757 -0.8860  0.5117 -1.3395
  162SAPE     N18132   2.883   5.441   6.695 -0.0945  0.5655 -0.1626
  162SAPE   HN118133   2.793   5.451   6.645  0.3782 -0.9805 -1.4073
  162SAPE   HN218134   2.954   5.390   6.639 -0.5990 -0.0822 -0.2194
  162SAPE   HN318135   2.842   5.392   6.777 -0.5480  1.0732 -0.0779
  162SAPE   C1218136   2.921   5.578   6.743  0.4305 -0.3496  0.0755
  162SAPE  H12A18137   3.029   5.592   6.721  1.0951 -0.3623  3.0081
  162SAPE  H12B18138   2.905   5.584   6.853  1.5876  2.9279  0.1948
  162SAPE   C1118139   2.836   5.692   6.678  0.4635 -0.0055  0.9019
  162SAPE  H11A18140   2.872   5.788   6.721  1.9039 -0.6884  1.2943
  162SAPE  H11B18141   2.727   5.689   6.695 -0.0726 -0.4935 -2.0145
  162SAPE     P18142   2.980   5.744   6.467 -0.1285  0.3566 -0.0006
  162SAPE   O1318143   3.085   5.638   6.483 -0.1234  0.8446 -0.0190
  162SAPE   O1418144   2.941   5.770   6.327  0.2071 -0.3333 -0.7808
  162SAPE   O1218145   2.852   5.685   6.537  0.4516 -0.1547 -0.1423
  162SAPE   O1118146   3.016   5.869   6.563 -0.1229 -0.6105  0.3268
  162SAPE    C118147   3.153   5.905   6.590 -0.3944  0.1299  0.3244
  162SAPE    HA18148   3.222   5.842   6.529 -1.4562  0.3570 -1.1709
  162SAPE    HB18149   3.166   6.007   6.548  0.6609 -1.0747 -2.5486
  162SAPE    C218150   3.184   5.903   6.738 -0.5179 -0.0945 -0.0359
  162SAPE    HS18151   3.180   5.794   6.759 -0.4129 -0.3281 -1.1520
  162SAPE   O2118152   3.077   5.971   6.804 -1.0146 -0.5199  1.1488
  162SAPE   C2118153   3.046   5.922   6.922 -0.2506  0.4420  0.3413
  162SAPE   O2218154   3.080   5.816   6.976 -0.2598  0.1610  0.0369
  162SAPE   C2218155   2.954   6.015   6.993 -0.4981 -0.0122 -0.6941
  162SAPE   H2R18156   2.893   6.074   6.922  0.1204  1.4415 -0.0733
  162SAPE   H2S18157   2.893   5.959   7.067  2.8052 -0.4998  1.9512
  162SAPE    C318158   3.328   5.956   6.781  0.3272 -0.0982  0.3572
  162SAPE    HX18159   3.329   6.066   6.765 -0.2313 -0.1809 -0.3217
  162SAPE    HY18160   3.405   5.913   6.713  0.6400  0.7185  0.1750
  162SAPE   O3118161   3.351   5.929   6.923  0.6978  0.4362  0.5132
  162SAPE   C3118162   3.409   5.803   6.943 -0.0100 -0.6252  0.1709
  162SAPE   O3218163   3.433   5.722   6.854  0.2146  0.0894  0.2778
  162SAPE   C3218164   3.444   5.780   7.087 -0.1168  1.0641 -0.8224
  162SAPE   H2X18165   3.345   5.761   7.134 -0.6084  2.7428 -1.0967
  162SAPE   H2Y18166   3.493   5.870   7.129 -1.1730  1.2367  0.1234
  162SAPE   C2318167   3.014   6.106   7.089 -0.3230 -0.2775 -0.4990
  162SAPE   H3R18168   2.941   6.167   7.147  0.9483  1.9405 -1.1596
  162SAPE   H3S18169   3.077   6.183   7.041  0.5040 -0.9515 -0.5139
  162SAPE   C2418170   3.103   6.033   7.190  0.5043 -0.3745 -0.1723
  162SAPE   H4R18171   3.203   6.019   7.144 -0.1567  1.8189 -2.4885
  162SAPE   H4S18172   3.060   5.935   7.222  0.0520  0.4012  1.7395
  162SAPE   C2518173   3.124   6.121   7.311  0.1998 -0.0423  0.1544
  162SAPE   H5R18174   3.032   6.173   7.341  0.2898 -0.5246  1.2874
  162SAPE   C2618175   3.232   6.140   7.398  1.2488 -0.1993 -0.5823
  162SAPE   H6R18176   3.229   6.217   7.476 -0.6007 -0.3053 -0.5035
  162SAPE   C2718177   3.374   6.084   7.381 -0.6129  0.3254  0.0047
  162SAPE   H7R18178   3.374   6.018   7.292 -1.0640 -0.9863  0.9314
  162SAPE   H7S18179   3.403   6.012   7.461  3.0163  0.1689 -1.3049
  162SAPE   C2818180   3.479   6.188   7.376  0.2887 -0.2447 -0.1425
  162SAPE   H8R18181   3.478   6.247   7.283 -0.0870 -1.3162 -0.8411
  162SAPE   C2918182   3.568   6.211   7.476 -0.1893  0.3986  0.4495
  162SAPE   H9R18183   3.639   6.291   7.448 -0.3969 -0.1366 -1.8183
  162SAPE  C21018184   3.603   6.136   7.602 -0.3868 -0.4312  0.7266
  162SAPE  H10R18185   3.698   6.083   7.581 -0.1855 -0.2629  1.1785
  162SAPE  H10S18186   3.525   6.059   7.620 -2.4060  1.4753  0.6288
  162SAPE  C21118187   3.593   6.217   7.726  0.6514 -0.6030 -0.3658
  162SAPE  H11R18188   3.669   6.295   7.744 -0.5782  0.2241  1.5813
  162SAPE  C21218189   3.488   6.216   7.815  0.4581 -0.3454  0.1959
  162SAPE  H12R18190   3.504   6.270   7.910  0.2975  1.1275 -0.5822
  162SAPE  C21318191   3.366   6.123   7.818 -0.1346  0.4898  0.5624
  162SAPE  H13R18192   3.385   6.021   7.778 -0.9478  0.7998 -0.6606
  162SAPE  H13S18193   3.295   6.164   7.743  2.0081  0.6018 -1.5219
  162SAPE  C21418194   3.305   6.108   7.955 -0.0589  0.6198 -0.0885
  162SAPE  H14R18195   3.196   6.121   7.954 -0.1543 -0.0480 -1.2696
  162SAPE  C21518196   3.360   6.070   8.075  0.3194  0.9786 -0.3021
  162SAPE  H15R18197   3.296   6.058   8.163 -1.2871 -0.5823 -1.5979
  162SAPE  C21618198   3.502   6.020   8.086 -0.5182  0.3598 -0.6523
  162SAPE  H16R18199   3.540   5.982   7.989 -1.9311  0.9267 -1.4471
  162SAPE  H16S18200   3.501   5.929   8.151 -0.4240 -0.8722 -2.3117
  162SAPE  C21718201   3.609   6.108   8.155 -0.3451 -0.7217  0.3534
  162SAPE  H17R18202   3.615   6.208   8.108 -0.5038 -1.2999 -0.9252
  162SAPE  H17S18203   3.702   6.062   8.116 -1.1669 -3.1042  1.0431
  162SAPE  C21818204   3.611   6.114   8.307  0.7272 -0.0634  0.0098
  162SAPE  H18R18205   3.631   6.012   8.345  1.3882 -0.1135 -0.4523
  162SAPE  H18S18206   3.510   6.138   8.347  0.9234 -0.0293  0.4922
  162SAPE  C21918207   3.699   6.219   8.377  0.4050  0.0627  0.2080
  162SAPE  H19R18208   3.676   6.202   8.484  1.7037 -1.2260  0.3092
  162SAPE  H19S18209   3.666   6.322   8.350  1.3639  0.7033  1.4148
  162SAPE  C22018210   3.848   6.214   8.353  0.9135 -0.1316 -0.0604
  162SAPE  H20R18211   3.889   6.111   8.337  2.8968  0.5580  0.2440
  162SAPE  H20S18212   3.907   6.246   8.441 -1.0849 -1.9775  2.0756
  162SAPE  H20T18213   3.866   6.280   8.265  0.0292  0.1458 -0.0378
  162SAPE   C3318214   3.547   5.665   7.118  0.6950  0.7948 -0.6279
  162SAPE   H3X18215   3.632   5.682   7.048  0.5424 -0.9970 -1.2936
  162SAPE   H3Y18216   3.509   5.562   7.104  0.7827  0.5054  1.0547
  162SAPE   C3418217   3.616   5.689   7.257 -0.8907  0.7275 -0.6647
  162SAPE   H4X18218   3.663   5.790   7.262  0.3496  0.1302  0.1370
  162SAPE   H4Y18219   3.693   5.611   7.273 -3.9476 -2.1536  1.3966
  162SAPE   C3518220   3.522   5.675   7.384  0.2775 -0.0555 -0.4215
  162SAPE   H5X18221   3.475   5.575   7.377  2.4742 -1.0663 -1.8336
  162SAPE   H5Y18222   3.447   5.756   7.367  1.5491  1.1572 -0.5105
  162SAPE   C3618223   3.593   5.696   7.526  0.0977  0.3154 -0.1743
  162SAPE   H6X18224   3.637   5.798   7.515  0.1616  0.0561 -3.1530
  162SAPE   H6Y18225   3.680   5.627   7.535 -0.2962 -0.0197  1.3800
  162SAPE   C3718226   3.503   5.669   7.650 -0.2215  0.2465  0.3841
  162SAPE   H7X18227   3.497   5.558   7.654  0.3135  0.1630 -0.6857
  162SAPE   H7Y18228   3.402   5.708   7.627 -0.0227 -0.2261 -1.4791
  162SAPE   C3818229   3.558   5.724   7.777 -0.0038 -0.0496  0.0297
  162SAPE   H8X18230   3.492   5.707   7.865 -1.7727  3.2709 -0.4772
  162SAPE   H8Y18231   3.570   5.830   7.746 -0.4662 -0.3132 -1.0837
  162SAPE   C3918232   3.702   5.680   7.817 -0.0602  0.7991  0.2469
  162SAPE   H9X18233   3.764   5.666   7.727 -0.1735 -1.6941  0.4754
  162SAPE   H9Y18234   3.686   5.577   7.856  1.2236 -0.1895 -1.7120
  162SAPE  C31018235   3.756   5.782   7.920  0.0579 -0.8976  0.7949
  162SAPE  H10X18236   3.657   5.817   7.953 -1.9101 -0.8428 -4.2767
  162SAPE  H10Y18237   3.814   5.867   7.878  0.5561 -0.3292  2.5420
  162SAPE  C31118238   3.836   5.729   8.037 -0.1725  0.1755  0.6814
  162SAPE  H11X18239   3.941   5.711   8.006 -0.1364 -0.0268  0.9126
  162SAPE  H11Y18240   3.785   5.634   8.067 -0.3768  0.5791  1.6352
  162SAPE  C31218241   3.845   5.809   8.172  0.4943  0.0468 -0.6447
  162SAPE  H12X18242   3.747   5.840   8.215  1.1308  0.3681  0.6069
  162SAPE  H12Y18243   3.896   5.905   8.148  1.9930  0.0710  2.2575
  162SAPE  C31318244   3.920   5.727   8.283  0.1105 -0.4259 -0.0329
  162SAPE  H13X18245   3.951   5.799   8.362 -0.5178  1.0107 -1.0388
  162SAPE  H13Y18246   4.007   5.685   8.229 -0.6057 -1.7870 -0.1869
  162SAPE  C31418247   3.824   5.630   8.346  0.0741  0.3730 -0.4632
  162SAPE  H14X18248   3.816   5.542   8.280  1.8810 -0.4590  0.3630
  162SAPE  H14Y18249   3.720   5.666   8.362  0.2722  0.6918  0.1706
  162SAPE  C31518250   3.873   5.573   8.474 -1.0675 -0.2314 -0.5309
  162SAPE  H15X18251   3.884   5.653   8.550  0.2817  0.2623 -1.2156
  162SAPE  H15Y18252   3.980   5.546   8.459 -0.6090  0.4894  1.1774
  162SAPE  C31618253   3.798   5.461   8.539  0.2776 -0.0987  0.2571
  162SAPE  H16X18254   3.693   5.487   8.567  0.3646 -2.0464  2.7146
  162SAPE  H16Y18255   3.848   5.441   8.636  1.2414  0.8284 -0.0297
  162SAPE  C31718256   3.789   5.336   8.451 -0.3546 -0.4026 -0.3200
  162SAPE  H17X18257   3.896   5.319   8.426  0.3555  2.6695  0.2198
  162SAPE  H17Y18258   3.725   5.350   8.361 -0.2888 -0.6256 -0.4024
  162SAPE  C31818259   3.737   5.221   8.540  0.1202 -0.0273 -0.2173
  162SAPE  H18X18260   3.786   5.228   8.639  0.3667  1.2687 -0.4068
  162SAPE  H18Y18261   3.763   5.123   8.495  3.1797  1.4480 -2.0407
  162SAPE  H18Z18262   3.628   5.234   8.554  0.1509 -0.8377  0.8688
  163SAPE     N18263   1.819   4.417   6.882  0.8587 -0.1031 -0.2884
  163SAPE   HN118264   1.866   4.456   6.797 -0.7923  4.0700  0.4835
  163SAPE   HN218265   1.736   4.368   6.843  0.3152 -0.5839  1.4170
  163SAPE   HN318266   1.789   4.491   6.948 -1.6957 -0.9384 -0.4270
  163SAPE   C1218267   1.908   4.324   6.962 -0.4293  1.1981 -0.2025
  163SAPE  H12A18268   1.946   4.246   6.894 -0.0096  1.8254 -0.7040
  163SAPE  H12B18269   1.842   4.289   7.045 -0.8154  0.6410 -0.7440
  163SAPE   C1118270   2.027   4.401   7.014  1.0673  0.0833 -0.6129
  163SAPE  H11A18271   2.088   4.341   7.084 -1.8737 -1.5261  0.7750
  163SAPE  H11B18272   1.974   4.476   7.078  2.0073 -0.2714  0.6070
  163SAPE     P18273   2.213   4.381   6.822 -0.3649  0.1177 -0.2917
  163SAPE   O1318274   2.162   4.335   6.689 -0.5091 -0.3649 -0.3135
  163SAPE   O1418275   2.343   4.452   6.822  0.4241  0.2736 -1.1904
  163SAPE   O1218276   2.098   4.459   6.906 -0.0039 -0.4065 -0.0935
  163SAPE   O1118277   2.225   4.252   6.916  0.2088  0.8844  0.3477
  163SAPE    C118278   2.355   4.225   6.965  0.1681  0.4597 -0.3341
  163SAPE    HA18279   2.418   4.192   6.880 -2.2755 -1.3449 -1.5555
  163SAPE    HB18280   2.393   4.311   7.024  0.2792 -0.1881  0.5601
  163SAPE    C218281   2.354   4.100   7.059 -0.7085  0.2150 -0.2681
  163SAPE    HS18282   2.327   4.014   6.993  1.4482 -0.4094 -0.4249
  163SAPE   O2118283   2.273   4.121   7.168  0.2708  0.4820 -0.1094
  163SAPE   C2118284   2.155   4.066   7.157  0.5933 -0.1073  0.2951
  163SAPE   O2218285   2.115   3.990   7.066 -0.0676 -0.0608  0.1613
  163SAPE   C2218286   2.081   4.090   7.284 -0.6340 -0.0675  0.3007
  163SAPE   H2R18287   2.156   4.109   7.363  0.0272 -1.6013  0.0784
  163SAPE   H2S18288   2.018   4.180   7.269 -1.3210 -0.8430 -1.8017
  163SAPE    C318289   2.507   4.060   7.094 -0.3527  0.0396 -0.7616
  163SAPE    HX18290   2.561   4.157   7.100 -2.5905  1.3128  0.5892
  163SAPE    HY18291   2.550   4.008   7.006  1.9650 -0.8960  0.8385
  163SAPE   O3118292   2.514   3.981   7.222  0.1776 -0.3942  0.7669
  163SAPE   C3118293   2.503   3.850   7.221  0.2616  0.5551  0.1116
  163SAPE   O3218294   2.496   3.783   7.116  0.0746 -0.7317  0.4701
  163SAPE   C3218295   2.536   3.790   7.363 -0.4077 -0.7585  0.2541
  163SAPE   H2X18296   2.646   3.776   7.376 -0.7058 -2.1538  1.6775
  163SAPE   H2Y18297   2.504   3.683   7.358  1.0635 -1.3168  1.8131
  163SAPE   C2318298   2.008   3.959   7.337 -0.4041 -0.4405 -0.0973
  163SAPE   H3R18299   2.089   3.888   7.366 -0.9683 -0.6571  0.9817
  163SAPE   H3S18300   1.950   3.904   7.260 -0.5068 -1.2756  0.5544
  163SAPE   C2418301   1.909   3.990   7.448  0.6824  0.0762 -0.2063
  163SAPE   H4R18302   1.872   3.893   7.486 -3.1805  2.0269  1.7095
  163SAPE   H4S18303   1.822   4.034   7.394 -0.8806  1.6069  3.2316
  163SAPE   C2518304   1.964   4.083   7.559  0.5442 -0.0853 -0.4273
  163SAPE   H5R18305   1.976   4.187   7.526 -1.4027 -0.0180 -1.0146
  163SAPE   C2618306   1.996   4.040   7.679 -0.3427 -0.3158 -0.4671
  163SAPE   H6R18307   2.047   4.109   7.748  0.1951  0.3869 -1.5382
  163SAPE   C2718308   1.991   3.901   7.733  0.4118  0.7640  0.2462
  163SAPE   H7R18309   2.094   3.857   7.735  1.2496  2.4291 -2.3190
  163SAPE   H7S18310   1.937   3.830   7.666 -0.1721  0.2524  1.2274
  163SAPE   C2818311   1.917   3.911   7.867 -0.2966 -0.3201 -0.8066
  163SAPE   H8R18312   1.807   3.914   7.871 -0.2901 -1.2145  1.3811
  163SAPE   C2918313   1.987   3.911   7.985  0.3839 -0.3478  0.4517
  163SAPE   H9R18314   1.936   3.934   8.080  0.7262 -1.7193  0.9938
  163SAPE  C21018315   2.134   3.898   8.008  0.4486 -0.0092 -0.6682
  163SAPE  H10R18316   2.169   3.981   8.073 -1.4778 -0.8760  1.6122
  163SAPE  H10S18317   2.185   3.903   7.909  0.1143  0.5103 -0.8191
  163SAPE  C21118318   2.173   3.778   8.088 -0.0164  0.2865  0.3279
  163SAPE  H11R18319   2.210   3.694   8.029  0.8123  1.3541 -0.7253
  163SAPE  C21218320   2.173   3.770   8.221  0.1690 -0.5441 -0.1226
  163SAPE  H12R18321   2.210   3.675   8.262  1.0461  0.4313  1.4723
  163SAPE  C21318322   2.120   3.876   8.309  0.4234 -0.1537 -0.6631
  163SAPE  H13R18323   2.150   3.975   8.271  2.6191 -1.0414 -1.4108
  163SAPE  H13S18324   2.182   3.870   8.402 -0.4066 -0.4915 -0.1210
  163SAPE  C21418325   1.972   3.856   8.345  0.0150 -0.3734  0.1367
  163SAPE  H14R18326   1.935   3.754   8.326 -0.6460 -0.0728 -0.1997
  163SAPE  C21518327   1.895   3.954   8.399 -0.5849  0.4095 -0.0927
  163SAPE  H15R18328   1.793   3.923   8.426 -0.7690 -1.7155 -2.7505
  163SAPE  C21618329   1.939   4.094   8.430 -0.5110 -0.3021 -0.2880
  163SAPE  H16R18330   2.048   4.092   8.450  0.5447 -0.1625 -4.8990
  163SAPE  H16S18331   1.886   4.129   8.521  1.7048  0.2135  0.8635
  163SAPE  C21718332   1.925   4.183   8.307 -0.6036 -0.0412  0.3193
  163SAPE  H17R18333   1.979   4.130   8.226  1.3623 -0.1763  1.6437
  163SAPE  H17S18334   1.975   4.281   8.320 -1.8921  0.5515  1.0127
  163SAPE  C21818335   1.779   4.215   8.270  0.3055  0.3247  0.1008
  163SAPE  H18R18336   1.728   4.247   8.363  1.9620 -0.2984  1.2599
  163SAPE  H18S18337   1.725   4.122   8.241 -0.6124  0.5470  1.0570
  163SAPE  C21918338   1.763   4.315   8.149  0.1876 -0.1648 -0.6534
  163SAPE  H19R18339   1.806   4.414   8.177  0.0760 -0.0700 -0.8169
  163SAPE  H19S18340   1.656   4.317   8.118  0.1641 -2.4004 -0.8992
  163SAPE  C22018341   1.838   4.259   8.029  0.1198  0.3177 -0.1651
  163SAPE  H20R18342   1.786   4.285   7.934  0.6451 -0.2305 -0.6096
  163SAPE  H20S18343   1.829   4.148   8.038 -2.2797  0.5700  1.9430
  163SAPE  H20T18344   1.943   4.293   8.040  0.2109  0.0371 -0.1457
  163SAPE   C3318345   2.474   3.870   7.470 -0.5061  0.2182 -0.3769
  163SAPE   H3X18346   2.365   3.877   7.452 -0.0877  3.8405 -2.4885
  163SAPE   H3Y18347   2.503   3.977   7.467  0.5940 -0.0856 -2.1743
  163SAPE   C3418348   2.517   3.821   7.616  0.2328 -0.3237 -0.0078
  163SAPE   H4X18349   2.628   3.815   7.620  0.2273 -2.7051 -1.5025
  163SAPE   H4Y18350   2.470   3.720   7.620  0.5304 -0.4483  0.6032
  163SAPE   C3518351   2.457   3.896   7.734 -0.1801 -0.2251  0.9526
  163SAPE   H5X18352   2.349   3.917   7.721  0.0993  1.4430  1.0534
  163SAPE   H5Y18353   2.501   3.998   7.732 -0.2958 -0.1763 -1.2320
  163SAPE   C3618354   2.454   3.835   7.875 -0.6465 -0.6397  0.1583
  163SAPE   H6X18355   2.405   3.736   7.874  1.1156 -1.5708  0.8097
  163SAPE   H6Y18356   2.406   3.899   7.953  1.8798  1.6823 -0.0150
  163SAPE   C3718357   2.600   3.823   7.926 -0.5714 -0.6213 -0.8116
  163SAPE   H7X18358   2.643   3.925   7.924 -0.0487 -0.6282  2.7919
  163SAPE   H7Y18359   2.659   3.757   7.858 -1.1057 -0.3133 -1.5874
  163SAPE   C3818360   2.614   3.771   8.068 -0.4203  0.3902  0.2260
  163SAPE   H8X18361   2.715   3.753   8.110 -0.4773  0.2660  0.3097
  163SAPE   H8Y18362   2.568   3.670   8.066  1.2436 -0.4061  0.2707
  163SAPE   C3918363   2.562   3.866   8.182  0.2230  0.0107  0.3076
  163SAPE   H9X18364   2.457   3.895   8.164  0.4726  0.8907  0.2300
  163SAPE   H9Y18365   2.601   3.969   8.197  0.8766 -0.1295 -0.3773
  163SAPE  C31018366   2.582   3.783   8.314 -0.2501 -0.0484  0.4619
  163SAPE  H10X18367   2.689   3.800   8.339 -0.6995  1.7447  1.3784
  163SAPE  H10Y18368   2.564   3.674   8.302 -1.0910 -0.1201  2.1071
  163SAPE  C31118369   2.502   3.848   8.430  1.1878  0.3939 -0.2437
  163SAPE  H11X18370   2.395   3.830   8.410  0.7392  2.2317  0.2646
  163SAPE  H11Y18371   2.517   3.958   8.433  0.7645  0.4466  1.5662
  163SAPE  C31218372   2.537   3.784   8.562 -0.0676  0.1735 -0.5163
  163SAPE  H12X18373   2.489   3.826   8.653 -0.9537  1.5736 -1.5721
  163SAPE  H12Y18374   2.645   3.803   8.579 -0.4102  0.2581  1.8851
  163SAPE  C31318375   2.499   3.634   8.565 -0.0020  0.3783  0.0034
  163SAPE  H13X18376   2.560   3.576   8.493  0.8071 -0.5332  1.3688
  163SAPE  H13Y18377   2.392   3.623   8.538  0.1190 -0.3776 -0.1727
  163SAPE  C31418378   2.529   3.564   8.697 -0.0605 -0.3730  0.2095
  163SAPE  H14X18379   2.630   3.518   8.687 -0.4552 -1.0946 -0.6028
  163SAPE  H14Y18380   2.464   3.474   8.702  0.6804 -1.0953 -2.0010
  163SAPE  C31518381   2.510   3.643   8.827 -0.8588 -0.1043  0.2498
  163SAPE  H15X18382   2.409   3.689   8.825 -1.3202 -1.0133  1.5125
  163SAPE  H15Y18383   2.593   3.716   8.830 -0.7894 -0.2107  1.1837
  163SAPE  C31618384   2.507   3.560   8.950 -0.1498  0.6551  0.2798
  163SAPE  H16X18385   2.446   3.468   8.934 -1.3609  1.7031 -1.3612
  163SAPE  H16Y18386   2.470   3.619   9.037  0.9719 -0.5346  1.6320
  163SAPE  C31718387   2.649   3.503   8.986 -0.0463  0.0665 -0.2270
  163SAPE  H17X18388   2.707   3.598   8.985  1.5775 -0.8714 -2.6075
  163SAPE  H17Y18389   2.684   3.443   8.899 -1.3842  0.1498 -0.8566
  163SAPE  C31818390   2.657   3.419   9.109  0.4895 -0.0263 -0.0469
  163SAPE  H18X18391   2.598   3.326   9.095  0.9568 -0.2072 -0.8498
  163SAPE  H18Y18392   2.618   3.475   9.197  2.1165  0.8213  0.1737
  163SAPE  H18Z18393   2.759   3.388   9.141 -0.4390 -0.6840  2.5734
  164SAPE     N18394   4.547   2.654   6.063 -0.7988 -0.2155  0.8387
  164SAPE   HN118395   4.624   2.715   6.032  0.8934 -1.1558  2.8796
  164SAPE   HN218396   4.569   2.552   6.062 -1.4240 -0.3536 -0.5242
  164SAPE   HN318397   4.473   2.652   5.990 -0.9422  2.7615  0.7879
  164SAPE   C1218398   4.490   2.707   6.191  0.2215 -0.3189 -0.1565
  164SAPE  H12A18399   4.564   2.739   6.267 -1.1036  2.3234  0.1359
  164SAPE  H12B18400   4.416   2.630   6.220  0.3472 -1.8264 -3.3836
  164SAPE   C1118401   4.408   2.842   6.171  0.0411 -0.6724  0.1807
  164SAPE  H11A18402   4.358   2.853   6.270  0.5375 -1.1668  0.4890
  164SAPE  H11B18403   4.332   2.837   6.090  1.0937  1.9333 -1.0986
  164SAPE     P18404   4.447   3.081   6.081  0.0937 -0.1836 -0.3867
  164SAPE   O1318405   4.561   3.176   6.066 -0.2228  0.4323  0.6635
  164SAPE   O1418406   4.378   3.039   5.960  0.1267  0.2591 -0.3494
  164SAPE   O1218407   4.507   2.947   6.137  0.4695 -0.0832 -0.0714
  164SAPE   O1118408   4.347   3.141   6.192  0.3182  0.1615 -0.0052
  164SAPE    C118409   4.387   3.237   6.288 -0.0196 -0.5039 -0.3983
  164SAPE    HA18410   4.430   3.326   6.238 -1.4124 -0.0218 -0.7753
  164SAPE    HB18411   4.297   3.280   6.337  1.4008  1.1116  0.9378
  164SAPE    C218412   4.484   3.178   6.405 -0.2697 -0.3714 -0.0275
  164SAPE    HS18413   4.554   3.116   6.345 -0.9737 -0.4589 -0.7773
  164SAPE   O2118414   4.407   3.112   6.505 -0.3775  0.0714 -0.3010
  164SAPE   C2118415   4.455   2.999   6.544 -0.2723  0.0237 -0.7722
  164SAPE   O2218416   4.567   2.953   6.526 -0.5408  0.1429 -0.5262
  164SAPE   C2218417   4.345   2.922   6.627 -0.1762  0.2528  0.2932
  164SAPE   H2R18418   4.343   2.974   6.725  2.0611  3.7480 -1.2934
  164SAPE   H2S18419   4.247   2.942   6.578  0.1931 -0.7702 -0.9169
  164SAPE    C318420   4.568   3.303   6.458  0.0136  0.3662 -0.4009
  164SAPE    HX18421   4.501   3.382   6.497  0.5982 -0.1477  1.7691
  164SAPE    HY18422   4.617   3.349   6.369  1.8559 -2.2932 -0.9003
  164SAPE   O3118423   4.671   3.271   6.553  0.0257 -0.1261 -0.1167
  164SAPE   C3118424   4.629   3.294   6.682 -0.1445  0.9849 -0.4566
  164SAPE   O3218425   4.517   3.320   6.712  0.1651 -0.1739  0.9292
  164SAPE   C3218426   4.739   3.267   6.788 -0.7836  0.1031 -0.0003
  164SAPE   H2X18427   4.790   3.364   6.805 -0.3652 -0.1390  0.1466
  164SAPE   H2Y18428   4.802   3.189   6.740 -0.9220  0.3753 -0.6483
  164SAPE   C2318429   4.375   2.767   6.641  0.0301 -0.3910 -0.1906
  164SAPE   H3R18430   4.454   2.732   6.571 -1.1003 -1.7994 -0.8113
  164SAPE   H3S18431   4.286   2.710   6.608 -1.2837  1.7458 -0.5430
  164SAPE   C2418432   4.416   2.723   6.784 -0.7043  0.2565  0.7679
  164SAPE   H4R18433   4.410   2.613   6.799  0.2214 -0.0189 -0.7797
  164SAPE   H4S18434   4.333   2.771   6.841 -1.1258 -1.1295  1.3551
  164SAPE   C2518435   4.548   2.773   6.824 -0.2796 -0.7960 -0.1143
  164SAPE   H5R18436   4.622   2.755   6.744  0.1073 -1.5357  0.4026
  164SAPE   C2618437   4.580   2.848   6.929  0.1541 -0.2463 -0.5549
  164SAPE   H6R18438   4.687   2.870   6.947  0.2771 -0.2579 -1.2298
  164SAPE   C2718439   4.499   2.908   7.040 -0.5603 -0.2157 -0.7235
  164SAPE   H7R18440   4.440   2.991   6.995  0.9858  1.2468 -0.1389
  164SAPE   H7S18441   4.570   2.965   7.104  1.7567 -0.7444 -2.6914
  164SAPE   C2818442   4.406   2.821   7.117 -0.1027 -0.0150  0.0103
  164SAPE   H8R18443   4.383   2.727   7.065 -0.4814  0.3811 -0.5478
  164SAPE   C2918444   4.366   2.845   7.241  0.3929 -0.3680 -0.9739
  164SAPE   H9R18445   4.304   2.767   7.288 -0.4742  0.6033 -0.4505
  164SAPE  C21018446   4.397   2.964   7.331  0.0786  0.1733  0.8328
  164SAPE  H10R18447   4.298   2.999   7.366 -0.2236  0.0234  0.1471
  164SAPE  H10S18448   4.440   3.047   7.272 -1.8436  0.0133 -0.9068
  164SAPE  C21118449   4.499   2.913   7.429 -0.0300  0.5564 -0.2949
  164SAPE  H11R18450   4.600   2.895   7.389 -0.3349  0.2844 -0.9399
  164SAPE  C21218451   4.493   2.921   7.563  0.2174 -0.3156 -0.1471
  164SAPE  H12R18452   4.573   2.888   7.631 -0.7361  0.6588  1.5446
  164SAPE  C21318453   4.373   2.972   7.646  0.0527 -0.4313  0.2304
  164SAPE  H13R18454   4.323   3.049   7.583 -1.5106 -1.7989 -0.3027
  164SAPE  H13S18455   4.408   3.027   7.735  2.2395  1.1262 -1.4976
  164SAPE  C21418456   4.276   2.871   7.702  0.4637 -0.1370  0.2828
  164SAPE  H14R18457   4.190   2.855   7.635  0.5961 -0.0344  0.0862
  164SAPE  C21518458   4.278   2.795   7.815 -0.2614 -0.2644  0.4940
  164SAPE  H15R18459   4.188   2.735   7.836 -0.3347 -0.3936 -0.1532
  164SAPE  C21618460   4.399   2.802   7.910 -0.3659  0.6350  0.0440
  164SAPE  H16R18461   4.481   2.870   7.881  0.1673  0.1381  0.3631
  164SAPE  H16S18462   4.450   2.704   7.899  0.4769  0.8550  1.6557
  164SAPE  C21718463   4.357   2.819   8.058 -0.4813  0.0162 -0.2042
  164SAPE  H17R18464   4.443   2.784   8.119  0.8121  0.6356 -1.6042
  164SAPE  H17S18465   4.272   2.751   8.082  0.9216 -1.5963  0.4291
  164SAPE  C21818466   4.313   2.965   8.093  1.0824 -0.1302  0.9467
  164SAPE  H18R18467   4.242   3.002   8.017  1.7968  1.5299  1.0554
  164SAPE  H18S18468   4.396   3.039   8.097 -1.3615  2.9806 -1.1506
  164SAPE  C21918469   4.240   2.984   8.223 -0.1518 -0.0200 -0.4412
  164SAPE  H19R18470   4.203   3.088   8.218 -0.4351 -0.1419 -1.0877
  164SAPE  H19S18471   4.304   2.978   8.313 -1.2825  1.7154  0.5178
  164SAPE  C22018472   4.121   2.899   8.246 -0.0497  0.0731  0.0484
  164SAPE  H20R18473   4.059   2.893   8.153  0.0288 -0.4643  0.0288
  164SAPE  H20S18474   4.044   2.930   8.319 -1.8767 -4.2742  0.2918
  164SAPE  H20T18475   4.145   2.794   8.274 -0.3787  0.5152  2.1307
  164SAPE   C3318476   4.681   3.203   6.915  0.4749  0.7974 -0.2861
  164SAPE   H3X18477   4.726   3.101   6.920  0.3737  0.7375 -0.5751
  164SAPE   H3Y18478   4.572   3.183   6.908  0.7630 -1.1099  0.0263
  164SAPE   C3418479   4.713   3.274   7.048 -0.3359 -0.9933  0.4913
  164SAPE   H4X18480   4.684   3.381   7.038  0.1185 -1.0766 -2.8307
  164SAPE   H4Y18481   4.823   3.282   7.060 -0.4888  1.0067  1.0672
  164SAPE   C3518482   4.680   3.211   7.177  0.2524 -0.2342 -0.1925
  164SAPE   H5X18483   4.731   3.113   7.187 -0.1835 -1.0112 -4.0617
  164SAPE   H5Y18484   4.570   3.205   7.166  0.0656  2.7205 -0.8742
  164SAPE   C3618485   4.708   3.300   7.304  0.1412  0.2776  0.4350
  164SAPE   H6X18486   4.676   3.405   7.286 -3.1701  0.0344  3.6436
  164SAPE   H6Y18487   4.814   3.301   7.337  0.3319 -0.9758 -0.0799
  164SAPE   C3718488   4.623   3.250   7.421  0.7077 -0.0902 -0.3533
  164SAPE   H7X18489   4.671   3.160   7.463 -0.9032 -0.8974 -0.1760
  164SAPE   H7Y18490   4.523   3.212   7.393  0.8560 -1.0586  0.4157
  164SAPE   C3818491   4.607   3.352   7.527  0.0700  0.3761 -0.1652
  164SAPE   H8X18492   4.522   3.417   7.495 -0.4773  0.2302  0.9429
  164SAPE   H8Y18493   4.690   3.424   7.544 -0.5459  1.0274  0.1389
  164SAPE   C3918494   4.548   3.300   7.662 -0.1262  0.7691  0.1409
  164SAPE   H9X18495   4.626   3.230   7.700 -0.5071  1.1489  1.7121
  164SAPE   H9Y18496   4.454   3.244   7.645  0.6557 -1.5016  2.4670
  164SAPE  C31018497   4.540   3.404   7.778 -0.8887  0.2029  0.3014
  164SAPE  H10X18498   4.493   3.501   7.748  2.0057  2.2524  1.9549
  164SAPE  H10Y18499   4.644   3.439   7.794 -1.2463  0.6190  1.9050
  164SAPE  C31118500   4.473   3.366   7.907  0.2474  0.1911  0.8066
  164SAPE  H11X18501   4.531   3.281   7.950 -0.6275 -2.1957 -2.3580
  164SAPE  H11Y18502   4.370   3.332   7.883 -0.2087  1.2777  1.1947
  164SAPE  C31218503   4.453   3.476   8.009  0.4905 -0.4875  0.3164
  164SAPE  H12X18504   4.380   3.547   7.965  0.3703 -1.0638 -0.4508
  164SAPE  H12Y18505   4.550   3.523   8.033 -0.0963  1.0810 -0.3059
  164SAPE  C31318506   4.403   3.419   8.137  0.1742  0.3210 -0.7985
  164SAPE  H13X18507   4.467   3.336   8.172 -0.3119 -0.1981 -1.1324
  164SAPE  H13Y18508   4.298   3.386   8.128  0.0974  0.2411  0.2473
  164SAPE  C31418509   4.403   3.530   8.234  0.1758  0.7248  0.5085
  164SAPE  H14X18510   4.327   3.608   8.212 -1.4393 -1.1413 -0.8620
  164SAPE  H14Y18511   4.505   3.571   8.247 -0.2923  1.5806  1.6758
  164SAPE  C31518512   4.374   3.465   8.370  0.2316 -0.1343  0.1385
  164SAPE  H15X18513   4.385   3.543   8.448 -2.0547  0.4201 -0.0269
  164SAPE  H15Y18514   4.458   3.396   8.397  0.4626  0.6137  1.4167
  164SAPE  C31618515   4.237   3.386   8.392 -0.3119  0.7568  0.8294
  164SAPE  H16X18516   4.243   3.300   8.322  1.4940  1.3386  0.2123
  164SAPE  H16Y18517   4.146   3.445   8.365 -0.3902  0.9787  1.5489
  164SAPE  C31718518   4.215   3.353   8.536 -0.2127  0.0789 -0.5990
  164SAPE  H17X18519   4.106   3.331   8.546  0.3283 -2.9681 -0.4691
  164SAPE  H17Y18520   4.255   3.444   8.585 -0.1582 -0.4459  0.3608
  164SAPE  C31818521   4.303   3.240   8.604  0.4953 -0.2194 -0.0178
  164SAPE  H18X18522   4.265   3.211   8.704  0.9893  2.7600  1.1097
  164SAPE  H18Y18523   4.407   3.278   8.603 -0.3857  2.4041 -1.1414
  164SAPE  H18Z18524   4.321   3.150   8.540 -0.7346  0.3588 -1.2363
  165SAPE     N18525   6.269   6.113   5.997  0.1409 -0.1049 -0.0578
  165SAPE   HN118526   6.215   6.180   5.940 -1.0757 -1.3933 -0.4707
  165SAPE   HN218527   6.284   6.025   5.943 -1.0725 -0.4437  0.1414
  165SAPE   HN318528   6.210   6.083   6.078 -0.9817  0.6881 -0.5679
  165SAPE   C1218529   6.388   6.174   6.067 -0.8135 -0.0312  0.3568
  165SAPE  H12A18530   6.397   6.283   6.048 -1.3972  0.3814  2.2199
  165SAPE  H12B18531   6.480   6.120   6.036 -0.0616  1.3388  0.1597
  165SAPE   C1118532   6.371   6.171   6.221  0.5212 -0.3553  0.7637
  165SAPE  H11A18533   6.465   6.212   6.264  0.8796 -3.1436  2.9501
  165SAPE  H11B18534   6.364   6.069   6.265  1.3955 -0.4958  0.6033
  165SAPE     P18535   6.193   6.261   6.403  0.4417  0.7156 -0.4375
  165SAPE   O1318536   6.170   6.396   6.453  0.3455  0.0995 -0.0523
  165SAPE   O1418537   6.073   6.176   6.400 -0.2736  0.0682  0.1337
  165SAPE   O1218538   6.266   6.255   6.263 -0.0606  0.2020 -0.2049
  165SAPE   O1118539   6.300   6.193   6.493 -0.4734  0.0893  0.2857
  165SAPE    C118540   6.309   6.053   6.529  0.1661 -0.0968 -0.8529
  165SAPE    HA18541   6.278   5.988   6.444 -1.6686 -3.5586  2.2066
  165SAPE    HB18542   6.418   6.035   6.542  0.7688  1.2180 -3.2767
  165SAPE    C218543   6.225   6.032   6.666 -0.0489  0.3051  0.8147
  165SAPE    HS18544   6.127   5.993   6.633 -0.6536  1.2166  1.4703
  165SAPE   O2118545   6.210   6.150   6.751 -0.4153 -0.2884  0.1596
  165SAPE   C2118546   6.089   6.168   6.808 -0.8402  0.6143 -0.0680
  165SAPE   O2218547   5.997   6.093   6.790  0.0082 -0.0727 -0.7330
  165SAPE   C2218548   6.083   6.289   6.903 -0.1712  0.3754  0.2061
  165SAPE   H2R18549   6.107   6.385   6.852  0.2968 -0.0548 -0.4035
  165SAPE   H2S18550   5.974   6.287   6.924  0.0488 -0.4311  1.3306
  165SAPE    C318551   6.296   5.921   6.749  0.1013 -0.7076  0.2708
  165SAPE    HX18552   6.396   5.962   6.776 -0.6723  0.0557  2.1790
  165SAPE    HY18553   6.316   5.827   6.694  1.2538 -0.6631  0.5793
  165SAPE   O3118554   6.223   5.897   6.867  0.0239 -0.2009 -0.4829
  165SAPE   C3118555   6.126   5.809   6.854 -0.8020 -0.2626 -0.0991
  165SAPE   O3218556   6.100   5.748   6.745  0.3845 -0.5781 -1.1453
  165SAPE   C3218557   6.040   5.803   6.984 -0.4466  0.3726  0.0436
  165SAPE   H2X18558   5.989   5.901   6.985 -1.1254  0.0631  2.3293
  165SAPE   H2Y18559   6.106   5.788   7.073  1.1865 -1.0260 -1.3344
  165SAPE   C2318560   6.172   6.275   7.025 -0.2369  0.6876  0.2679
  165SAPE   H3R18561   6.177   6.367   7.088  1.2932  2.9744 -2.9128
  165SAPE   H3S18562   6.270   6.250   6.980  0.3263  0.4125  1.6029
  165SAPE   C2418563   6.142   6.157   7.121  0.5001 -0.1067 -0.3131
  165SAPE   H4R18564   6.241   6.126   7.162  0.4055 -0.6157 -0.4695
  165SAPE   H4S18565   6.106   6.063   7.075 -2.6121  1.0584 -0.4997
  165SAPE   C2518566   6.035   6.196   7.231 -0.3144  0.9492 -0.1948
  165SAPE   H5R18567   5.940   6.230   7.187  0.1123  2.2192 -0.1643
  165SAPE   C2618568   6.055   6.187   7.369 -0.0443  0.2822  0.3163
  165SAPE   H6R18569   5.978   6.217   7.442  0.1033  1.5360 -0.0276
  165SAPE   C2718570   6.183   6.142   7.434  0.1418  0.0988  0.3223
  165SAPE   H7R18571   6.271   6.176   7.374  1.1379 -3.6619 -0.5686
  165SAPE   H7S18572   6.183   6.031   7.438  1.3331  0.0948  0.9571
  165SAPE   C2818573   6.189   6.210   7.568  0.3435 -0.4187  0.5861
  165SAPE   H8R18574   6.231   6.311   7.567 -0.2529 -0.1667 -0.2202
  165SAPE   C2918575   6.148   6.155   7.685  0.0061  0.3009  0.5705
  165SAPE   H9R18576   6.146   6.216   7.777  0.0561 -1.6901  1.9756
  165SAPE  C21018577   6.067   6.026   7.700 -0.3104 -0.4662 -1.3419
  165SAPE  H10R18578   6.132   5.945   7.740  1.2903  1.6068  0.5583
  165SAPE  H10S18579   6.030   6.002   7.598  0.9910 -2.6577 -1.3695
  165SAPE  C21118580   5.961   6.029   7.811 -0.3190 -0.7205  0.8510
  165SAPE  H11R18581   5.857   6.035   7.775  1.1329  1.7621 -3.6537
  165SAPE  C21218582   5.983   6.027   7.944  0.0003  0.5519  0.2163
  165SAPE  H12R18583   5.897   6.043   8.011  0.3537 -2.5374  1.6284
  165SAPE  C21318584   6.117   6.025   8.011 -0.2073 -1.0944 -1.1935
  165SAPE  H13R18585   6.124   6.117   8.073  1.4981 -0.8298 -1.7398
  165SAPE  H13S18586   6.208   6.037   7.948 -0.1853  3.8475 -0.5561
  165SAPE  C21418587   6.133   5.909   8.109  0.0280  0.6513 -0.5938
  165SAPE  H14R18588   6.144   5.809   8.065 -1.4066 -0.0863  0.6290
  165SAPE  C21518589   6.147   5.900   8.244 -0.3335 -0.3787  0.9298
  165SAPE  H15R18590   6.150   5.802   8.293  0.0993 -0.7288  0.2153
  165SAPE  C21618591   6.141   6.020   8.334  0.0646 -0.3786  0.7527
  165SAPE  H16R18592   6.166   6.111   8.276 -1.9943  0.2409  0.7537
  165SAPE  H16S18593   6.224   6.007   8.406  0.8899 -0.5189 -0.2050
  165SAPE  C21718594   6.017   6.045   8.422  0.8611 -0.2005 -0.7613
  165SAPE  H17R18595   5.932   6.015   8.356 -0.9076  0.3244  1.1543
  165SAPE  H17S18596   6.002   6.151   8.449 -0.9343  0.9554 -5.3694
  165SAPE  C21818597   6.025   5.962   8.547  0.2914 -0.3614  0.1216
  165SAPE  H18R18598   6.112   5.992   8.609 -0.3156  0.2447  0.7026
  165SAPE  H18S18599   6.035   5.852   8.534  0.7895 -0.2898 -0.1051
  165SAPE  C21918600   5.904   5.988   8.629  0.2056 -0.2783 -0.4154
  165SAPE  H19R18601   5.807   5.961   8.582 -1.9447 -2.9840  4.8042
  165SAPE  H19S18602   5.910   6.093   8.664 -2.1741 -0.3549  0.4013
  165SAPE  C22018603   5.899   5.919   8.771 -0.5394  0.4402 -0.3620
  165SAPE  H20R18604   5.992   5.944   8.825 -1.2508  0.6895  0.7747
  165SAPE  H20S18605   5.890   5.809   8.766  4.1763 -0.2209  1.1212
  165SAPE  H20T18606   5.809   5.952   8.828 -0.1988 -0.0449  0.4651
  165SAPE   C3318607   5.915   5.706   6.998 -0.0336 -0.0972  0.2224
  165SAPE   H3X18608   5.954   5.602   6.998 -2.2427 -0.9833 -0.9677
  165SAPE   H3Y18609   5.859   5.716   6.902 -0.8081  2.7612  0.8879
  165SAPE   C3418610   5.814   5.740   7.113 -0.1630  0.4589  1.2551
  165SAPE   H4X18611   5.743   5.656   7.129 -1.0617  1.5269  3.1621
  165SAPE   H4Y18612   5.759   5.828   7.073  0.3383  0.0005 -0.5675
  165SAPE   C3518613   5.893   5.770   7.240 -0.1699 -0.1603 -0.3897
  165SAPE   H5X18614   5.925   5.876   7.243 -2.0421  0.4803 -1.5994
  165SAPE   H5Y18615   5.976   5.697   7.249 -0.4916 -0.3569  1.2814
  165SAPE   C3618616   5.815   5.746   7.371  0.6631  0.1950 -0.8454
  165SAPE   H6X18617   5.769   5.645   7.361 -1.6496  1.1387 -0.4124
  165SAPE   H6Y18618   5.729   5.816   7.377  1.1151  0.6901 -0.0758
  165SAPE   C3718619   5.898   5.767   7.497 -0.7274  0.6056  0.4888
  165SAPE   H7X18620   5.839   5.835   7.562 -0.5214 -0.7061  2.1272
  165SAPE   H7Y18621   5.997   5.810   7.468 -0.1399 -2.2448 -2.2025
  165SAPE   C3818622   5.911   5.631   7.573  0.1241 -0.1798  0.2342
  165SAPE   H8X18623   6.005   5.591   7.530  0.5307  3.2103 -2.5117
  165SAPE   H8Y18624   5.826   5.565   7.546  0.2291  0.1641 -0.9891
  165SAPE   C3918625   5.922   5.645   7.727 -0.3445  0.3037  0.4053
  165SAPE   H9X18626   5.823   5.661   7.774  0.2435 -0.0254  1.8046
  165SAPE   H9Y18627   5.987   5.733   7.745  1.1452  0.0109 -2.7382
  165SAPE  C31018628   5.987   5.519   7.786  0.4188  0.3458  0.1702
  165SAPE  H10X18629   6.093   5.547   7.806 -0.2731  1.2166  3.0159
  165SAPE  H10Y18630   5.985   5.436   7.712  2.6228 -2.3397  2.8746
  165SAPE  C31118631   5.912   5.481   7.913  0.7552  0.1101 -0.3712
  165SAPE  H11X18632   5.960   5.389   7.953  1.5552  1.5930  2.3770
  165SAPE  H11Y18633   5.804   5.460   7.896  0.8747 -0.0162 -0.9881
  165SAPE  C31218634   5.934   5.589   8.023 -0.2110 -0.2830 -0.7765
  165SAPE  H12X18635   5.884   5.685   7.998  0.0462  0.0957  0.1125
  165SAPE  H12Y18636   6.040   5.614   8.043 -0.7189 -0.1080  2.1162
  165SAPE  C31318637   5.863   5.550   8.158  0.3848  0.7919  0.1701
  165SAPE  H13X18638   5.903   5.452   8.191 -1.9455  0.6080  2.8090
  165SAPE  H13Y18639   5.754   5.530   8.146  0.3294 -0.2066  1.9583
  165SAPE  C31418640   5.883   5.648   8.274 -0.7178  0.4119  0.2359
  165SAPE  H14X18641   5.842   5.748   8.249 -1.3037  0.2591  0.5607
  165SAPE  H14Y18642   5.992   5.659   8.290 -0.5609  0.6357 -0.8885
  165SAPE  C31518643   5.812   5.611   8.410 -0.6604 -0.5878  0.1956
  165SAPE  H15X18644   5.712   5.567   8.389 -1.2149  0.6960  0.0034
  165SAPE  H15Y18645   5.811   5.703   8.473 -0.2270 -0.1280 -0.4483
  165SAPE  C31618646   5.878   5.508   8.502 -0.5336 -0.0393 -0.5316
  165SAPE  H16X18647   5.858   5.405   8.465  1.4418 -0.7908  0.3455
  165SAPE  H16Y18648   5.819   5.514   8.595  0.5227 -0.1547  0.1609
  165SAPE  C31718649   6.024   5.536   8.536  0.4208  0.0246 -0.7327
  165SAPE  H17X18650   6.036   5.629   8.595  1.5360  0.5251 -1.7264
  165SAPE  H17Y18651   6.086   5.544   8.445  2.0285  1.4514  0.4201
  165SAPE  C31818652   6.088   5.422   8.622 -0.2801  0.0493 -0.0330
  165SAPE  H18X18653   6.065   5.433   8.730  0.0925 -1.2743  0.2068
  165SAPE  H18Y18654   6.195   5.396   8.612 -0.3134 -0.2117  0.2572
  165SAPE  H18Z18655   6.037   5.326   8.597 -1.9178  0.7556  0.4268
  166SAPE     N18656   4.165   0.933   6.021 -0.4787  0.6510 -0.1976
  166SAPE   HN118657   4.088   0.996   5.990 -1.0880 -0.4025 -0.9175
  166SAPE   HN218658   4.159   0.862   5.945 -1.9747  1.9109 -1.3188
  166SAPE   HN318659   4.134   0.892   6.112 -1.1111  2.4535  0.4395
  166SAPE   C1218660   4.290   1.013   6.029 -0.7855  0.5729 -1.0701
  166SAPE  H12A18661   4.308   1.040   5.923 -1.7120  2.5175 -0.7668
  166SAPE  H12B18662   4.369   0.945   6.069 -1.6844 -0.3383 -0.8093
  166SAPE   C1118663   4.283   1.136   6.120 -0.0436 -0.3332  0.6460
  166SAPE  H11A18664   4.385   1.179   6.136  0.3687 -1.1984  0.3689
  166SAPE  H11B18665   4.249   1.097   6.219 -1.6583  0.0634  0.2780
  166SAPE     P18666   4.228   1.354   5.999  0.0274 -0.3773 -0.6845
  166SAPE   O1318667   4.361   1.339   5.938 -0.7921  0.0880 -0.1903
  166SAPE   O1418668   4.114   1.395   5.911 -0.1991 -0.1101 -0.0235
  166SAPE   O1218669   4.182   1.216   6.066 -0.0072  0.0473 -0.3264
  166SAPE   O1118670   4.239   1.448   6.123 -0.1802  1.1490  0.0602
  166SAPE    C118671   4.128   1.484   6.200 -0.0178  0.2356  0.3283
  166SAPE    HA18672   4.081   1.574   6.153  0.5601  1.6558  2.3385
  166SAPE    HB18673   4.055   1.401   6.198  0.6146 -0.3830 -2.9262
  166SAPE    C218674   4.166   1.510   6.343  0.5072 -0.1988 -0.3890
  166SAPE    HS18675   4.069   1.515   6.397  0.5678  2.9127 -0.3803
  166SAPE   O2118676   4.225   1.639   6.362 -0.4826 -0.1943  0.5198
  166SAPE   C2118677   4.146   1.748   6.344 -0.7613  0.4956 -0.0847
  166SAPE   O2218678   4.025   1.742   6.335 -0.0017 -0.0868 -0.3408
  166SAPE   C2218679   4.231   1.873   6.337 -0.0688  0.4036  0.4037
  166SAPE   H2R18680   4.321   1.859   6.400  0.7259  1.5495 -0.4275
  166SAPE   H2S18681   4.260   1.872   6.230 -1.4096 -1.8316 -0.0058
  166SAPE    C318682   4.244   1.398   6.412  0.0332  0.4290 -0.7426
  166SAPE    HX18683   4.333   1.377   6.350 -1.4035 -1.4350 -2.3077
  166SAPE    HY18684   4.179   1.308   6.408  0.3442  0.0696  1.1180
  166SAPE   O3118685   4.292   1.431   6.548 -0.1712 -0.2109  0.2976
  166SAPE   C3118686   4.363   1.333   6.596  0.1146  0.1702 -0.2146
  166SAPE   O3218687   4.392   1.231   6.538 -0.1292 -0.2362  0.4771
  166SAPE   C3218688   4.414   1.356   6.730 -0.2104  0.2465 -0.8939
  166SAPE   H2X18689   4.487   1.438   6.717 -1.0510  0.7515 -2.7891
  166SAPE   H2Y18690   4.468   1.261   6.749 -0.3175  0.0879 -1.3765
  166SAPE   C2318691   4.172   2.013   6.369  0.1299 -0.1559  0.1427
  166SAPE   H3R18692   4.068   2.005   6.330 -0.4273 -0.2519  1.5598
  166SAPE   H3S18693   4.227   2.086   6.305  3.0157 -2.0856  0.2758
  166SAPE   C2418694   4.187   2.036   6.519  0.3077 -1.0389 -0.2211
  166SAPE   H4R18695   4.152   1.941   6.565 -0.1831  0.0526  1.7808
  166SAPE   H4S18696   4.114   2.117   6.545  0.9515  0.6067 -3.0595
  166SAPE   C2518697   4.327   2.075   6.559  0.5621 -0.3035  1.0510
  166SAPE   H5R18698   4.354   2.172   6.515 -0.0643 -0.5647  0.0539
  166SAPE   C2618699   4.413   2.015   6.645 -0.9319  0.6707  0.6261
  166SAPE   H6R18700   4.508   2.068   6.658 -0.3937 -0.1454  0.1194
  166SAPE   C2718701   4.391   1.890   6.731  0.2324  0.2980  0.7018
  166SAPE   H7R18702   4.292   1.839   6.729  1.8261 -3.1207 -0.5952
  166SAPE   H7S18703   4.400   1.933   6.832  2.4922  2.0935 -0.1764
  166SAPE   C2818704   4.487   1.775   6.712 -0.0985 -0.7018 -0.6989
  166SAPE   H8R18705   4.493   1.733   6.610  1.1572 -1.0966 -0.4876
  166SAPE   C2918706   4.564   1.709   6.803  0.4178 -0.8050 -0.4185
  166SAPE   H9R18707   4.629   1.628   6.767  0.0718 -1.0281 -0.5437
  166SAPE  C21018708   4.560   1.747   6.951 -0.0827  0.2674  0.3040
  166SAPE  H10R18709   4.548   1.652   7.008 -0.7865  0.0860 -0.1364
  166SAPE  H10S18710   4.471   1.809   6.975 -2.8673 -3.6722  1.0787
  166SAPE  C21118711   4.674   1.835   6.995 -0.3497  0.0112 -0.4506
  166SAPE  H11R18712   4.755   1.847   6.922  0.2982  3.4965  0.6420
  166SAPE  C21218713   4.683   1.904   7.114  0.4002 -0.3011 -0.2040
  166SAPE  H12R18714   4.766   1.973   7.131 -1.2563  1.8489 -0.3057
  166SAPE  C21318715   4.572   1.910   7.208  0.2480  0.0604  0.5268
  166SAPE  H13R18716   4.555   1.809   7.250 -1.5811 -0.0655 -0.4032
  166SAPE  H13S18717   4.476   1.920   7.152  0.2938 -4.0000 -0.6007
  166SAPE  C21418718   4.592   2.016   7.315  0.4890 -0.3555  0.3298
  166SAPE  H14R18719   4.543   2.111   7.291  0.2569 -0.3939  0.6436
  166SAPE  C21518720   4.624   2.002   7.445  0.3777 -0.5282 -1.0587
  166SAPE  H15R18721   4.613   2.090   7.510 -1.2762 -1.1375 -0.4447
  166SAPE  C21618722   4.649   1.862   7.510 -0.3821 -0.0400 -0.3575
  166SAPE  H16R18723   4.707   1.800   7.438 -1.7097  0.2526 -1.7291
  166SAPE  H16S18724   4.554   1.805   7.523 -0.8560  1.0593  1.3525
  166SAPE  C21718725   4.740   1.887   7.628 -0.0952  0.1515 -0.4568
  166SAPE  H17R18726   4.827   1.951   7.601 -1.0906  3.0973  2.5837
  166SAPE  H17S18727   4.781   1.787   7.653  0.7699  0.5653 -0.1981
  166SAPE  C21818728   4.672   1.959   7.745 -0.1207  0.0528  0.1815
  166SAPE  H18R18729   4.571   1.912   7.755  1.2957 -3.0034  1.9039
  166SAPE  H18S18730   4.661   2.068   7.731  0.9237 -0.1240 -2.5127
  166SAPE  C21918731   4.742   1.942   7.882  0.8679 -0.2727 -0.4032
  166SAPE  H19R18732   4.846   1.977   7.868  0.3773  0.0736 -4.2964
  166SAPE  H19S18733   4.728   1.837   7.917 -0.4540 -0.4428 -1.3896
  166SAPE  C22018734   4.685   2.032   7.992 -0.3543 -0.4751  0.1145
  166SAPE  H20R18735   4.742   2.030   8.087  0.1315  1.3110 -0.1087
  166SAPE  H20S18736   4.581   1.996   8.011 -0.9127  1.3544  0.6894
  166SAPE  H20T18737   4.677   2.137   7.957 -0.8050 -1.0442 -1.5961
  166SAPE   C3318738   4.308   1.409   6.839 -0.3251 -0.3331  0.0241
  166SAPE   H3X18739   4.219   1.344   6.826 -0.5171  0.1012 -0.8987
  166SAPE   H3Y18740   4.281   1.512   6.809  0.6410  0.6398  2.2630
  166SAPE   C3418741   4.364   1.406   6.984  0.4800  0.4144 -0.3278
  166SAPE   H4X18742   4.467   1.446   6.974  0.2308  0.8625 -1.1537
  166SAPE   H4Y18743   4.384   1.299   7.008 -2.7081  0.1129  1.6556
  166SAPE   C3518744   4.281   1.480   7.089  0.0044  0.3121 -0.1827
  166SAPE   H5X18745   4.189   1.424   7.118  0.3555 -0.8722 -1.2494
  166SAPE   H5Y18746   4.244   1.569   7.035 -0.1942 -0.4287 -1.3174
  166SAPE   C3618747   4.357   1.514   7.215 -0.0968 -0.5572  0.0123
  166SAPE   H6X18748   4.428   1.599   7.201  1.2525 -1.3396  1.7472
  166SAPE   H6Y18749   4.422   1.431   7.247  1.1309  0.4844  0.2973
  166SAPE   C3718750   4.256   1.540   7.330 -0.0652  0.1882 -0.5307
  166SAPE   H7X18751   4.196   1.448   7.350 -1.6944  1.2164 -0.4547
  166SAPE   H7Y18752   4.185   1.614   7.286 -0.1115 -0.1011 -0.9480
  166SAPE   C3818753   4.315   1.591   7.457 -0.3592 -0.4140  1.7443
  166SAPE   H8X18754   4.233   1.636   7.516  1.0238  1.9952  1.9442
  166SAPE   H8Y18755   4.389   1.671   7.435 -0.7479 -0.0779  1.6684
  166SAPE   C3918756   4.380   1.484   7.551 -0.2033 -0.9339 -0.1964
  166SAPE   H9X18757   4.463   1.433   7.498 -1.4300 -4.4573  0.9526
  166SAPE   H9Y18758   4.306   1.404   7.578 -0.4394 -0.7742 -0.3634
  166SAPE  C31018759   4.447   1.542   7.677 -0.2778 -0.5078  0.3929
  166SAPE  H10X18760   4.388   1.627   7.716 -0.4668 -1.1969  1.6694
  166SAPE  H10Y18761   4.539   1.591   7.640 -1.1347 -0.3121 -1.6044
  166SAPE  C31118762   4.464   1.443   7.786 -0.0154  0.2655 -0.3473
  166SAPE  H11X18763   4.384   1.366   7.789  1.5171 -1.7135 -4.1519
  166SAPE  H11Y18764   4.450   1.505   7.878  0.1119 -0.7365  0.3664
  166SAPE  C31218765   4.602   1.381   7.799  0.1541 -0.5679  0.2019
  166SAPE  H12X18766   4.676   1.464   7.811 -1.6360  1.4699 -1.8859
  166SAPE  H12Y18767   4.628   1.328   7.705  1.6421  0.0198  0.2489
  166SAPE  C31318768   4.616   1.271   7.912 -0.3704 -0.1838  0.0195
  166SAPE  H13X18769   4.526   1.209   7.894 -1.5939  1.8670 -1.2544
  166SAPE  H13Y18770   4.606   1.316   8.013  1.7003  0.6897 -0.1135
  166SAPE  C31418771   4.741   1.192   7.892 -0.3011 -0.2647  0.4427
  166SAPE  H14X18772   4.828   1.260   7.878 -1.9540  1.4569 -2.4088
  166SAPE  H14Y18773   4.718   1.144   7.794 -1.8135 -0.7085  0.9924
  166SAPE  C31518774   4.774   1.086   7.999 -0.7163 -0.3231 -0.1591
  166SAPE  H15X18775   4.812   1.138   8.089 -2.4732  0.9062 -0.0710
  166SAPE  H15Y18776   4.862   1.033   7.957  1.1433  1.4019  1.3979
  166SAPE  C31618777   4.652   0.999   8.033  0.0433 -0.5547 -0.2592
  166SAPE  H16X18778   4.623   0.951   7.937  1.2240 -0.8984 -0.4510
  166SAPE  H16Y18779   4.558   1.050   8.064 -0.9974 -1.6017 -1.5741
  166SAPE  C31718780   4.692   0.894   8.136 -0.2023  0.0232  0.4441
  166SAPE  H17X18781   4.792   0.852   8.114 -0.4006  0.1431 -0.7184
  166SAPE  H17Y18782   4.631   0.801   8.133  0.8733 -0.6696 -1.1006
  166SAPE  C31818783   4.705   0.951   8.280  0.2329 -0.5890  0.0385
  166SAPE  H18X18784   4.608   0.965   8.332 -0.6699  0.0147 -1.7367
  166SAPE  H18Y18785   4.764   1.044   8.271  0.1786 -0.5581  0.0049
  166SAPE  H18Z18786   4.755   0.870   8.338  1.0964 -0.5831 -0.6809
  167SAPE     N18787   0.232   1.710   6.357 -0.4652  0.0296  0.6022
  167SAPE   HN118788   0.161   1.786   6.355 -0.1046  0.3922 -2.0330
  167SAPE   HN218789   0.314   1.753   6.404  0.7273 -0.4692 -0.9359
  167SAPE   HN318790   0.257   1.699   6.256 -1.0981  0.0355  0.4394
  167SAPE   C1218791   0.194   1.570   6.420  0.0098 -0.4432 -0.6385
  167SAPE  H12A18792   0.186   1.587   6.530  0.2749 -0.7229 -0.5763
  167SAPE  H12B18793   0.285   1.507   6.406  0.2520 -0.0833 -0.6989
  167SAPE   C1118794   0.074   1.509   6.334  0.8019 -0.2405  0.6291
  167SAPE  H11A18795   0.054   1.404   6.363  0.7494 -0.9534 -1.7743
  167SAPE  H11B18796   0.104   1.509   6.227 -2.3006  0.1161 -0.3226
  167SAPE     P18797  -0.177   1.584   6.267  0.4212  0.0342 -0.0875
  167SAPE   O1318798  -0.204   1.725   6.230 -0.1423  0.3153  0.1827
  167SAPE   O1418799  -0.146   1.484   6.156 -0.0271 -0.0892 -0.1460
  167SAPE   O1218800  -0.048   1.589   6.357  0.8206  0.2477  0.3172
  167SAPE   O1118801  -0.287   1.527   6.370  0.2301  0.2452  0.1846
  167SAPE    C118802  -0.259   1.395   6.427 -0.7124 -0.4073  0.8571
  167SAPE    HA18803  -0.350   1.334   6.409  0.6017 -2.3485  0.4167
  167SAPE    HB18804  -0.169   1.353   6.376 -0.8561  1.2729 -0.8917
  167SAPE    C218805  -0.246   1.393   6.577  0.6006  0.0231 -0.8186
  167SAPE    HS18806  -0.218   1.292   6.614 -1.5431 -0.0395  0.8074
  167SAPE   O2118807  -0.360   1.432   6.647  0.1373 -0.0706 -0.7118
  167SAPE   C2118808  -0.448   1.338   6.666  0.2884  0.1120  0.3966
  167SAPE   O2218809  -0.448   1.226   6.613  0.2111  0.4491  0.7076
  167SAPE   C2218810  -0.558   1.398   6.748 -0.4093 -0.2263 -0.1381
  167SAPE   H2R18811  -0.520   1.441   6.843  0.3761  0.1148 -0.5948
  167SAPE   H2S18812  -0.614   1.480   6.698 -1.9095  0.1982  2.0772
  167SAPE    C318813  -0.130   1.489   6.625 -0.1036  0.1598  0.3437
  167SAPE    HX18814  -0.155   1.585   6.575 -1.0606  0.1404  0.7621
  167SAPE    HY18815  -0.040   1.449   6.574 -1.8953 -0.2436 -2.7523
  167SAPE   O3118816  -0.130   1.502   6.764  0.4487  0.4635 -0.3666
  167SAPE   C3118817  -0.063   1.401   6.826 -0.5311  0.0966  0.1275
  167SAPE   O3218818   0.004   1.320   6.767 -0.3680  0.8077 -0.4223
  167SAPE   C3218819  -0.070   1.413   6.973 -0.9358 -0.1960 -0.5641
  167SAPE   H2X18820   0.008   1.477   7.019 -2.1572  1.0687 -0.1937
  167SAPE   H2Y18821  -0.050   1.309   7.005 -0.0460  0.3226  0.6553
  167SAPE   C2318822  -0.663   1.299   6.793  0.0884  0.4064 -0.4605
  167SAPE   H3R18823  -0.621   1.197   6.784 -0.5739  0.1714 -0.9976
  167SAPE   H3S18824  -0.747   1.295   6.719 -0.3111  2.3971 -0.1678
  167SAPE   C2418825  -0.712   1.324   6.934 -0.1333 -0.1671  0.1980
  167SAPE   H4R18826  -0.780   1.237   6.946 -2.4117  1.2923 -1.4362
  167SAPE   H4S18827  -0.774   1.416   6.945 -1.0663 -1.0662  3.4419
  167SAPE   C2518828  -0.603   1.323   7.042 -0.3052  0.2489 -0.4123
  167SAPE   H5R18829  -0.505   1.368   7.025  0.0249  0.1484  1.0806
  167SAPE   C2618830  -0.611   1.234   7.142 -0.2332  0.6181  0.0270
  167SAPE   H6R18831  -0.543   1.247   7.226  0.2804  0.0089 -0.2908
  167SAPE   C2718832  -0.714   1.129   7.169  0.1165  0.3182  0.2522
  167SAPE   H7R18833  -0.715   1.076   7.072  0.4842  0.9884 -0.1247
  167SAPE   H7S18834  -0.814   1.172   7.193 -0.2432 -0.2910 -0.1447
  167SAPE   C2818835  -0.666   1.028   7.268 -0.3677  0.5164  0.2526
  167SAPE   H8R18836  -0.589   0.959   7.230 -1.5628  1.4481 -4.4750
  167SAPE   C2918837  -0.695   1.026   7.401  0.5337  0.9420 -0.1644
  167SAPE   H9R18838  -0.640   0.951   7.461  2.5774  2.6450  0.2133
  167SAPE  C21018839  -0.786   1.111   7.474 -0.1116  0.3939 -0.4806
  167SAPE  H10R18840  -0.874   1.048   7.499  0.9667 -1.1730 -0.4972
  167SAPE  H10S18841  -0.825   1.192   7.408  0.7928  0.0783 -1.4329
  167SAPE  C21118842  -0.724   1.167   7.601  0.1554 -0.1283 -0.0216
  167SAPE  H11R18843  -0.646   1.240   7.576  0.3810 -0.7782 -1.2646
  167SAPE  C21218844  -0.744   1.133   7.734  0.8830  0.2748  0.0651
  167SAPE  H12R18845  -0.680   1.185   7.807  2.9333 -3.2132  0.9567
  167SAPE  C21318846  -0.840   1.022   7.775 -0.4172  0.2563 -0.2996
  167SAPE  H13R18847  -0.802   0.917   7.774 -2.2491 -0.5208  2.2613
  167SAPE  H13S18848  -0.931   1.020   7.711 -1.9943  1.6688  1.7880
  167SAPE  C21418849  -0.890   1.049   7.918 -0.2635  0.6955 -0.0704
  167SAPE  H14R18850  -0.913   1.153   7.946 -2.1688  0.2673  0.0881
  167SAPE  C21518851  -0.897   0.954   8.014  0.0978  0.2653 -0.0273
  167SAPE  H15R18852  -0.943   0.982   8.110  0.1359 -0.3678  0.1856
  167SAPE  C21618853  -0.844   0.808   8.008  0.5828 -0.9899 -0.1693
  167SAPE  H16R18854  -0.735   0.816   7.986  0.1202  2.2398 -1.9489
  167SAPE  H16S18855  -0.896   0.755   7.925 -0.4716  0.7365 -0.6569
  167SAPE  C21718856  -0.863   0.736   8.147  0.7438  0.5572 -0.1642
  167SAPE  H17R18857  -0.787   0.782   8.213  0.3656  2.8992 -1.2490
  167SAPE  H17S18858  -0.841   0.629   8.123 -0.4037  0.2903 -0.0950
  167SAPE  C21818859  -1.002   0.749   8.214 -0.0134  0.2806  0.3455
  167SAPE  H18R18860  -1.038   0.854   8.220 -0.3938  0.2358 -0.9566
  167SAPE  H18S18861  -1.010   0.715   8.320  0.9002  1.4584  0.8141
  167SAPE  C21918862  -1.104   0.670   8.135  0.8089  0.9681 -0.1399
  167SAPE  H19R18863  -1.122   0.714   8.035 -0.1681 -1.6547 -1.2103
  167SAPE  H19S18864  -1.204   0.688   8.180 -0.6804 -3.8425 -0.8738
  167SAPE  C22018865  -1.085   0.522   8.128 -0.1438  0.0658  0.3209
  167SAPE  H20R18866  -0.984   0.491   8.092 -1.6976 -1.2871 -3.3561
  167SAPE  H20S18867  -1.165   0.472   8.070 -2.2507  2.1097  1.3330
  167SAPE  H20T18868  -1.092   0.483   8.232 -1.4602  2.2926  1.1423
  167SAPE   C3318869  -0.205   1.474   7.022 -0.2751 -0.2002  0.2778
  167SAPE   H3X18870  -0.298   1.441   6.971  1.6611 -2.3288 -2.1307
  167SAPE   H3Y18871  -0.204   1.579   6.987  2.0308 -0.1998  0.1837
  167SAPE   C3418872  -0.233   1.473   7.177  0.0627 -0.2164  0.1488
  167SAPE   H4X18873  -0.257   1.371   7.214 -2.9188  0.5957  0.6412
  167SAPE   H4Y18874  -0.324   1.527   7.209  1.2398  1.1294  1.3448
  167SAPE   C3518875  -0.122   1.551   7.247  0.2635 -0.2676 -0.0261
  167SAPE   H5X18876  -0.088   1.631   7.177  1.5841 -0.0905  0.7795
  167SAPE   H5Y18877  -0.031   1.489   7.262  0.0399 -1.3024 -2.5872
  167SAPE   C3618878  -0.176   1.610   7.381  0.3757  0.2127 -0.2805
  167SAPE   H6X18879  -0.219   1.524   7.438 -1.6560  1.6727  0.5301
  167SAPE   H6Y18880  -0.260   1.681   7.364  0.0724 -0.2317 -0.6562
  167SAPE   C3718881  -0.081   1.688   7.459 -0.8392 -0.5800 -0.1735
  167SAPE   H7X18882  -0.042   1.763   7.387  0.0916 -0.4016  0.4868
  167SAPE   H7Y18883   0.003   1.626   7.497 -0.1750 -0.0477 -0.7369
  167SAPE   C3818884  -0.144   1.755   7.584 -0.0224  0.0120  0.2997
  167SAPE   H8X18885  -0.204   1.676   7.635  1.1415 -1.9843 -1.2659
  167SAPE   H8Y18886  -0.209   1.831   7.536  2.3087  1.0357 -1.4158
  167SAPE   C3918887  -0.054   1.814   7.691 -0.2130  0.1552 -0.2468
  167SAPE   H9X18888   0.018   1.887   7.648  1.0850 -0.3038  1.0323
  167SAPE   H9Y18889   0.010   1.728   7.722 -0.4727 -0.0626 -0.3105
  167SAPE  C31018890  -0.131   1.870   7.809  0.8987  1.2103 -0.5949
  167SAPE  H10X18891  -0.192   1.948   7.758  3.3678  1.8281 -2.8236
  167SAPE  H10Y18892  -0.056   1.916   7.875 -1.5673  1.3230  2.3361
  167SAPE  C31118893  -0.210   1.759   7.888  0.5042 -0.3770  0.7549
  167SAPE  H11X18894  -0.147   1.670   7.910  1.7144 -0.3619 -2.1234
  167SAPE  H11Y18895  -0.299   1.720   7.833 -0.4125 -0.3624  2.1732
  167SAPE  C31218896  -0.278   1.825   8.012 -0.9201 -0.0809  0.1696
  167SAPE  H12X18897  -0.302   1.931   7.992 -2.6881 -0.1562  1.5653
  167SAPE  H12Y18898  -0.206   1.829   8.097 -3.1554 -1.4824  2.2677
  167SAPE  C31318899  -0.408   1.756   8.058 -0.1232 -0.4203  0.0366
  167SAPE  H13X18900  -0.391   1.649   8.084 -0.3134 -0.8258 -1.4503
  167SAPE  H13Y18901  -0.471   1.759   7.967  1.4894 -2.1672 -1.2201
  167SAPE  C31418902  -0.469   1.823   8.184  0.1703  0.9150 -0.6243
  167SAPE  H14X18903  -0.490   1.930   8.160 -0.9325  1.1706  1.2855
  167SAPE  H14Y18904  -0.393   1.837   8.264 -1.4054  1.2157  0.8592
  167SAPE  C31518905  -0.597   1.757   8.236 -0.2561  0.8846  0.2771
  167SAPE  H15X18906  -0.592   1.647   8.246 -0.5395  0.7251 -1.1096
  167SAPE  H15Y18907  -0.670   1.778   8.155  1.8160  0.2367 -1.8694
  167SAPE  C31618908  -0.646   1.810   8.367  0.0468  0.4695  0.5144
  167SAPE  H16X18909  -0.639   1.921   8.362  1.3080  0.3448 -1.8005
  167SAPE  H16Y18910  -0.586   1.778   8.455 -0.6169  1.6081  1.4171
  167SAPE  C31718911  -0.798   1.785   8.405 -0.2526  0.3056  0.2426
  167SAPE  H17X18912  -0.870   1.800   8.322 -0.4054 -2.5644 -0.2464
  167SAPE  H17Y18913  -0.816   1.861   8.484  1.2180 -1.2894  2.2016
  167SAPE  C31818914  -0.818   1.645   8.472  0.1896 -0.9244 -0.8592
  167SAPE  H18X18915  -0.748   1.623   8.555  0.3328 -1.0882 -1.0220
  167SAPE  H18Y18916  -0.788   1.563   8.404  1.4515  0.1736 -1.6808
  167SAPE  H18Z18917  -0.917   1.637   8.522  0.8312 -0.0835  0.6043
  168SAPE     N18918   0.880   1.712   6.344  0.4866 -0.7808 -0.2444
  168SAPE   HN118919   0.959   1.697   6.278  0.4482  0.3436 -0.5745
  168SAPE   HN218920   0.785   1.693   6.307 -0.6720  3.8301 -0.2886
  168SAPE   HN318921   0.888   1.812   6.372 -0.0937 -0.0578 -2.4292
  168SAPE   C1218922   0.891   1.620   6.463 -0.1246  1.4105 -0.8174
  168SAPE  H12A18923   0.991   1.619   6.512 -0.1758  0.2337 -0.7181
  168SAPE  H12B18924   0.870   1.520   6.421 -0.6657  0.6596  1.1146
  168SAPE   C1118925   0.782   1.644   6.569 -0.1527 -0.4970  0.0997
  168SAPE  H11A18926   0.824   1.725   6.633  2.5351 -2.8030  1.4688
  168SAPE  H11B18927   0.764   1.554   6.632  2.4830  0.3130  2.2627
  168SAPE     P18928   0.573   1.801   6.536 -0.0232  0.8549 -0.1470
  168SAPE   O1318929   0.676   1.905   6.517  0.1599  0.1345 -0.3691
  168SAPE   O1418930   0.451   1.804   6.452 -0.2400  0.3691  0.1229
  168SAPE   O1218931   0.658   1.675   6.506 -0.6102  0.9095 -0.0522
  168SAPE   O1118932   0.533   1.789   6.696  0.3264 -1.0879  0.3892
  168SAPE    C118933   0.477   1.669   6.745  0.0068  0.0229 -0.4157
  168SAPE    HA18934   0.404   1.616   6.681 -1.9754  1.1750  0.7448
  168SAPE    HB18935   0.552   1.595   6.780  3.4840  3.1670 -0.6370
  168SAPE    C218936   0.403   1.698   6.881  0.5989 -0.3849  0.1904
  168SAPE    HS18937   0.357   1.610   6.931 -0.5039 -0.9027 -1.6456
  168SAPE   O2118938   0.302   1.802   6.862  0.4825 -0.3210  0.5318
  168SAPE   C2118939   0.190   1.769   6.804  0.2916  0.0498 -0.9316
  168SAPE   O2218940   0.153   1.662   6.764 -0.2725 -0.0172 -0.5675
  168SAPE   C2218941   0.095   1.900   6.800 -0.3813 -0.0217  1.1544
  168SAPE   H2R18942   0.115   1.936   6.903 -0.6814 -0.8283  1.5107
  168SAPE   H2S18943   0.127   1.979   6.729 -1.6615 -1.8791 -1.7069
  168SAPE    C318944   0.487   1.768   6.986  0.4042 -0.4120  0.1421
  168SAPE    HX18945   0.525   1.868   6.955  2.0830 -0.3193  2.1706
  168SAPE    HY18946   0.576   1.702   6.982  1.0465  0.3103  1.6103
  168SAPE   O3118947   0.443   1.753   7.123  0.3754  0.1524  0.0051
  168SAPE   C3118948   0.391   1.865   7.170 -0.7341  0.3150  0.2106
  168SAPE   O3218949   0.358   1.962   7.104 -0.8284  0.0743  0.1240
  168SAPE   C3218950   0.373   1.847   7.317 -0.2598 -0.7059 -0.4804
  168SAPE   H2X18951   0.458   1.783   7.349 -1.3988 -2.2980 -0.5357
  168SAPE   H2Y18952   0.285   1.784   7.344 -0.6316 -0.1655 -0.3995
  168SAPE   C2318953  -0.054   1.862   6.793  0.7767 -0.1704 -0.3194
  168SAPE   H3R18954  -0.075   1.812   6.890  0.7086 -0.8034 -0.6520
  168SAPE   H3S18955  -0.076   1.782   6.720  0.5097 -0.5893  0.2114
  168SAPE   C2418956  -0.154   1.985   6.776 -0.8958  0.2833 -0.0347
  168SAPE   H4R18957  -0.133   2.016   6.671  2.4361 -0.4947  0.2982
  168SAPE   H4S18958  -0.124   2.057   6.854 -1.1513 -0.0466  0.3698
  168SAPE   C2518959  -0.302   1.948   6.794 -0.7469 -0.1151  0.6399
  168SAPE   H5R18960  -0.359   1.938   6.701  1.4561 -0.2141 -0.7789
  168SAPE   C2618961  -0.367   1.943   6.912 -0.1430  0.3025 -0.0780
  168SAPE   H6R18962  -0.474   1.916   6.918  0.4830 -2.4200  0.2929
  168SAPE   C2718963  -0.309   1.955   7.053  0.0561 -0.1604 -0.0123
  168SAPE   H7R18964  -0.207   1.911   7.051  1.5822  2.8932  2.8441
  168SAPE   H7S18965  -0.376   1.900   7.122  2.4526 -2.8103  0.4117
  168SAPE   C2818966  -0.305   2.098   7.098 -0.9827 -0.6775 -0.7441
  168SAPE   H8R18967  -0.384   2.167   7.065  0.0374  1.8467  1.6734
  168SAPE   C2918968  -0.218   2.143   7.192  0.1663  0.0284 -0.0167
  168SAPE   H9R18969  -0.213   2.248   7.225  3.6957 -0.0747  0.2042
  168SAPE  C21018970  -0.109   2.070   7.259  0.5111  0.6519 -0.2357
  168SAPE  H10R18971  -0.023   2.074   7.188 -0.6167  0.5319 -1.6466
  168SAPE  H10S18972  -0.135   1.963   7.266 -0.5469  0.7542 -2.1210
  168SAPE  C21118973  -0.061   2.120   7.393 -0.3629  0.1012 -0.0013
  168SAPE  H11R18974  -0.093   2.057   7.478 -1.0905 -0.5049 -0.7070
  168SAPE  C21218975   0.020   2.226   7.416 -0.4198  0.7366 -0.3042
  168SAPE  H12R18976   0.045   2.257   7.518 -0.7273 -0.9292  0.2965
  168SAPE  C21318977   0.076   2.310   7.300  1.1547 -0.0832 -0.6914
  168SAPE  H13R18978   0.070   2.413   7.340  2.9091 -0.2736  0.1532
  168SAPE  H13S18979   0.010   2.318   7.211  2.4621  1.3734 -1.5801
  168SAPE  C21418980   0.212   2.276   7.248 -0.0997 -0.0340 -0.4614
  168SAPE  H14R18981   0.224   2.189   7.182  0.6692  0.0198 -0.3936
  168SAPE  C21518982   0.326   2.340   7.267  0.7150  0.2969 -0.7054
  168SAPE  H15R18983   0.418   2.313   7.214  0.3814 -0.7993 -0.7538
  168SAPE  C21618984   0.345   2.470   7.345  0.0532 -0.1848 -0.0352
  168SAPE  H16R18985   0.280   2.548   7.301 -0.9872 -1.0887 -0.1239
  168SAPE  H16S18986   0.451   2.503   7.335 -0.0529  0.5116  1.0058
  168SAPE  C21718987   0.305   2.471   7.496 -0.8101 -0.8419  0.2654
  168SAPE  H17R18988   0.353   2.399   7.567 -3.7768 -2.5742  0.6504
  168SAPE  H17S18989   0.202   2.431   7.497  0.0427 -3.2480  2.0558
  168SAPE  C21818990   0.311   2.621   7.547  0.5865 -0.3732  0.0446
  168SAPE  H18R18991   0.235   2.665   7.479 -0.3226 -2.4501 -0.3344
  168SAPE  H18S18992   0.414   2.663   7.546  1.4386 -2.3870 -0.7467
  168SAPE  C21918993   0.246   2.642   7.687  0.1799  0.2060 -0.3031
  168SAPE  H19R18994   0.150   2.586   7.691 -0.2725  0.8127 -1.9861
  168SAPE  H19S18995   0.227   2.751   7.692  2.5887  0.7194 -0.8699
  168SAPE  C22018996   0.330   2.595   7.810  0.4348 -0.1494  0.6538
  168SAPE  H20R18997   0.283   2.594   7.911 -0.4612  0.2047  0.2520
  168SAPE  H20S18998   0.425   2.653   7.814 -0.6900  1.8735 -0.2879
  168SAPE  H20T18999   0.366   2.491   7.798  2.2769  0.5339 -0.1505
  168SAPE   C3319000   0.366   1.988   7.390  0.1164  1.1104 -0.3415
  168SAPE   H3X19001   0.265   2.031   7.375 -2.0280 -2.0510  3.1557
  168SAPE   H3Y19002   0.437   2.061   7.345  0.6512  0.9464  0.2268
  168SAPE   C3419003   0.388   1.986   7.543 -0.6436  0.1527 -0.2255
  168SAPE   H4X19004   0.493   1.951   7.558 -0.5971 -0.8350 -2.5204
  168SAPE   H4Y19005   0.301   1.930   7.584 -1.0774  0.9988  0.0398
  168SAPE   C3519006   0.375   2.130   7.605 -0.5479  0.4470  0.1706
  168SAPE   H5X19007   0.284   2.177   7.564  1.4236  2.0394 -2.7281
  168SAPE   H5Y19008   0.457   2.183   7.553 -0.1203  0.1381  0.5147
  168SAPE   C3619009   0.368   2.147   7.756 -0.0707  0.1783 -0.1143
  168SAPE   H6X19010   0.326   2.052   7.796  1.8342 -1.0414 -0.8618
  168SAPE   H6Y19011   0.301   2.231   7.785 -0.5525  0.0795 -0.9349
  168SAPE   C3719012   0.506   2.180   7.818 -0.2641 -0.1279 -0.3520
  168SAPE   H7X19013   0.561   2.245   7.747 -0.3956  1.5056  0.9782
  168SAPE   H7Y19014   0.555   2.081   7.835  1.5737  0.8323  0.1257
  168SAPE   C3819015   0.475   2.250   7.949  0.3291 -0.0664  0.0996
  168SAPE   H8X19016   0.402   2.189   8.007  1.4651 -2.9063 -1.2510
  168SAPE   H8Y19017   0.413   2.339   7.923 -0.7598 -1.4138 -2.2148
  168SAPE   C3919018   0.594   2.282   8.037  0.3723  0.1392 -0.1767
  168SAPE   H9X19019   0.651   2.368   7.996  0.3583  1.2632  2.0233
  168SAPE   H9Y19020   0.653   2.188   8.035  1.3708  0.6766  1.8315
  168SAPE  C31019021   0.554   2.314   8.176 -0.6525 -0.0402  0.1386
  168SAPE  H10X19022   0.502   2.226   8.218 -1.3445 -0.2036 -1.0071
  168SAPE  H10Y19023   0.493   2.402   8.205 -0.2398  0.0820  0.6495
  168SAPE  C31119024   0.686   2.326   8.264 -0.1317  0.0115 -0.3892
  168SAPE  H11X19025   0.722   2.431   8.266 -1.6357  0.5426  0.7790
  168SAPE  H11Y19026   0.763   2.264   8.212 -0.2361 -0.0266 -0.4970
  168SAPE  C31219027   0.679   2.259   8.411  0.4429  0.4657  0.0984
  168SAPE  H12X19028   0.651   2.153   8.394  2.5244 -0.7115  3.1258
  168SAPE  H12Y19029   0.599   2.300   8.475 -0.0333 -2.6319  1.6984
  168SAPE  C31319030   0.827   2.258   8.462 -0.6251  0.0598 -1.0353
  168SAPE  H13X19031   0.867   2.360   8.476  0.3448 -0.4375 -0.0017
  168SAPE  H13Y19032   0.892   2.207   8.387  0.4974  3.1538 -2.3461
  168SAPE  C31419033   0.830   2.179   8.593 -0.3070  0.1833 -0.2194
  168SAPE  H14X19034   0.768   2.087   8.590  0.6444 -0.5097  0.6757
  168SAPE  H14Y19035   0.797   2.245   8.677  0.1847 -0.8263  0.7949
  168SAPE  C31519036   0.969   2.125   8.617 -0.0051 -0.3170 -0.4962
  168SAPE  H15X19037   1.034   2.210   8.587 -0.5489  0.0124 -0.7406
  168SAPE  H15Y19038   0.993   2.046   8.542 -1.0474 -0.7119 -0.4224
  168SAPE  C31619039   0.995   2.069   8.757 -0.7618 -0.0260  0.4534
  168SAPE  H16X19040   0.955   1.967   8.776  0.0350 -0.6000 -0.8252
  168SAPE  H16Y19041   0.976   2.148   8.833  2.6010  0.5634  0.8229
  168SAPE  C31719042   1.151   2.039   8.780  0.2471 -0.0685  0.1777
  168SAPE  H17X19043   1.217   2.102   8.717  0.7865  0.2713  1.0569
  168SAPE  H17Y19044   1.165   1.933   8.748  0.4903  0.2540 -0.8154
  168SAPE  C31819045   1.194   2.048   8.923  0.0136 -0.0094 -0.2947
  168SAPE  H18X19046   1.127   1.993   8.992  0.2610  1.6737  1.3509
  168SAPE  H18Y19047   1.186   2.151   8.962  0.5048 -0.2427  0.4394
  168SAPE  H18Z19048   1.299   2.012   8.925 -0.0362 -0.3036 -1.8533
  169SAPE     N19049   0.060   5.131   6.398 -0.2139 -0.1940  0.1964
  169SAPE   HN119050  -0.020   5.112   6.335  0.8208  0.7592 -1.4619
  169SAPE   HN219051   0.111   5.220   6.386 -0.7287  0.3466  1.7372
  169SAPE   HN319052   0.129   5.053   6.397  2.2407  1.8303 -2.3752
  169SAPE   C1219053   0.003   5.145   6.535  0.0680 -0.4744 -0.6259
  169SAPE  H12A19054   0.035   5.243   6.576 -1.4868 -0.6468  1.1619
  169SAPE  H12B19055   0.053   5.069   6.598  2.8368  0.1672 -1.9133
  169SAPE   C1119056  -0.147   5.154   6.530  0.2664  0.8540  1.1759
  169SAPE  H11A19057  -0.182   5.242   6.473  0.2242  0.6507  0.8871
  169SAPE  H11B19058  -0.195   5.159   6.630 -2.3975 -2.1059  0.2306
  169SAPE     P19059  -0.322   4.957   6.512  0.3704 -0.4951  0.1566
  169SAPE   O1319060  -0.442   5.045   6.513 -0.4246 -0.4001  0.4620
  169SAPE   O1419061  -0.326   4.842   6.424 -0.0168  0.3022  0.3466
  169SAPE   O1219062  -0.201   5.043   6.458 -0.2909 -0.1462 -0.1500
  169SAPE   O1119063  -0.292   4.896   6.653  0.0528  0.3983 -0.4963
  169SAPE    C119064  -0.188   4.808   6.676  1.0326 -0.2325  0.1863
  169SAPE    HA19065  -0.215   4.709   6.631 -0.7677  0.5202 -0.4788
  169SAPE    HB19066  -0.088   4.834   6.635  1.8662 -0.4994  1.9665
  169SAPE    C219067  -0.157   4.795   6.831  0.4268  0.1429 -0.3906
  169SAPE    HS19068  -0.240   4.731   6.870 -0.2664 -0.3099 -2.4856
  169SAPE   O2119069  -0.155   4.922   6.901 -0.4939  0.0434 -0.5304
  169SAPE   C2119070  -0.270   4.986   6.913 -0.3137  0.2087 -0.5871
  169SAPE   O2219071  -0.382   4.936   6.902 -0.2627 -0.1880  0.0969
  169SAPE   C2219072  -0.250   5.140   6.942  0.0133  0.7440  0.7845
  169SAPE   H2R19073  -0.168   5.162   6.871 -1.7898 -0.3556 -1.8141
  169SAPE   H2S19074  -0.337   5.189   6.892 -1.0659 -0.8384  1.0291
  169SAPE    C319075  -0.025   4.725   6.872 -0.0168 -0.0503 -0.3297
  169SAPE    HX19076  -0.042   4.730   6.982 -3.6935 -0.3406 -0.7628
  169SAPE    HY19077   0.059   4.780   6.826 -0.7258 -0.0725 -1.6863
  169SAPE   O3119078  -0.025   4.587   6.825  0.0310 -0.3752 -0.1749
  169SAPE   C3119079   0.075   4.510   6.878  0.1144 -0.4837  0.3935
  169SAPE   O3219080   0.160   4.549   6.954 -0.3352 -0.2628  0.2202
  169SAPE   C3219081   0.062   4.372   6.823  0.1259 -0.2635  0.1773
  169SAPE   H2X19082   0.162   4.323   6.814  0.8730  1.3450 -0.5329
  169SAPE   H2Y19083   0.013   4.367   6.724  0.1960  0.1125  0.1219
  169SAPE   C2319084  -0.235   5.176   7.090  0.4569 -0.0615  0.2746
  169SAPE   H3R19085  -0.203   5.282   7.100  0.4909 -0.1856  1.6756
  169SAPE   H3S19086  -0.160   5.123   7.152  1.5209  0.9460 -0.1174
  169SAPE   C2419087  -0.372   5.170   7.167  0.0616  0.1643 -0.8628
  169SAPE   H4R19088  -0.406   5.066   7.150 -1.4415  0.0509  2.2236
  169SAPE   H4S19089  -0.447   5.238   7.120 -2.4977 -1.0389  1.2403
  169SAPE   C2519090  -0.347   5.200   7.317  0.4067 -0.2040  0.1648
  169SAPE   H5R19091  -0.341   5.309   7.333  0.9741 -0.0941 -0.7415
  169SAPE   C2619092  -0.333   5.119   7.425 -0.7398  0.1791  0.0516
  169SAPE   H6R19093  -0.331   5.155   7.529 -0.3556 -1.9859  0.8299
  169SAPE   C2719094  -0.334   4.971   7.423  0.1523  0.2859 -0.2332
  169SAPE   H7R19095  -0.312   4.942   7.318 -2.0496 -1.3098 -0.3309
  169SAPE   H7S19096  -0.437   4.931   7.439  1.3448 -2.8426  0.4337
  169SAPE   C2819097  -0.232   4.900   7.508 -0.4734 -0.0334 -0.3854
  169SAPE   H8R19098  -0.252   4.907   7.616  2.5840 -0.0351  0.2783
  169SAPE   C2919099  -0.116   4.836   7.469 -0.6225  0.4193 -0.3520
  169SAPE   H9R19100  -0.056   4.774   7.538 -3.0712 -0.9855  0.6443
  169SAPE  C21019101  -0.072   4.839   7.328  0.3169  0.1956 -0.4054
  169SAPE  H10R19102  -0.071   4.946   7.295 -1.7767  0.4901  0.3477
  169SAPE  H10S19103  -0.159   4.804   7.268  0.5243 -1.8751  0.4300
  169SAPE  C21119104   0.048   4.755   7.285 -0.2101 -0.1442  0.2633
  169SAPE  H11R19105   0.106   4.808   7.208  0.3639  2.0518  2.0820
  169SAPE  C21219106   0.086   4.629   7.313  0.4015 -0.8343  0.2714
  169SAPE  H12R19107   0.157   4.575   7.249  1.5358 -1.8112  2.2377
  169SAPE  C21319108   0.016   4.532   7.405  0.7361  0.1764  0.2060
  169SAPE  H13R19109  -0.034   4.455   7.343 -0.1156  0.9566 -0.0919
  169SAPE  H13S19110  -0.062   4.580   7.468  0.4111  3.3604 -2.3577
  169SAPE  C21419111   0.113   4.463   7.500  0.2553  0.5401 -0.2405
  169SAPE  H14R19112   0.209   4.437   7.453 -1.0301 -2.3608 -1.4837
  169SAPE  C21519113   0.089   4.414   7.620 -0.2310  0.0698 -0.0250
  169SAPE  H15R19114   0.173   4.383   7.683 -1.0203  1.6288  1.9022
  169SAPE  C21619115  -0.047   4.425   7.688 -0.4222 -0.2396  0.1430
  169SAPE  H16R19116  -0.126   4.424   7.609 -1.0073  0.3581  0.6997
  169SAPE  H16S19117  -0.053   4.522   7.743  2.2829 -0.2266  0.5180
  169SAPE  C21719118  -0.046   4.313   7.792  0.3502 -0.2368  0.2090
  169SAPE  H17R19119  -0.017   4.212   7.756  1.5102  0.1232  0.0926
  169SAPE  H17S19120  -0.152   4.293   7.821  0.1253 -0.3312 -0.6681
  169SAPE  C21819121   0.044   4.330   7.922 -0.0977  0.4256  0.4325
  169SAPE  H18R19122   0.032   4.434   7.959 -0.2379  0.7017 -0.3819
  169SAPE  H18S19123   0.145   4.306   7.885 -0.4621 -0.1329 -0.2203
  169SAPE  C21919124   0.005   4.223   8.027 -0.1344 -0.4104 -0.1139
  169SAPE  H19R19125   0.009   4.124   7.976  2.2218 -0.3897 -0.0386
  169SAPE  H19S19126  -0.101   4.240   8.056 -0.3990 -1.5691 -0.3467
  169SAPE  C22019127   0.092   4.221   8.152  0.1489 -0.1061 -0.1101
  169SAPE  H20R19128   0.039   4.187   8.244  0.0307  3.4291  1.2718
  169SAPE  H20S19129   0.122   4.327   8.166 -0.5969  0.0638  0.2254
  169SAPE  H20T19130   0.189   4.169   8.138 -0.1866 -0.5470 -0.8790
  169SAPE   C3319131  -0.017   4.286   6.922  0.2153 -0.1936 -0.9437
  169SAPE   H3X19132   0.019   4.317   7.023  0.3670 -0.8940 -0.7704
  169SAPE   H3Y19133  -0.005   4.176   6.906 -1.5248 -0.5761  0.0638
  169SAPE   C3419134  -0.168   4.313   6.901 -0.4440  0.4588 -0.1515
  169SAPE   H4X19135  -0.200   4.287   6.798 -0.7027  0.9841 -0.2080
  169SAPE   H4Y19136  -0.178   4.423   6.910  2.2484  0.7657 -0.0256
  169SAPE   C3519137  -0.267   4.235   6.991  0.5816  0.5232  0.9006
  169SAPE   H5X19138  -0.229   4.130   6.995  1.0434  0.7245  1.9486
  169SAPE   H5Y19139  -0.370   4.246   6.952  0.7935  0.0600  0.1745
  169SAPE   C3619140  -0.272   4.293   7.139  0.1317 -0.1069  0.9634
  169SAPE   H6X19141  -0.338   4.382   7.130  2.0387  1.5629  2.4357
  169SAPE   H6Y19142  -0.170   4.321   7.174  0.5076  0.8503 -0.7736
  169SAPE   C3719143  -0.344   4.199   7.238  0.2667  0.5479  0.4513
  169SAPE   H7X19144  -0.277   4.111   7.250  1.0342  1.0570  0.0093
  169SAPE   H7Y19145  -0.447   4.171   7.207 -0.6198  1.1824  2.6980
  169SAPE   C3819146  -0.373   4.252   7.375  0.1716 -0.0477 -0.3091
  169SAPE   H8X19147  -0.445   4.336   7.368  1.3890  1.0818  0.1991
  169SAPE   H8Y19148  -0.282   4.307   7.409 -0.4441 -0.2952  1.8939
  169SAPE   C3919149  -0.409   4.140   7.479  0.0518  0.1522  0.3829
  169SAPE   H9X19150  -0.321   4.079   7.508  0.5383  0.3860 -0.5490
  169SAPE   H9Y19151  -0.483   4.072   7.431  0.5008 -1.4756  1.9045
  169SAPE  C31019152  -0.471   4.206   7.600 -0.4079  0.6290  0.2727
  169SAPE  H10X19153  -0.567   4.260   7.584 -2.3129 -2.4769  0.5265
  169SAPE  H10Y19154  -0.399   4.283   7.634  0.5520  0.4098 -1.1425
  169SAPE  C31119155  -0.492   4.108   7.711  0.4361 -0.1573 -0.5237
  169SAPE  H11X19156  -0.403   4.043   7.725 -0.1436 -1.5387 -2.7315
  169SAPE  H11Y19157  -0.578   4.039   7.697 -0.5438 -0.6248  5.2433
  169SAPE  C31219158  -0.511   4.182   7.844 -0.0647 -0.3338  0.6637
  169SAPE  H12X19159  -0.614   4.225   7.849 -0.9790 -2.3255  0.1425
  169SAPE  H12Y19160  -0.444   4.269   7.833  0.7035 -1.1391 -1.6528
  169SAPE  C31319161  -0.477   4.090   7.965  0.3250 -0.0278 -1.2434
  169SAPE  H13X19162  -0.396   4.017   7.943 -0.1735 -0.7614 -0.6845
  169SAPE  H13Y19163  -0.561   4.027   8.002  0.0990  2.1175  2.4997
  169SAPE  C31419164  -0.425   4.175   8.082  0.4048 -0.2034  0.3963
  169SAPE  H14X19165  -0.484   4.269   8.084 -1.4214 -1.2730 -0.9265
  169SAPE  H14Y19166  -0.320   4.202   8.056  0.0472  0.0466 -0.8939
  169SAPE  C31519167  -0.434   4.102   8.213 -0.3564  0.2097  0.2935
  169SAPE  H15X19168  -0.350   4.030   8.226 -2.4143 -2.4355 -0.3380
  169SAPE  H15Y19169  -0.516   4.030   8.228 -1.1792  1.2972  1.2018
  169SAPE  C31619170  -0.442   4.195   8.333  0.5775 -0.7262 -0.2538
  169SAPE  H16X19171  -0.541   4.245   8.337  0.5678 -0.7575 -0.1278
  169SAPE  H16Y19172  -0.366   4.276   8.328  0.3116 -0.2718  2.0233
  169SAPE  C31719173  -0.419   4.118   8.460  0.1650 -1.3171 -0.7825
  169SAPE  H17X19174  -0.326   4.058   8.445  1.7854  1.2449 -1.6264
  169SAPE  H17Y19175  -0.504   4.053   8.488 -0.3288 -0.0595  0.7943
  169SAPE  C31819176  -0.385   4.211   8.582  0.4825 -0.5133  0.1038
  169SAPE  H18X19177  -0.296   4.275   8.561 -0.5988  1.7343  1.8844
  169SAPE  H18Y19178  -0.348   4.144   8.662 -1.4619 -1.8354 -0.0465
  169SAPE  H18Z19179  -0.471   4.275   8.611  1.1815  0.4120  0.1901
  170SAPE     N19180   0.591   0.314   6.171 -0.2641 -0.5579 -0.4947
  170SAPE   HN119181   0.638   0.378   6.103 -1.0122  1.0850  0.4896
  170SAPE   HN219182   0.570   0.366   6.258  0.6577 -2.1178  0.7056
  170SAPE   HN319183   0.660   0.239   6.191 -0.4038  0.0362  2.6864
  170SAPE   C1219184   0.462   0.258   6.123 -0.1102 -0.8085  0.4651
  170SAPE  H12A19185   0.433   0.165   6.178 -0.3624 -2.0836 -1.7293
  170SAPE  H12B19186   0.470   0.228   6.017 -0.7059  1.3073 -0.2148
  170SAPE   C1119187   0.356   0.361   6.145 -0.8297  0.5589  0.2381
  170SAPE  H11A19188   0.266   0.312   6.101 -1.0381 -0.6157  1.8896
  170SAPE  H11B19189   0.358   0.459   6.093 -1.3821 -0.4366 -1.7976
  170SAPE     P19190   0.363   0.499   6.358  0.6160 -0.0912  0.1564
  170SAPE   O1319191   0.508   0.512   6.342  0.0216 -0.0954  0.0991
  170SAPE   O1419192   0.276   0.612   6.313  0.0363  0.8029  0.5165
  170SAPE   O1219193   0.319   0.367   6.280  0.3301  0.6224  0.2532
  170SAPE   O1119194   0.328   0.466   6.512 -0.2965  0.3696 -0.6175
  170SAPE    C119195   0.192   0.450   6.555  0.2683  0.5978  0.2240
  170SAPE    HA19196   0.145   0.371   6.492  0.3986 -0.0047  0.8712
  170SAPE    HB19197   0.187   0.416   6.661  0.4584  1.9540  0.6893
  170SAPE    C219198   0.115   0.586   6.584  0.1431  0.4960  0.1989
  170SAPE    HS19199   0.110   0.636   6.485 -2.2109 -0.5826 -0.2737
  170SAPE   O2119200   0.197   0.661   6.681 -0.3718 -0.4540  0.1941
  170SAPE   C2119201   0.155   0.785   6.680  0.3345  0.6380 -0.0056
  170SAPE   O2219202   0.086   0.838   6.588  0.4364 -0.1345 -0.0123
  170SAPE   C2219203   0.218   0.858   6.801 -0.8218  0.6501 -0.0996
  170SAPE   H2R19204   0.189   0.965   6.801  0.4746  1.0228  0.5415
  170SAPE   H2S19205   0.173   0.816   6.894  1.8397  0.0368  1.0052
  170SAPE    C319206  -0.035   0.576   6.623  0.8177  0.1390  0.1772
  170SAPE    HX19207  -0.084   0.546   6.527 -1.0995 -0.7560  1.3805
  170SAPE    HY19208  -0.077   0.675   6.648  1.2090  0.0622  1.1726
  170SAPE   O3119209  -0.066   0.474   6.721 -0.3955 -0.1259  0.1221
  170SAPE   C3119210  -0.050   0.522   6.849 -0.2333  0.0616 -0.3056
  170SAPE   O3219211  -0.025   0.637   6.878 -0.5362  0.1835 -0.0878
  170SAPE   C3219212  -0.084   0.412   6.943  0.4002  0.6937 -0.3021
  170SAPE   H2X19213  -0.078   0.312   6.896  2.0236 -0.9320  3.0434
  170SAPE   H2Y19214  -0.180   0.434   6.995  1.8089 -0.2707  2.9001
  170SAPE   C2319215   0.373   0.844   6.813 -0.4149 -0.6285 -0.1530
  170SAPE   H3R19216   0.418   0.892   6.724 -0.6224  1.9404  1.0218
  170SAPE   H3S19217   0.396   0.737   6.834 -1.4211 -0.8700 -0.2375
  170SAPE   C2419218   0.428   0.926   6.936 -0.5322  0.4003  0.4753
  170SAPE   H4R19219   0.367   0.906   7.027 -1.2308  1.5599  0.2876
  170SAPE   H4S19220   0.414   1.034   6.915  0.5251  0.2359 -1.2278
  170SAPE   C2519221   0.571   0.912   6.974 -0.5674  0.3988  0.5371
  170SAPE   H5R19222   0.639   0.861   6.904  0.4068  0.2949  1.5348
  170SAPE   C2619223   0.630   0.963   7.081 -0.0946 -0.3457 -0.9028
  170SAPE   H6R19224   0.722   0.914   7.115 -0.1160  0.2171 -0.0006
  170SAPE   C2719225   0.561   1.040   7.195  0.1025 -0.3899  0.8659
  170SAPE   H7R19226   0.576   0.983   7.289 -0.1135 -1.1444  0.4518
  170SAPE   H7S19227   0.452   1.036   7.177  0.1432 -0.6500  0.6600
  170SAPE   C2819228   0.602   1.183   7.218 -0.5194 -0.7991  0.1685
  170SAPE   H8R19229   0.618   1.232   7.120 -1.0286 -0.7647  0.0989
  170SAPE   C2919230   0.632   1.242   7.334  0.9875 -0.3144 -0.7772
  170SAPE   H9R19231   0.636   1.351   7.337  1.9276 -0.3696  1.1283
  170SAPE  C21019232   0.629   1.170   7.466 -0.1460 -0.0054 -0.0107
  170SAPE  H10R19233   0.694   1.080   7.470 -0.7026 -0.4369 -0.4155
  170SAPE  H10S19234   0.527   1.136   7.494 -0.8622  2.9223  1.4135
  170SAPE  C21119235   0.680   1.256   7.579  0.3476  0.2473  0.4153
  170SAPE  H11R19236   0.749   1.338   7.553  0.5209  0.2326  0.8161
  170SAPE  C21219237   0.656   1.228   7.710 -0.4608  0.1814 -0.7938
  170SAPE  H12R19238   0.701   1.296   7.784  1.5606 -0.0482 -1.7286
  170SAPE  C21319239   0.570   1.116   7.771  0.1002 -0.3870  0.2552
  170SAPE  H13R19240   0.577   1.024   7.708 -0.4250  0.2758 -0.8113
  170SAPE  H13S19241   0.467   1.156   7.777 -0.2164 -1.2802  0.9221
  170SAPE  C21419242   0.618   1.081   7.907  0.4930  0.2898  0.2717
  170SAPE  H14R19243   0.701   1.008   7.904  0.4005  0.1967  0.0028
  170SAPE  C21519244   0.578   1.134   8.027 -0.1166  0.2109  0.0371
  170SAPE  H15R19245   0.626   1.093   8.117 -0.8196  0.4114  0.5171
  170SAPE  C21619246   0.476   1.238   8.042  0.1291  0.4884 -0.1059
  170SAPE  H16R19247   0.388   1.192   7.994 -0.4605  2.5904 -1.1441
  170SAPE  H16S19248   0.509   1.321   7.976 -0.9329  2.5203  1.7666
  170SAPE  C21719249   0.449   1.281   8.188 -0.5479 -0.5433 -0.3015
  170SAPE  H17R19250   0.432   1.196   8.258  0.2183 -1.6385 -1.4078
  170SAPE  H17S19251   0.356   1.341   8.193  0.1362  0.5559 -0.4200
  170SAPE  C21819252   0.569   1.351   8.249  0.4658  0.2612 -0.2378
  170SAPE  H18R19253   0.621   1.413   8.173 -1.1973  0.1574 -1.4976
  170SAPE  H18S19254   0.634   1.270   8.289  0.0397 -0.3321 -0.7382
  170SAPE  C21919255   0.519   1.424   8.378  0.2436 -0.2231 -0.0540
  170SAPE  H19R19256   0.605   1.474   8.428 -0.2085  0.3148  0.1907
  170SAPE  H19S19257   0.480   1.351   8.452  0.4994 -1.2505 -0.8917
  170SAPE  C22019258   0.414   1.541   8.360 -0.7549  0.6748 -0.4935
  170SAPE  H20R19259   0.418   1.618   8.440 -1.2835  0.3396 -0.1400
  170SAPE  H20S19260   0.313   1.496   8.352  0.2108 -1.6214 -0.7601
  170SAPE  H20T19261   0.440   1.608   8.275 -3.2099  1.4991 -0.6635
  170SAPE   C3319262   0.022   0.387   7.053  0.3018 -0.2090 -0.4056
  170SAPE   H3X19263   0.127   0.374   7.019 -0.0265 -1.9064 -0.9024
  170SAPE   H3Y19264  -0.010   0.290   7.097 -3.2858  0.3675 -1.3976
  170SAPE   C3419265   0.009   0.499   7.162  0.0011  0.1124 -0.5464
  170SAPE   H4X19266  -0.097   0.530   7.170  0.0955  0.6083 -1.1364
  170SAPE   H4Y19267   0.060   0.584   7.113 -0.1140  0.3472 -0.2579
  170SAPE   C3519268   0.073   0.457   7.293 -0.4173 -0.1940  0.5335
  170SAPE   H5X19269   0.181   0.437   7.277 -0.2359  2.3525 -2.2766
  170SAPE   H5Y19270   0.025   0.369   7.342  0.4485  0.2184  2.2082
  170SAPE   C3619271   0.067   0.573   7.388  0.4405  0.1772 -0.4632
  170SAPE   H6X19272  -0.039   0.601   7.406 -0.0830 -1.4109 -0.9153
  170SAPE   H6Y19273   0.105   0.665   7.339  0.3873  0.4331 -0.0249
  170SAPE   C3719274   0.145   0.555   7.520  0.1436 -0.4987 -0.2406
  170SAPE   H7X19275   0.248   0.516   7.503  0.8021  1.3045 -0.6231
  170SAPE   H7Y19276   0.092   0.483   7.585  0.9492 -0.5632  0.3649
  170SAPE   C3819277   0.147   0.689   7.611  0.5941  0.2461  0.4024
  170SAPE   H8X19278   0.048   0.740   7.603 -0.7054 -2.2602 -0.8663
  170SAPE   H8Y19279   0.222   0.754   7.561 -0.1291  0.2408 -0.7470
  170SAPE   C3919280   0.164   0.662   7.753 -0.3510  0.4857  0.1935
  170SAPE   H9X19281   0.261   0.608   7.762  0.2805  1.5024 -0.2614
  170SAPE   H9Y19282   0.078   0.604   7.793 -0.7570 -0.3517 -1.8124
  170SAPE  C31019283   0.163   0.787   7.844  0.0001 -0.0421 -0.3155
  170SAPE  H10X19284   0.067   0.837   7.818 -1.4634 -2.0148  0.9280
  170SAPE  H10Y19285   0.245   0.855   7.814  1.7402 -1.1442  1.6495
  170SAPE  C31119286   0.179   0.756   7.999 -0.0442  0.0879 -0.0390
  170SAPE  H11X19287   0.259   0.683   8.023 -1.2563 -0.2625  3.4305
  170SAPE  H11Y19288   0.078   0.723   8.032 -0.9783  2.6000 -0.1979
  170SAPE  C31219289   0.201   0.886   8.076  0.5090  0.1236  0.5403
  170SAPE  H12X19290   0.154   0.984   8.052  0.4918 -0.0983 -0.3597
  170SAPE  H12Y19291   0.306   0.912   8.049 -0.2928  1.0614 -2.0098
  170SAPE  C31319292   0.195   0.869   8.231 -0.2628 -0.9682  0.2875
  170SAPE  H13X19293   0.228   0.763   8.238  1.3405 -0.6073 -1.1616
  170SAPE  H13Y19294   0.091   0.880   8.267 -0.2240  2.9439 -0.3308
  170SAPE  C31419295   0.286   0.967   8.299  0.3058  0.3036 -1.8470
  170SAPE  H14X19296   0.243   1.070   8.298  0.1363  0.4272  2.1277
  170SAPE  H14Y19297   0.386   0.973   8.251 -0.3114  1.9705 -3.0215
  170SAPE  C31519298   0.302   0.933   8.452  0.5390 -0.0838  0.2970
  170SAPE  H15X19299   0.348   0.832   8.446  2.0960  0.6540 -1.0537
  170SAPE  H15Y19300   0.200   0.918   8.493  0.2704 -0.6022 -0.5115
  170SAPE  C31619301   0.381   1.036   8.536 -0.8039  0.1088 -0.5662
  170SAPE  H16X19302   0.371   1.020   8.645  2.2124  1.2781 -0.0193
  170SAPE  H16Y19303   0.343   1.140   8.523  0.7944  0.7826 -0.0668
  170SAPE  C31719304   0.532   1.032   8.495  0.3147  0.6706  0.3303
  170SAPE  H17X19305   0.548   1.055   8.388  0.9726  1.1798  0.5312
  170SAPE  H17Y19306   0.559   0.925   8.482 -2.5973 -0.0035 -0.9429
  170SAPE  C31819307   0.641   1.094   8.584 -0.7102 -0.1831  0.0870
  170SAPE  H18X19308   0.627   1.204   8.592  0.9889  0.1020 -0.3954
  170SAPE  H18Y19309   0.740   1.067   8.540 -1.0314 -2.4236  0.5963
  170SAPE  H18Z19310   0.622   1.041   8.680  1.3250 -0.1279  0.5758
  171SAPE     N19311   2.426   2.529   5.967 -0.0181  1.0060  1.0689
  171SAPE   HN119312   2.331   2.567   5.949 -0.8588  0.0260  3.0966
  171SAPE   HN219313   2.457   2.549   6.064  0.2450  1.5289  0.8781
  171SAPE   HN319314   2.492   2.582   5.907 -0.5174  2.1070  1.4792
  171SAPE   C1219315   2.415   2.377   5.954  0.5387  0.3799 -0.0870
  171SAPE  H12A19316   2.520   2.344   5.966  0.1430 -0.5774  0.8440
  171SAPE  H12B19317   2.374   2.353   5.853 -0.0044 -1.3322  0.5128
  171SAPE   C1119318   2.324   2.321   6.078 -1.0760 -0.3607  0.1999
  171SAPE  H11A19319   2.295   2.216   6.054  0.0823 -1.0783  1.7330
  171SAPE  H11B19320   2.226   2.373   6.078 -0.7569  0.3575 -2.2853
  171SAPE     P19321   2.355   2.437   6.311  0.5038  0.3171 -0.2196
  171SAPE   O1319322   2.470   2.458   6.400  0.1473  0.0433 -0.3402
  171SAPE   O1419323   2.298   2.561   6.256 -0.2662 -0.2687  0.0036
  171SAPE   O1219324   2.400   2.340   6.198 -0.1657 -0.1219 -0.0340
  171SAPE   O1119325   2.244   2.363   6.393 -0.4213 -0.2052 -0.4603
  171SAPE    C119326   2.273   2.265   6.501  0.3924  0.7083  0.3582
  171SAPE    HA19327   2.262   2.164   6.457 -0.5816  0.1506  1.8022
  171SAPE    HB19328   2.380   2.273   6.530  0.5838 -0.1643 -0.0938
  171SAPE    C219329   2.186   2.277   6.623 -0.0219 -0.5014  0.4022
  171SAPE    HS19330   2.193   2.372   6.681  0.1223 -0.5101  0.4011
  171SAPE   O2119331   2.222   2.178   6.722 -0.6405  0.4730  0.0952
  171SAPE   C2119332   2.337   2.205   6.797  0.6604  0.8617 -0.0872
  171SAPE   O2219333   2.408   2.302   6.785  0.0198  0.4716  0.4547
  171SAPE   C2219334   2.368   2.096   6.897  0.4266  0.0241  0.0566
  171SAPE   H2R19335   2.278   2.050   6.944  0.6771  1.1055  1.7002
  171SAPE   H2S19336   2.413   2.010   6.842 -0.7022 -1.4840  1.3823
  171SAPE    C319337   2.036   2.252   6.586 -0.3013 -0.6395 -0.8849
  171SAPE    HX19338   2.045   2.155   6.531 -0.5165 -0.1051 -1.8825
  171SAPE    HY19339   1.989   2.322   6.514  3.6263  1.0957 -1.9881
  171SAPE   O3119340   1.947   2.234   6.700  0.1204 -0.3994 -0.7104
  171SAPE   C3119341   1.937   2.353   6.762  0.1339  0.7569  0.5298
  171SAPE   O3219342   1.977   2.458   6.726 -0.4227 -0.1714  0.5973
  171SAPE   C3219343   1.872   2.330   6.902  0.6319 -0.0223  1.1999
  171SAPE   H2X19344   1.796   2.250   6.886  1.5154 -0.3512 -1.9373
  171SAPE   H2Y19345   1.821   2.427   6.917 -1.3432 -0.3371 -2.4275
  171SAPE   C2319346   2.467   2.136   7.002  0.4130 -1.7491 -0.8373
  171SAPE   H3R19347   2.558   2.183   6.960  0.2237 -0.0590  0.5420
  171SAPE   H3S19348   2.489   2.035   7.043 -3.4361 -2.7909 -0.8798
  171SAPE   C2419349   2.407   2.228   7.108  0.5765 -0.4719 -0.4528
  171SAPE   H4R19350   2.393   2.321   7.049 -2.2142 -1.3958 -1.4347
  171SAPE   H4S19351   2.482   2.246   7.188  0.8712  1.2231 -1.0718
  171SAPE   C2519352   2.279   2.193   7.176 -0.0257 -0.1867  0.1478
  171SAPE   H5R19353   2.201   2.185   7.099  1.2870  0.7632 -1.3325
  171SAPE   C2619354   2.262   2.179   7.307  0.0012 -0.8305  0.6527
  171SAPE   H6R19355   2.165   2.133   7.331  0.0648 -0.5884  1.4308
  171SAPE   C2719356   2.364   2.182   7.422  0.1233  0.7587 -0.1728
  171SAPE   H7R19357   2.470   2.203   7.395  0.6651 -1.0411  0.3698
  171SAPE   H7S19358   2.360   2.075   7.452  0.4585  0.8157  0.0829
  171SAPE   C2819359   2.317   2.271   7.530  0.2578  0.2008  0.5562
  171SAPE   H8R19360   2.303   2.377   7.506  2.6833  0.2350 -1.0690
  171SAPE   C2919361   2.287   2.244   7.658  0.4322 -0.6842  0.2347
  171SAPE   H9R19362   2.233   2.319   7.717 -0.3387 -0.2984 -0.9245
  171SAPE  C21019363   2.307   2.113   7.718  0.5727  0.2966  0.2284
  171SAPE  H10R19364   2.412   2.100   7.753 -0.1827 -1.9078  1.9604
  171SAPE  H10S19365   2.282   2.035   7.643 -0.9449  0.9740 -0.0028
  171SAPE  C21119366   2.223   2.085   7.838 -0.6019  0.0474 -0.3701
  171SAPE  H11R19367   2.151   2.005   7.815  0.5447 -0.8572 -0.9361
  171SAPE  C21219368   2.226   2.137   7.963 -0.6281 -0.4880 -0.4566
  171SAPE  H12R19369   2.156   2.088   8.032 -0.9391 -0.1071 -0.5001
  171SAPE  C21319370   2.323   2.238   8.018  0.0335  0.3693  0.3998
  171SAPE  H13R19371   2.407   2.240   7.945 -0.7684 -0.3117 -0.5694
  171SAPE  H13S19372   2.372   2.211   8.114  0.7097 -0.2564 -0.1008
  171SAPE  C21419373   2.253   2.364   8.039 -0.0938 -0.0074 -0.6745
  171SAPE  H14R19374   2.191   2.405   7.958 -1.4028  1.3125  0.9082
  171SAPE  C21519375   2.260   2.444   8.148 -0.7412 -0.0540 -0.4159
  171SAPE  H15R19376   2.206   2.540   8.153 -1.3577 -0.4641  1.1451
  171SAPE  C21619377   2.341   2.431   8.273 -0.2685 -0.9520 -0.7656
  171SAPE  H16R19378   2.384   2.532   8.295 -2.3143  0.0731 -1.2225
  171SAPE  H16S19379   2.428   2.364   8.260  1.0099  0.3024  0.7871
  171SAPE  C21719380   2.259   2.395   8.401  0.3161 -1.1465  0.2618
  171SAPE  H17R19381   2.177   2.469   8.408  0.7165 -0.4742 -1.5223
  171SAPE  H17S19382   2.327   2.417   8.486 -0.4769  0.4974  0.5069
  171SAPE  C21819383   2.196   2.257   8.402 -0.0579 -0.8498  0.3766
  171SAPE  H18R19384   2.261   2.184   8.348  0.2318  0.0229 -0.4834
  171SAPE  H18S19385   2.113   2.268   8.330  1.7519  0.3613 -1.6568
  171SAPE  C21919386   2.168   2.211   8.545 -0.4440  0.7993  0.3863
  171SAPE  H19R19387   2.271   2.198   8.585 -0.6254  1.3619  1.0428
  171SAPE  H19S19388   2.123   2.111   8.530  1.1376  0.0795  0.1593
  171SAPE  C22019389   2.082   2.304   8.621  0.2323  0.1614  0.0186
  171SAPE  H20R19390   1.991   2.335   8.565 -1.0773  0.9203  2.4045
  171SAPE  H20S19391   2.135   2.397   8.651 -0.3461 -0.0213  1.7173
  171SAPE  H20T19392   2.054   2.255   8.716 -1.3552 -2.8027 -1.8442
  171SAPE   C3319393   1.955   2.285   7.022 -0.1718 -0.0984 -0.0304
  171SAPE   H3X19394   2.052   2.339   7.026  0.7756 -1.6238 -1.3277
  171SAPE   H3Y19395   1.978   2.176   7.015 -2.3213 -0.5887 -0.1194
  171SAPE   C3419396   1.885   2.303   7.158 -1.8152 -0.3392  0.4752
  171SAPE   H4X19397   1.842   2.406   7.165  0.9953  0.8714  1.7915
  171SAPE   H4Y19398   1.959   2.293   7.241  0.0132 -3.0387 -1.3168
  171SAPE   C3519399   1.772   2.199   7.175 -0.0609  0.1717  0.2209
  171SAPE   H5X19400   1.819   2.099   7.168  0.6633  0.4532  0.8690
  171SAPE   H5Y19401   1.701   2.218   7.092 -0.7438  1.7628  1.1161
  171SAPE   C3619402   1.694   2.204   7.306 -0.0670 -0.1433 -0.2283
  171SAPE   H6X19403   1.620   2.123   7.290 -1.3178  0.9370 -0.1765
  171SAPE   H6Y19404   1.642   2.303   7.307  0.0661 -0.0610 -1.2018
  171SAPE   C3719405   1.782   2.196   7.426  0.3598  0.1876  0.1576
  171SAPE   H7X19406   1.811   2.300   7.452  1.1570 -0.0414  0.2110
  171SAPE   H7Y19407   1.871   2.133   7.406  0.9185  0.6966  0.9472
  171SAPE   C3819408   1.716   2.145   7.555 -0.2193  0.3799 -0.1338
  171SAPE   H8X19409   1.636   2.071   7.531 -0.6951  1.4209 -1.9517
  171SAPE   H8Y19410   1.664   2.237   7.592  1.0398  0.8010  0.6692
  171SAPE   C3919411   1.819   2.110   7.664  0.0767  0.2948 -0.5972
  171SAPE   H9X19412   1.891   2.193   7.678  0.9495 -0.6760  0.8790
  171SAPE   H9Y19413   1.882   2.024   7.631 -1.9856 -2.0567  1.2150
  171SAPE  C31019414   1.745   2.073   7.794  0.7384  0.3647 -0.1047
  171SAPE  H10X19415   1.678   1.984   7.789  0.2560  0.6455  1.0451
  171SAPE  H10Y19416   1.663   2.146   7.808 -1.0811 -0.7869 -3.5144
  171SAPE  C31119417   1.837   2.061   7.913  0.0285 -0.2124 -0.4035
  171SAPE  H11X19418   1.889   2.158   7.928 -0.5820  0.1983 -0.8965
  171SAPE  H11Y19419   1.919   1.993   7.882  0.2626  0.7705 -2.0765
  171SAPE  C31219420   1.774   2.010   8.044  0.9295  0.0749 -0.2774
  171SAPE  H12X19421   1.714   1.920   8.018  0.0789  0.7814 -0.8182
  171SAPE  H12Y19422   1.702   2.086   8.083  0.7930 -0.5068  0.6493
  171SAPE  C31319423   1.889   1.983   8.145  0.0675 -0.2850 -0.2508
  171SAPE  H13X19424   1.927   2.083   8.175 -4.1829  1.1087  1.3261
  171SAPE  H13Y19425   1.962   1.932   8.079 -1.0226 -0.9359 -0.9909
  171SAPE  C31419426   1.834   1.899   8.266  0.3549  0.6157 -0.1992
  171SAPE  H14X19427   1.823   1.792   8.242  2.9404  0.3077 -0.3190
  171SAPE  H14Y19428   1.739   1.945   8.300  0.1197 -0.8090  1.1456
  171SAPE  C31519429   1.937   1.901   8.388 -0.0606  0.0514  0.3929
  171SAPE  H15X19430   1.958   2.006   8.417  2.2362  0.0402 -1.0350
  171SAPE  H15Y19431   2.035   1.866   8.350 -0.1001 -1.8548  1.8662
  171SAPE  C31619432   1.888   1.820   8.512 -0.0092  0.3283  0.5924
  171SAPE  H16X19433   1.877   1.713   8.485  0.0700  0.2061  1.0392
  171SAPE  H16Y19434   1.792   1.859   8.550  0.5543 -1.2732  4.0345
  171SAPE  C31719435   1.990   1.819   8.625  0.4825 -0.4299 -0.4405
  171SAPE  H17X19436   2.092   1.806   8.581  1.1368  2.0352  0.2085
  171SAPE  H17Y19437   1.978   1.727   8.686 -1.1054 -2.4098 -3.4602
  171SAPE  C31819438   1.982   1.939   8.722 -0.3131 -0.1406  0.9400
  171SAPE  H18X19439   1.893   1.940   8.788 -2.0164  0.7214 -1.2437
  171SAPE  H18Y19440   1.975   2.032   8.660 -0.0208 -1.0473 -0.4940
  171SAPE  H18Z19441   2.079   1.942   8.775  0.2524 -3.1754  0.2287
  172SAPE     N19442   1.511   0.807   6.290  0.6352 -0.3820  0.2405
  172SAPE   HN119443   1.473   0.719   6.329 -1.2407 -0.8781 -2.4515
  172SAPE   HN219444   1.478   0.820   6.192  1.7561 -1.0148 -0.2399
  172SAPE   HN319445   1.615   0.806   6.294  0.8088  0.4822 -2.0857
  172SAPE   C1219446   1.469   0.923   6.372 -0.2759  0.3358 -0.0390
  172SAPE  H12A19447   1.467   0.884   6.477  2.2564 -0.5782 -0.2639
  172SAPE  H12B19448   1.366   0.956   6.348  0.0552  1.1119 -0.4199
  172SAPE   C1119449   1.574   1.029   6.372 -0.1062  0.3873  0.0084
  172SAPE  H11A19450   1.582   1.064   6.266  0.0132 -1.6631 -0.6983
  172SAPE  H11B19451   1.673   0.993   6.406  1.0391  0.6691 -2.7138
  172SAPE     P19452   1.597   1.275   6.435 -0.3750 -0.2507 -0.1806
  172SAPE   O1319453   1.565   1.336   6.307 -0.4832 -0.2884 -0.1922
  172SAPE   O1419454   1.556   1.359   6.547 -0.1023  0.3891 -0.0387
  172SAPE   O1219455   1.527   1.137   6.448  0.1852 -0.3860 -0.0955
  172SAPE   O1119456   1.752   1.244   6.443 -0.1216 -0.1433  0.1902
  172SAPE    C119457   1.812   1.226   6.572  0.9871 -0.4034  0.3211
  172SAPE    HA19458   1.742   1.258   6.652  0.4919  1.6435 -0.8727
  172SAPE    HB19459   1.832   1.117   6.586 -0.3738 -0.7655 -0.4177
  172SAPE    C219460   1.946   1.301   6.577  0.4116 -0.6247  0.1928
  172SAPE    HS19461   1.996   1.299   6.478 -1.9676 -1.9335 -1.0371
  172SAPE   O2119462   2.019   1.236   6.681 -0.4094 -0.0977  0.8026
  172SAPE   C2119463   2.147   1.274   6.684 -0.2364 -0.0960  0.2879
  172SAPE   O2219464   2.199   1.359   6.611  0.3973  0.0025  0.6271
  172SAPE   C2219465   2.219   1.191   6.793  0.2860  0.0318  0.4123
  172SAPE   H2R19466   2.140   1.147   6.857 -1.9033 -1.1174 -2.8246
  172SAPE   H2S19467   2.272   1.109   6.739 -1.2461 -1.9573  1.7690
  172SAPE    C319468   1.920   1.460   6.594  0.1736 -0.1849 -0.7953
  172SAPE    HX19469   1.849   1.479   6.511  0.1891  1.4642 -0.4496
  172SAPE    HY19470   2.010   1.522   6.572  0.2732  0.4899  1.3216
  172SAPE   O3119471   1.844   1.500   6.708  0.3579  0.1480 -0.1908
  172SAPE   C3119472   1.925   1.528   6.809  0.5004  0.2546  0.1320
  172SAPE   O3219473   2.043   1.513   6.814 -0.0823  0.4473  0.0030
  172SAPE   C3219474   1.842   1.571   6.935 -0.0705  0.8385 -0.4918
  172SAPE   H2X19475   1.746   1.612   6.897 -1.6019  0.6581  2.7791
  172SAPE   H2Y19476   1.890   1.662   6.977 -1.9891  2.4541 -1.6144
  172SAPE   C2319477   2.312   1.293   6.862  0.3066  0.6179 -0.2394
  172SAPE   H3R19478   2.247   1.355   6.928  1.5214 -0.6024  2.2667
  172SAPE   H3S19479   2.367   1.362   6.796  1.2919  0.7027  0.6377
  172SAPE   C2419480   2.410   1.215   6.950  0.1437 -0.2100 -0.2549
  172SAPE   H4R19481   2.477   1.154   6.886 -0.4114  0.7549 -1.8027
  172SAPE   H4S19482   2.347   1.146   7.010  0.1536 -1.4340 -1.6024
  172SAPE   C2519483   2.510   1.293   7.035  0.1637  0.5850  0.3958
  172SAPE   H5R19484   2.587   1.341   6.972 -1.2826  2.2576 -0.1783
  172SAPE   C2619485   2.511   1.322   7.160  0.1229 -0.1580 -0.2043
  172SAPE   H6R19486   2.593   1.381   7.205  1.1812  0.0074 -2.2476
  172SAPE   C2719487   2.411   1.275   7.263 -0.2299  0.5592 -0.1578
  172SAPE   H7R19488   2.444   1.187   7.322 -1.6365  0.5010  0.5915
  172SAPE   H7S19489   2.326   1.228   7.209 -0.8575  2.1777 -0.6428
  172SAPE   C2819490   2.364   1.382   7.361  0.3391 -0.8511 -0.1789
  172SAPE   H8R19491   2.282   1.439   7.315 -0.5424 -2.3400 -0.5411
  172SAPE   C2919492   2.403   1.411   7.488 -0.5516  0.5976 -0.3271
  172SAPE   H9R19493   2.355   1.497   7.537  0.8315  0.4135  1.4828
  172SAPE  C21019494   2.513   1.344   7.563 -0.9208  0.6218  0.2335
  172SAPE  H10R19495   2.609   1.400   7.571 -0.4392  0.1559 -1.8033
  172SAPE  H10S19496   2.541   1.246   7.520  1.5283  1.2890  0.1407
  172SAPE  C21119497   2.450   1.314   7.692 -0.1789  0.5014  0.0910
  172SAPE  H11R19498   2.341   1.297   7.691 -0.1104 -0.1728  1.5063
  172SAPE  C21219499   2.526   1.303   7.802 -0.7350  0.5671 -0.3014
  172SAPE  H12R19500   2.481   1.290   7.901 -0.2066  1.1057  0.0179
  172SAPE  C21319501   2.674   1.315   7.821 -0.3450  0.0561 -0.0520
  172SAPE  H13R19502   2.722   1.302   7.721  0.3133 -0.2736  0.2945
  172SAPE  H13S19503   2.712   1.232   7.885  0.7749  0.4365 -0.1926
  172SAPE  C21419504   2.716   1.444   7.884  0.1448  0.3874  0.0731
  172SAPE  H14R19505   2.722   1.531   7.817  0.0248 -0.5545 -1.1933
  172SAPE  C21519506   2.744   1.467   8.017 -0.1054 -0.4209 -0.1685
  172SAPE  H15R19507   2.760   1.570   8.051  1.2262 -1.2232  1.7981
  172SAPE  C21619508   2.739   1.366   8.124 -0.3409  1.3248  0.5574
  172SAPE  H16R19509   2.827   1.302   8.105 -1.4117 -0.0169 -0.0897
  172SAPE  H16S19510   2.650   1.303   8.100  1.3042 -0.6417 -0.7190
  172SAPE  C21719511   2.734   1.416   8.266 -0.3205 -0.0335 -0.2287
  172SAPE  H17R19512   2.811   1.495   8.279 -0.7911  0.2050  1.4888
  172SAPE  H17S19513   2.763   1.337   8.339 -1.3812  0.3646  0.6608
  172SAPE  C21819514   2.598   1.464   8.311  0.1936  0.1709  0.5942
  172SAPE  H18R19515   2.519   1.387   8.302 -1.2711  1.3310  2.5256
  172SAPE  H18S19516   2.571   1.544   8.238  1.6148  1.5792  1.5341
  172SAPE  C21919517   2.599   1.523   8.452  1.1566  0.3218  0.3358
  172SAPE  H19R19518   2.509   1.582   8.481  1.1528  0.1962  0.5821
  172SAPE  H19S19519   2.676   1.602   8.446 -0.1111  1.4976 -1.3044
  172SAPE  C22019520   2.634   1.424   8.563 -0.1197 -0.0786 -0.8165
  172SAPE  H20R19521   2.566   1.336   8.557 -1.2994  0.7422  0.1961
  172SAPE  H20S19522   2.615   1.484   8.655  1.0069 -1.4909  0.4003
  172SAPE  H20T19523   2.740   1.395   8.580  0.3013  2.3794  1.2409
  172SAPE   C3319524   1.832   1.453   7.033  0.2093  0.2263 -0.4629
  172SAPE   H3X19525   1.784   1.368   6.979  4.2238 -1.9506 -0.9880
  172SAPE   H3Y19526   1.777   1.498   7.118  2.1877  1.0353  0.4592
  172SAPE   C3419527   1.978   1.413   7.077  0.4796  0.5454 -0.0034
  172SAPE   H4X19528   2.040   1.505   7.075  0.5697  0.4750 -0.6240
  172SAPE   H4Y19529   2.015   1.356   6.990  1.2040  0.0147  0.6450
  172SAPE   C3519530   1.993   1.323   7.200 -0.2904 -0.6099  0.2894
  172SAPE   H5X19531   2.101   1.315   7.225 -0.3797 -0.7188  0.6455
  172SAPE   H5Y19532   1.970   1.223   7.159  0.6416 -0.9256  0.5042
  172SAPE   C3619533   1.930   1.378   7.327  0.4303  0.0067 -0.2270
  172SAPE   H6X19534   1.819   1.368   7.332  0.4772 -0.2312  0.5163
  172SAPE   H6Y19535   1.957   1.485   7.336  2.1417 -0.5129  1.4904
  172SAPE   C3719536   1.978   1.311   7.454  0.8622  0.9469 -0.1521
  172SAPE   H7X19537   1.936   1.361   7.544  0.6665 -3.7618  2.7541
  172SAPE   H7Y19538   2.088   1.328   7.458  1.3021 -1.1803 -1.4696
  172SAPE   C3819539   1.957   1.160   7.457 -0.6648  0.1359 -0.2988
  172SAPE   H8X19540   1.974   1.113   7.358 -2.9935 -0.0974 -0.6525
  172SAPE   H8Y19541   1.853   1.134   7.485  0.1557 -0.4087  2.6247
  172SAPE   C3919542   2.057   1.102   7.559  0.2305 -0.1444  0.0541
  172SAPE   H9X19543   2.160   1.115   7.519  0.8327  1.7128  2.0197
  172SAPE   H9Y19544   2.036   0.993   7.572 -2.5875  0.5156  2.0137
  172SAPE  C31019545   2.053   1.161   7.698  0.0020  0.5283  0.1101
  172SAPE  H10X19546   1.950   1.144   7.736 -1.1242  3.0192 -1.5135
  172SAPE  H10Y19547   2.071   1.270   7.700 -0.4199  0.6056 -0.2259
  172SAPE  C31119548   2.151   1.097   7.795  0.7765  1.1394 -0.2126
  172SAPE  H11X19549   2.245   1.094   7.736  0.7244  1.2843 -0.3024
  172SAPE  H11Y19550   2.111   0.994   7.811 -1.0406  1.6620 -1.0212
  172SAPE  C31219551   2.170   1.165   7.932 -0.0582  0.2523 -0.2521
  172SAPE  H12X19552   2.075   1.175   7.988  1.3853  2.4691  1.9842
  172SAPE  H12Y19553   2.214   1.267   7.919  3.9269 -1.3649 -1.0433
  172SAPE  C31319554   2.253   1.087   8.037 -0.4900 -0.1410 -0.4417
  172SAPE  H13X19555   2.358   1.122   8.042 -1.1348  1.7589  1.4079
  172SAPE  H13Y19556   2.251   0.979   8.014  0.1230 -0.4464  0.8920
  172SAPE  C31419557   2.211   1.115   8.177  1.2205  0.5358 -0.2214
  172SAPE  H14X19558   2.104   1.085   8.187  1.7251 -1.8285 -1.3095
  172SAPE  H14Y19559   2.215   1.226   8.191 -0.6007  0.6764 -0.5473
  172SAPE  C31519560   2.302   1.058   8.284 -0.0695  0.5222  0.1243
  172SAPE  H15X19561   2.405   1.095   8.260  0.3475 -0.3083  0.6003
  172SAPE  H15Y19562   2.299   0.949   8.266 -1.1182  0.4567  0.6309
  172SAPE  C31619563   2.263   1.077   8.429 -0.4019 -0.5423  0.4555
  172SAPE  H16X19564   2.331   1.023   8.498 -0.4875 -2.1266 -0.6596
  172SAPE  H16Y19565   2.158   1.043   8.440  0.1449 -2.1980  0.6927
  172SAPE  C31719566   2.270   1.227   8.464  0.5243 -0.4747  0.2021
  172SAPE  H17X19567   2.172   1.272   8.438 -0.0249 -1.9846 -0.4135
  172SAPE  H17Y19568   2.351   1.270   8.401  1.5023 -0.6868  1.2862
  172SAPE  C31819569   2.279   1.270   8.611 -0.0506 -0.0251  0.4992
  172SAPE  H18X19570   2.380   1.250   8.653  1.0166  1.8093 -1.0181
  172SAPE  H18Y19571   2.202   1.219   8.672 -1.1421 -2.1335 -2.4151
  172SAPE  H18Z19572   2.261   1.379   8.601  0.4719 -0.1328 -2.3820
  173SOPE     N19573   2.653   6.095  11.055 -1.0510  0.1054 -0.5180
  173SOPE   HN119574   2.667   6.019  11.124 -0.3213  0.6284 -0.0729
  173SOPE   HN219575   2.636   6.186  11.104  2.1898 -0.6614  2.4237
  173SOPE   HN319576   2.564   6.083  11.002 -1.1408  0.6379 -0.5001
  173SOPE   C1219577   2.777   6.093  10.964  0.1875  0.5973  0.6011
  173SOPE  H12A19578   2.860   6.123  11.031  1.1262 -0.2829 -0.1352
  173SOPE  H12B19579   2.759   6.181  10.898 -1.4025  1.6582  2.3621
  173SOPE   C1119580   2.803   5.963  10.893  0.3103  0.5431  0.0660
  173SOPE  H11A19581   2.902   5.978  10.845  0.6083  0.8085  0.7602
  173SOPE  H11B19582   2.723   5.953  10.817 -1.7233 -0.9261  2.2370
  173SOPE     P19583   2.711   5.729  10.963 -0.4814  0.3176  0.1713
  173SOPE   O1319584   2.601   5.774  11.043  0.0344 -0.3160 -0.0417
  173SOPE   O1419585   2.767   5.596  10.989  0.0071  0.7413  0.3337
  173SOPE   O1219586   2.815   5.846  10.974 -0.7708 -0.5338 -0.6798
  173SOPE   O1119587   2.666   5.731  10.819  0.2749 -0.2587  0.3118
  173SOPE    C119588   2.752   5.692  10.712  0.2029  0.7993  0.0555
  173SOPE    HA19589   2.825   5.614  10.743 -1.5554 -0.1017  2.2099
  173SOPE    HB19590   2.805   5.783  10.678  0.0438  0.3947 -1.3599
  173SOPE    C219591   2.666   5.640  10.587 -0.3816 -0.9067 -0.8047
  173SOPE    HS19592   2.730   5.584  10.516  1.3834  2.2030 -1.8529
  173SOPE   O2119593   2.612   5.762  10.522 -0.4627 -0.3823 -0.4238
  173SOPE   C2119594   2.571   5.759  10.395  0.2627  0.2296 -0.4368
  173SOPE   O2219595   2.565   5.658  10.332  0.1675  0.1614 -0.3298
  173SOPE   C2219596   2.542   5.905  10.345  0.1450  0.4970 -0.8476
  173SOPE   H2R19597   2.633   5.968  10.354  1.0309 -0.5985 -1.7613
  173SOPE   H2S19598   2.472   5.956  10.414 -0.0408  0.9455 -1.3674
  173SOPE    C319599   2.551   5.553  10.640 -1.7238  0.2535 -0.4275
  173SOPE    HX19600   2.496   5.603  10.722 -0.3549  1.4805 -0.2208
  173SOPE    HY19601   2.596   5.460  10.683 -1.8442  0.5649  0.3921
  173SOPE   O3119602   2.462   5.508  10.528 -0.2443  0.0112 -0.6044
  173SOPE   C3119603   2.510   5.402  10.457  0.7207  0.7463 -0.1155
  173SOPE   O3219604   2.609   5.337  10.490  0.3199 -0.1605 -0.0870
  173SOPE   C3219605   2.422   5.380  10.335 -0.0421 -0.5776  0.2718
  173SOPE   H2X19606   2.354   5.465  10.316 -0.1797 -1.2395 -2.6202
  173SOPE   H2Y19607   2.366   5.286  10.352  2.0657 -1.5965  2.3026
  173SOPE   C2319608   2.476   5.912  10.202  0.2498 -0.1899  0.0017
  173SOPE   H3R19609   2.451   6.019  10.190  2.0875  0.3144  0.2844
  173SOPE   H3S19610   2.383   5.855  10.181  0.6527 -0.6807 -0.4892
  173SOPE   C2419611   2.587   5.879  10.096  0.0592  0.5635  0.1408
  173SOPE   H4R19612   2.682   5.935  10.104 -0.7286  1.7512  1.7120
  173SOPE   H4S19613   2.609   5.770  10.107  0.9877  0.5234 -1.6818
  173SOPE   C2519614   2.526   5.886   9.953  0.1163 -0.1014  0.1587
  173SOPE   H5R19615   2.432   5.827   9.962 -0.5157  0.8685 -0.0236
  173SOPE   H5S19616   2.500   5.991   9.929 -1.1542 -0.1138  1.3476
  173SOPE   C2619617   2.620   5.821   9.844  0.6230 -0.4700 -0.2827
  173SOPE   H6R19618   2.725   5.857   9.840  0.0932  1.0536 -1.5599
  173SOPE   H6S19619   2.634   5.713   9.863  1.5737 -0.4254 -0.6724
  173SOPE   C2719620   2.554   5.839   9.705 -0.5005  0.6297  0.4088
  173SOPE   H7R19621   2.457   5.785   9.701  0.8369 -1.8776 -0.4844
  173SOPE   H7S19622   2.529   5.947   9.700 -0.7993  0.5358 -0.2417
  173SOPE   C2819623   2.649   5.807   9.588  0.5650 -0.2089  0.2745
  173SOPE   H8R19624   2.669   5.903   9.538 -0.2210 -0.5602 -0.7380
  173SOPE   H8S19625   2.746   5.782   9.637  0.7793 -1.5007 -0.7553
  173SOPE   C2919626   2.613   5.700   9.493  0.4023  0.0684  0.3402
  173SOPE   H9119627   2.595   5.597   9.528 -0.4852  0.0220 -0.2040
  173SOPE  C21019628   2.588   5.726   9.362  0.2081 -0.2880  0.2346
  173SOPE  H10119629   2.569   5.639   9.296  3.1737 -0.2873 -0.7530
  173SOPE  C21119630   2.594   5.858   9.285  0.0926 -0.3361  0.0638
  173SOPE  H11R19631   2.695   5.899   9.305 -0.6133  0.8473  1.3898
  173SOPE  H11S19632   2.510   5.923   9.318 -2.2201 -1.9058 -2.3262
  173SOPE  C21219633   2.578   5.852   9.130 -0.2450  0.3740 -0.2194
  173SOPE  H12R19634   2.547   5.955   9.100 -0.5266  0.8606  1.6266
  173SOPE  H12S19635   2.508   5.772   9.099  0.3817 -0.1719 -0.2490
  173SOPE  C21319636   2.709   5.808   9.066  0.0700 -0.3227  0.9426
  173SOPE  H13R19637   2.725   5.705   9.105  1.3649 -0.9981 -1.1766
  173SOPE  H13S19638   2.793   5.873   9.098 -0.1670  0.4738 -0.0009
  173SOPE  C21419639   2.709   5.795   8.911  0.2367 -0.0886 -0.1301
  173SOPE  H14R19640   2.613   5.755   8.871  0.5419 -3.2059  1.9065
  173SOPE  H14S19641   2.785   5.726   8.871  0.3247 -0.2533  0.3163
  173SOPE  C21519642   2.744   5.936   8.854 -0.8226  0.1513  0.0219
  173SOPE  H15R19643   2.843   5.977   8.885 -0.3956 -0.9608  0.1928
  173SOPE  H15S19644   2.677   6.013   8.897  1.0121  1.3986  0.7615
  173SOPE  C21619645   2.731   5.941   8.695 -0.6921  0.0681 -0.0749
  173SOPE  H16R19646   2.645   6.003   8.664  1.6526  3.9410  0.4489
  173SOPE  H16S19647   2.730   5.832   8.676  1.0933 -0.5973  2.8844
  173SOPE  C21719648   2.854   6.004   8.636 -0.3793 -0.3613  0.8166
  173SOPE  H17R19649   2.943   5.947   8.669  1.3412  1.6905 -0.0104
  173SOPE  H17S19650   2.876   6.109   8.666  0.4127  0.3310 -1.8678
  173SOPE  C21819651   2.828   6.009   8.490  0.7053 -0.0878 -0.1703
  173SOPE  H18R19652   2.747   6.080   8.465  0.0414 -1.1617 -1.1935
  173SOPE  H18S19653   2.812   5.903   8.462  1.5427 -0.4999  0.8403
  173SOPE  H18T19654   2.918   6.042   8.433  1.2242 -0.8236  0.1924
  173SOPE   C3319655   2.502   5.367  10.201 -0.0444 -0.0771  0.2798
  173SOPE   H3X19656   2.571   5.280  10.205  1.3485  0.8623 -1.6760
  173SOPE   H3Y19657   2.577   5.449  10.195  1.6986 -1.6084  0.2746
  173SOPE   C3419658   2.408   5.383  10.078 -0.5269  0.0350 -0.0316
  173SOPE   H4X19659   2.376   5.489  10.085 -0.0269  0.1139  1.3603
  173SOPE   H4Y19660   2.324   5.312  10.092 -0.5126  0.1063  0.4358
  173SOPE   C3519661   2.486   5.358   9.948  0.4081 -0.4554 -0.7625
  173SOPE   H5X19662   2.496   5.248   9.935  1.3567 -0.1866 -2.5243
  173SOPE   H5Y19663   2.589   5.397   9.955  0.0112  0.3592  2.4111
  173SOPE   C3619664   2.424   5.422   9.826  0.2841 -0.0638  0.8399
  173SOPE   H6X19665   2.400   5.528   9.847  1.2436  0.3157  0.1076
  173SOPE   H6Y19666   2.328   5.368   9.812  1.4845 -1.7519 -1.4736
  173SOPE   C3719667   2.506   5.412   9.698 -0.2091  0.1548  0.2298
  173SOPE   H7X19668   2.608   5.455   9.708  0.4907 -1.8072  2.5884
  173SOPE   H7Y19669   2.449   5.458   9.615 -0.3360  0.2689  0.3798
  173SOPE   C3819670   2.517   5.267   9.651  0.3479  0.1335 -0.2118
  173SOPE   H8X19671   2.411   5.237   9.642  1.0714 -2.6181 -0.5413
  173SOPE   H8Y19672   2.566   5.207   9.731 -0.3114  0.4578  0.4391
  173SOPE   C3919673   2.605   5.250   9.518  0.2461 -0.3325 -0.9291
  173SOPE   H9X19674   2.637   5.144   9.508 -1.4647 -0.7405 -2.8144
  173SOPE   H9Y19675   2.701   5.300   9.540  0.5194 -1.1709 -0.1518
  173SOPE  C31019676   2.529   5.291   9.392  0.0788  0.2405  0.4769
  173SOPE  H10X19677   2.472   5.385   9.406  0.3720  0.8150 -1.8776
  173SOPE  H10Y19678   2.452   5.214   9.372  0.5904 -0.1742  0.0871
  173SOPE  C31119679   2.619   5.316   9.270 -0.2718 -0.5199  0.8990
  173SOPE  H11X19680   2.671   5.219   9.253 -0.9834 -0.7265 -0.1764
  173SOPE  H11Y19681   2.700   5.389   9.292 -0.7796  0.3869 -0.1749
  173SOPE  C31219682   2.534   5.357   9.150 -0.8911 -0.3103  0.4117
  173SOPE  H12X19683   2.462   5.438   9.176 -1.3976 -0.5784 -0.1377
  173SOPE  H12Y19684   2.481   5.265   9.117  1.0824 -1.5679  0.6161
  173SOPE  C31319685   2.627   5.408   9.033  0.5553  0.4982 -0.4561
  173SOPE  H13X19686   2.691   5.323   9.002  0.2465  0.6940 -1.6918
  173SOPE  H13Y19687   2.701   5.480   9.073  2.1703 -0.4535 -1.6272
  173SOPE  C31419688   2.561   5.457   8.907  0.4717  0.0234 -0.7141
  173SOPE  H14X19689   2.646   5.511   8.859  0.8757 -0.6599 -0.7774
  173SOPE  H14Y19690   2.483   5.533   8.929  1.2632  0.7560 -0.3656
  173SOPE  C31519691   2.509   5.349   8.813 -0.4800 -0.8843 -0.0449
  173SOPE  H15X19692   2.421   5.285   8.839 -0.5274 -0.7049  0.2429
  173SOPE  H15Y19693   2.600   5.286   8.809  1.2825  1.5090 -5.2691
  173SOPE  C31619694   2.479   5.398   8.664 -0.3068 -0.4080 -0.0436
  173SOPE  H16X19695   2.571   5.457   8.645  2.2480 -2.9440  3.2002
  173SOPE  H16Y19696   2.389   5.463   8.668  1.0554  1.7042 -1.7931
  173SOPE  C31719697   2.470   5.289   8.561 -0.5147  0.4447  0.5535
  173SOPE  H17X19698   2.560   5.224   8.573  0.0291  0.8519 -1.0848
  173SOPE  H17Y19699   2.466   5.331   8.458 -1.3334  1.5525  1.0219
  173SOPE  C31819700   2.349   5.206   8.576  0.4394  0.6153 -0.4914
  173SOPE  H18X19701   2.255   5.261   8.597  0.5232  0.3022  0.7615
  173SOPE  H18Y19702   2.357   5.151   8.672  0.8117  1.8568  0.2110
  173SOPE  H18Z19703   2.337   5.134   8.492  1.1136  2.6269 -2.4046
  174SOPE     N19704   1.733   4.858  10.954  0.1940  0.1394  0.6012
  174SOPE   HN119705   1.737   4.754  10.966  1.2751  0.2241  1.1196
  174SOPE   HN219706   1.636   4.886  10.977 -0.9537 -1.1015 -2.2205
  174SOPE   HN319707   1.756   4.882  10.856  2.6708  1.4057  1.4018
  174SOPE   C1219708   1.830   4.929  11.045  0.8715 -0.3057  0.2522
  174SOPE  H12A19709   1.813   4.901  11.152 -0.4517  0.4137  0.2557
  174SOPE  H12B19710   1.802   5.036  11.037 -2.4205 -1.1257 -0.4652
  174SOPE   C1119711   1.970   4.895  11.004 -0.1190  0.3822  0.3915
  174SOPE  H11A19712   1.971   4.785  10.988  0.0915  0.5786 -1.1384
  174SOPE  H11B19713   2.042   4.908  11.088 -0.8147 -1.1898  1.2745
  174SOPE     P19714   2.169   4.959  10.835  0.2886  0.3385 -0.2018
  174SOPE   O1319715   2.255   4.885  10.933 -0.1693 -0.3143  0.1188
  174SOPE   O1419716   2.198   5.103  10.810 -0.0510 -0.5088 -0.3061
  174SOPE   O1219717   2.018   4.956  10.881 -0.4401 -0.2992  0.1151
  174SOPE   O1119718   2.175   4.884  10.697 -0.0519  0.8802 -0.0644
  174SOPE    C119719   2.082   4.798  10.640 -0.0116  0.2593  0.1275
  174SOPE    HA19720   2.110   4.813  10.533  0.9644 -0.4717  0.2599
  174SOPE    HB19721   1.980   4.837  10.653 -0.7738 -0.5664 -2.6488
  174SOPE    C219722   2.082   4.653  10.690  0.7486  0.6856  0.4327
  174SOPE    HS19723   2.088   4.657  10.801  0.1005  0.5311  0.4797
  174SOPE   O2119724   2.189   4.574  10.632 -0.3903 -0.2213 -0.1754
  174SOPE   C2119725   2.313   4.596  10.660 -0.6126 -0.6215 -0.0962
  174SOPE   O2219726   2.352   4.674  10.744 -0.2370 -0.9133  0.0901
  174SOPE   C2219727   2.401   4.504  10.570  0.6971  0.0707 -0.0750
  174SOPE   H2R19728   2.355   4.504  10.469  1.5272  1.2648 -0.4762
  174SOPE   H2S19729   2.395   4.408  10.626 -0.8405 -0.9605 -1.8974
  174SOPE    C319730   1.949   4.585  10.645 -0.0966 -0.1396  0.2374
  174SOPE    HX19731   1.866   4.642  10.692 -2.9741 -4.1473  0.5433
  174SOPE    HY19732   1.931   4.483  10.683 -2.6285 -0.0286 -0.4412
  174SOPE   O3119733   1.929   4.597  10.501  0.6664 -0.8117 -0.0016
  174SOPE   C3119734   1.920   4.484  10.436  0.7801 -0.2738 -0.1853
  174SOPE   O3219735   1.938   4.373  10.487  0.4384 -0.6011 -0.6274
  174SOPE   C3219736   1.898   4.506  10.286 -0.3655 -0.9100  0.1834
  174SOPE   H2X19737   1.885   4.407  10.238  2.9314 -0.6881 -1.4249
  174SOPE   H2Y19738   1.986   4.565  10.253 -1.1521 -1.0280 -2.3104
  174SOPE   C2319739   2.546   4.550  10.566  0.2462  0.5631 -0.4191
  174SOPE   H3R19740   2.590   4.546  10.668 -2.0542 -1.5742  0.5893
  174SOPE   H3S19741   2.543   4.658  10.541 -0.6599  0.8005  0.6138
  174SOPE   C2419742   2.637   4.488  10.461  0.0524  0.3374 -1.0779
  174SOPE   H4R19743   2.740   4.520  10.487  0.5812 -0.7091 -1.8128
  174SOPE   H4S19744   2.648   4.378  10.467  0.0172  0.4256  1.9763
  174SOPE   C2519745   2.614   4.535  10.315 -0.2090 -0.2722 -0.0009
  174SOPE   H5R19746   2.505   4.534  10.293 -0.3189  3.5034 -0.2018
  174SOPE   H5S19747   2.641   4.642  10.307  1.2489 -0.5706  0.6590
  174SOPE   C2619748   2.687   4.453  10.207 -0.6751  0.3981  1.1864
  174SOPE   H6R19749   2.788   4.423  10.242 -0.3854  1.5369  1.3603
  174SOPE   H6S19750   2.626   4.360  10.202  0.9990 -0.7404  1.2089
  174SOPE   C2719751   2.703   4.512  10.067  0.1066  0.7802 -0.3115
  174SOPE   H7R19752   2.604   4.513  10.017  0.7001  0.6970 -1.5269
  174SOPE   H7S19753   2.732   4.619  10.068 -1.8374  1.3301  0.8647
  174SOPE   C2819754   2.805   4.424   9.990  0.5598 -0.0374  0.5974
  174SOPE   H8R19755   2.908   4.452  10.018  0.2737  0.7562  0.8736
  174SOPE   H8S19756   2.790   4.321  10.031 -0.1078  0.2358  1.0567
  174SOPE   C2919757   2.793   4.435   9.839  0.1243 -0.5521  0.4704
  174SOPE   H9119758   2.875   4.486   9.787  0.6213 -0.2795  1.5025
  174SOPE  C21019759   2.696   4.375   9.762 -0.4818 -0.3647  0.7355
  174SOPE  H10119760   2.701   4.388   9.652 -1.4345  0.4228  0.7666
  174SOPE  C21119761   2.571   4.297   9.810 -1.0531  1.0525  0.3516
  174SOPE  H11R19762   2.491   4.364   9.846 -2.0442  1.2978 -2.1356
  174SOPE  H11S19763   2.608   4.241   9.898  0.4515  1.9319  0.3204
  174SOPE  C21219764   2.512   4.201   9.697 -0.1501  0.0193  0.2225
  174SOPE  H12R19765   2.453   4.134   9.764  1.4090 -1.6599 -0.0181
  174SOPE  H12S19766   2.593   4.139   9.654 -1.0894 -0.9891 -0.1367
  174SOPE  C21319767   2.420   4.284   9.603 -0.2560 -0.1053 -0.1659
  174SOPE  H13R19768   2.429   4.394   9.619  1.3406 -0.2717  0.3002
  174SOPE  H13S19769   2.315   4.253   9.622 -0.3681  0.3785  0.0346
  174SOPE  C21419770   2.440   4.263   9.448 -0.2851  0.2706 -0.8015
  174SOPE  H14R19771   2.353   4.317   9.405 -0.6906  0.4375  0.1919
  174SOPE  H14S19772   2.423   4.159   9.414 -1.7254  0.8065 -1.8424
  174SOPE  C21519773   2.575   4.321   9.416  0.0646 -0.1226  0.0662
  174SOPE  H15R19774   2.665   4.268   9.454 -1.2640 -1.2880  1.7963
  174SOPE  H15S19775   2.571   4.424   9.457 -0.9085  0.2577 -0.9184
  174SOPE  C21619776   2.586   4.328   9.264 -0.2811 -0.1357 -0.0077
  174SOPE  H16R19777   2.486   4.341   9.217 -1.0535  1.5557  1.9300
  174SOPE  H16S19778   2.605   4.224   9.232 -0.6093  0.4856 -2.4594
  174SOPE  C21719779   2.695   4.420   9.211 -0.2016 -0.1644 -0.5453
  174SOPE  H17R19780   2.793   4.375   9.236 -0.8755 -1.6407 -0.4353
  174SOPE  H17S19781   2.693   4.516   9.267  2.8066 -1.5677  2.3202
  174SOPE  C21819782   2.679   4.438   9.066 -0.2602  0.4350  0.3615
  174SOPE  H18R19783   2.766   4.482   9.014 -1.0257  1.5615  0.0064
  174SOPE  H18S19784   2.590   4.504   9.062 -2.3400 -2.1966  0.3298
  174SOPE  H18T19785   2.643   4.344   9.019 -1.9389  0.1027  2.1482
  174SOPE   C3319786   1.772   4.583  10.251  0.1706 -0.9563  0.1477
  174SOPE   H3X19787   1.748   4.660  10.328  0.0395 -1.3679  0.5259
  174SOPE   H3Y19788   1.693   4.506  10.254  1.5315 -2.3682  1.0256
  174SOPE   C3419789   1.777   4.626  10.107  0.6515 -0.2363 -0.0976
  174SOPE   H4X19790   1.794   4.546  10.032 -2.2846  1.8861 -3.2892
  174SOPE   H4Y19791   1.850   4.707  10.085  0.4880  0.2888  1.1909
  174SOPE   C3519792   1.641   4.689  10.067 -0.2482 -0.6041  0.3394
  174SOPE   H5X19793   1.616   4.771  10.138 -1.0873 -0.7315  0.2087
  174SOPE   H5Y19794   1.553   4.623  10.086 -1.0671  0.9541  2.3116
  174SOPE   C3619795   1.626   4.742   9.927  0.1572  0.5370 -0.3831
  174SOPE   H6X19796   1.695   4.830   9.925 -0.8225  1.4550  2.3022
  174SOPE   H6Y19797   1.526   4.786   9.909  1.3558  3.3585 -0.7670
  174SOPE   C3719798   1.649   4.640   9.820  0.2516 -0.4538 -0.5226
  174SOPE   H7X19799   1.588   4.549   9.841  1.8935 -1.6591 -0.7660
  174SOPE   H7Y19800   1.758   4.619   9.817  0.3527  0.1261 -0.9307
  174SOPE   C3819801   1.603   4.694   9.678  0.4032 -0.0348  0.4279
  174SOPE   H8X19802   1.667   4.781   9.651  1.6686 -0.2352  2.5520
  174SOPE   H8Y19803   1.493   4.710   9.691  0.1825 -0.4559 -0.7463
  174SOPE   C3919804   1.620   4.587   9.569 -0.4338 -0.1837  0.6443
  174SOPE   H9X19805   1.548   4.510   9.605 -1.9568 -0.4261 -2.5716
  174SOPE   H9Y19806   1.721   4.541   9.569  0.1155  0.9130 -1.2089
  174SOPE  C31019807   1.565   4.637   9.444 -0.2737 -0.2011 -0.0398
  174SOPE  H10X19808   1.600   4.741   9.428 -0.1660 -0.1294  0.6260
  174SOPE  H10Y19809   1.454   4.643   9.440 -0.2357 -0.0946 -0.9898
  174SOPE  C31119810   1.600   4.550   9.326  0.5064  0.2734  0.1314
  174SOPE  H11X19811   1.578   4.441   9.335  1.2382  0.0598 -0.5484
  174SOPE  H11Y19812   1.710   4.555   9.315  0.5243  1.3160  0.6290
  174SOPE  C31219813   1.528   4.594   9.198 -0.1145 -0.7245 -0.3597
  174SOPE  H12X19814   1.546   4.701   9.174 -2.7903  0.0309  0.6600
  174SOPE  H12Y19815   1.419   4.583   9.216  0.1837 -1.4020  1.1258
  174SOPE  C31319816   1.576   4.516   9.073 -0.4652 -0.8186  0.3540
  174SOPE  H13X19817   1.514   4.555   8.990  2.8121  2.0818 -0.9874
  174SOPE  H13Y19818   1.554   4.410   9.095  2.9975 -1.7784 -0.3320
  174SOPE  C31419819   1.725   4.542   9.040 -0.0576 -0.5112 -0.2181
  174SOPE  H14X19820   1.788   4.463   9.086  0.5455  1.1497  2.0141
  174SOPE  H14Y19821   1.754   4.632   9.098  0.6274 -1.1128  0.3977
  174SOPE  C31519822   1.761   4.560   8.895  0.4657  0.3489 -0.6426
  174SOPE  H15X19823   1.870   4.579   8.891  0.2291  1.6344 -1.5452
  174SOPE  H15Y19824   1.711   4.651   8.856 -0.1529  1.0824  1.6988
  174SOPE  C31619825   1.716   4.446   8.805  0.7421 -0.2022  0.3533
  174SOPE  H16X19826   1.617   4.413   8.843  0.5211 -0.7107 -0.6353
  174SOPE  H16Y19827   1.779   4.354   8.799 -1.9246 -2.1009 -4.2299
  174SOPE  C31719828   1.711   4.479   8.657  0.6462  0.1786  0.4024
  174SOPE  H17X19829   1.647   4.569   8.646  0.7372  0.1992 -0.0078
  174SOPE  H17Y19830   1.659   4.397   8.603 -0.1090  0.9872 -0.1350
  174SOPE  C31819831   1.845   4.519   8.597  0.0317 -0.2589  0.2133
  174SOPE  H18X19832   1.933   4.470   8.643 -0.8052 -1.5734  0.4343
  174SOPE  H18Y19833   1.860   4.629   8.604 -0.4925 -0.0823 -1.2014
  174SOPE  H18Z19834   1.845   4.489   8.490 -1.0882 -0.4654  0.2585
  175SOPE     N19835   4.661   0.229  10.536  0.4412  0.0268  0.4652
  175SOPE   HN119836   4.693   0.219  10.438 -0.8172  1.2047 -0.1010
  175SOPE   HN219837   4.734   0.268  10.599  0.2867 -3.2964  3.0039
  175SOPE   HN319838   4.618   0.141  10.571  2.1860 -1.0040  0.1591
  175SOPE   C1219839   4.561   0.337  10.538 -0.1996  0.1857  0.0813
  175SOPE  H12A19840   4.604   0.435  10.506  1.7868 -0.0468  1.8230
  175SOPE  H12B19841   4.530   0.348  10.644  0.8568 -0.2215  0.4407
  175SOPE   C1119842   4.443   0.291  10.455  0.0253  0.1949 -0.0778
  175SOPE  H11A19843   4.476   0.280  10.349  0.9154 -2.4901  0.4036
  175SOPE  H11B19844   4.368   0.372  10.465 -0.8147 -0.6975  1.1438
  175SOPE     P19845   4.278   0.157  10.617 -0.0001 -0.1114  0.1041
  175SOPE   O1319846   4.318   0.220  10.744  0.7014  0.1477  0.4026
  175SOPE   O1419847   4.230   0.017  10.618 -0.3158  0.2444  0.2928
  175SOPE   O1219848   4.401   0.161  10.511  0.2677  0.0202  0.8661
  175SOPE   O1119849   4.167   0.250  10.555  0.5674  0.3424  0.0968
  175SOPE    C119850   4.055   0.215  10.470  0.1138  0.8898 -0.5654
  175SOPE    HA19851   3.981   0.298  10.473  0.8434  1.5872 -1.3079
  175SOPE    HB19852   4.009   0.120  10.503  1.4303 -0.5741 -2.6957
  175SOPE    C219853   4.098   0.206  10.321  0.5935 -0.3296 -0.6966
  175SOPE    HS19854   4.189   0.143  10.317  1.2272  0.4658  0.5116
  175SOPE   O2119855   4.126   0.341  10.277  0.0038 -0.6875  0.8439
  175SOPE   C2119856   4.210   0.347  10.177 -0.1722 -0.0201  0.1070
  175SOPE   O2219857   4.279   0.257  10.136  0.0146 -0.2094  0.6033
  175SOPE   C2219858   4.215   0.488  10.108  0.4685  0.2054 -0.1414
  175SOPE   H2R19859   4.320   0.515  10.132  0.7779 -1.6555  0.7110
  175SOPE   H2S19860   4.145   0.555  10.163 -0.4374 -1.7244  1.1753
  175SOPE    C319861   3.979   0.142  10.239  0.0738 -0.0437  0.3728
  175SOPE    HX19862   3.899   0.217  10.252  0.6419  0.3710  1.6450
  175SOPE    HY19863   3.927   0.055  10.286 -0.9443  0.6686  0.5889
  175SOPE   O3119864   3.994   0.132  10.098  0.2358 -0.4791 -0.0261
  175SOPE   C3119865   4.049   0.020  10.059 -0.5110  0.0967  0.9288
  175SOPE   O3219866   4.072  -0.077  10.124  0.1003 -0.0282  0.4646
  175SOPE   C3219867   4.074   0.025   9.908 -0.2298  0.2124 -0.1502
  175SOPE   H2X19868   4.138   0.112   9.881  2.1905 -1.3352  0.2000
  175SOPE   H2Y19869   3.975   0.028   9.858  0.7503 -1.4122 -2.3764
  175SOPE   C2319870   4.188   0.478   9.958  0.0379  0.0728 -0.2893
  175SOPE   H3R19871   4.091   0.524   9.930 -2.7258 -4.0220  1.5886
  175SOPE   H3S19872   4.156   0.376   9.929  0.0944 -0.4324  1.2918
  175SOPE   C2419873   4.298   0.537   9.871 -0.1762  0.4332 -1.0542
  175SOPE   H4R19874   4.365   0.611   9.919 -0.5924 -0.0330  0.3177
  175SOPE   H4S19875   4.367   0.452   9.852 -0.3412 -0.4476  1.7713
  175SOPE   C2519876   4.250   0.604   9.744  0.0820 -0.2596 -0.1250
  175SOPE   H5R19877   4.181   0.690   9.758 -0.6762 -0.3193 -2.8873
  175SOPE   H5S19878   4.339   0.638   9.688 -0.0987 -1.3418 -1.1095
  175SOPE   C2619879   4.170   0.503   9.665 -0.3272  0.5578 -0.2270
  175SOPE   H6R19880   4.242   0.428   9.627 -0.7763  0.5850 -1.1831
  175SOPE   H6S19881   4.076   0.467   9.713 -2.3912  4.0326 -1.2554
  175SOPE   C2719882   4.100   0.550   9.529  0.1645  0.6347 -0.0601
  175SOPE   H7R19883   4.055   0.461   9.479 -0.0202  0.1170  1.0137
  175SOPE   H7S19884   4.013   0.616   9.547 -1.6953 -1.8223  0.5954
  175SOPE   C2819885   4.191   0.626   9.430  0.4836  0.0109  0.5665
  175SOPE   H8R19886   4.141   0.662   9.338 -0.3111 -0.6806  0.7158
  175SOPE   H8S19887   4.219   0.726   9.469 -0.8111  1.2346 -1.4879
  175SOPE   C2919888   4.323   0.554   9.401  0.5322 -0.1979  0.0028
  175SOPE   H9119889   4.396   0.560   9.483  1.4786  0.8738 -0.8769
  175SOPE  C21019890   4.344   0.479   9.294  0.1035  0.7538 -0.0696
  175SOPE  H10119891   4.444   0.435   9.288 -0.8636 -1.3703 -2.1225
  175SOPE  C21119892   4.252   0.465   9.175  0.4053  0.4965 -0.1965
  175SOPE  H11R19893   4.155   0.518   9.186 -0.2030 -0.8260  1.1988
  175SOPE  H11S19894   4.228   0.356   9.171  2.1419  0.0453  0.7899
  175SOPE  C21219895   4.321   0.500   9.045  0.3607  0.3956  0.7401
  175SOPE  H12R19896   4.398   0.424   9.020  1.3194  0.6654  2.6659
  175SOPE  H12S19897   4.371   0.599   9.049  1.0000  0.0850  0.5609
  175SOPE  C21319898   4.221   0.512   8.930 -0.6481 -0.1668  0.3378
  175SOPE  H13R19899   4.153   0.588   8.972  1.5440  2.0191  0.1948
  175SOPE  H13S19900   4.172   0.412   8.928 -0.4349 -0.3493 -3.4825
  175SOPE  C21419901   4.263   0.570   8.797 -0.1132 -0.4094  0.4974
  175SOPE  H14R19902   4.273   0.680   8.810  1.3576 -0.7830  3.6001
  175SOPE  H14S19903   4.183   0.544   8.725  1.3928  0.7021 -1.6938
  175SOPE  C21519904   4.404   0.520   8.747  0.0859  0.4791 -0.4634
  175SOPE  H15R19905   4.397   0.410   8.757 -1.5426  0.1961 -3.5078
  175SOPE  H15S19906   4.483   0.551   8.819  0.9039  0.8866 -1.5069
  175SOPE  C21619907   4.439   0.546   8.598  0.2326  0.1444  0.0537
  175SOPE  H16R19908   4.376   0.627   8.556  0.7065  0.5170  0.0544
  175SOPE  H16S19909   4.419   0.448   8.549 -0.0321  0.6154 -0.7828
  175SOPE  C21719910   4.587   0.582   8.573  0.0078 -0.6968 -0.2507
  175SOPE  H17R19911   4.661   0.502   8.594  1.2461 -0.0787 -2.1018
  175SOPE  H17S19912   4.622   0.672   8.628  1.6507 -0.4756 -1.5750
  175SOPE  C21819913   4.615   0.615   8.419 -0.0203 -0.0666  0.1452
  175SOPE  H18R19914   4.558   0.706   8.393  0.3208  0.5891  1.5520
  175SOPE  H18S19915   4.595   0.537   8.343 -0.2522  0.0961  0.0367
  175SOPE  H18T19916   4.720   0.653   8.414 -0.0168  0.2436  1.9071
  175SOPE   C3319917   4.162  -0.097   9.857 -0.4278  0.2445 -0.2555
  175SOPE   H3X19918   4.111  -0.183   9.906 -1.8508  0.9967 -0.3513
  175SOPE   H3Y19919   4.262  -0.091   9.905 -0.7170  0.9129  0.2742
  175SOPE   C3419920   4.175  -0.106   9.704 -0.1204 -0.4671  0.1542
  175SOPE   H4X19921   4.071  -0.107   9.665  0.1885  0.1916 -0.6991
  175SOPE   H4Y19922   4.232  -0.195   9.669 -0.3588 -0.6664  0.2657
  175SOPE   C3519923   4.243   0.011   9.632  0.6227 -0.4473  0.1518
  175SOPE   H5X19924   4.346   0.033   9.667  0.2858  0.4084  0.6443
  175SOPE   H5Y19925   4.192   0.104   9.667 -1.1393 -1.5094  0.5773
  175SOPE   C3619926   4.245   0.003   9.481 -0.0174 -0.6181  0.0785
  175SOPE   H6X19927   4.148  -0.028   9.439  0.8205 -1.3702 -1.3679
  175SOPE   H6Y19928   4.312  -0.085   9.473  0.3988 -0.3242  0.2650
  175SOPE   C3719929   4.298   0.134   9.426 -0.1673 -0.4332 -0.6161
  175SOPE   H7X19930   4.369   0.177   9.500 -0.0404  0.0597 -1.0173
  175SOPE   H7Y19931   4.213   0.206   9.426 -1.0983 -1.2537  3.9937
  175SOPE   C3819932   4.382   0.120   9.294 -0.2692  0.0198 -0.4919
  175SOPE   H8X19933   4.477   0.066   9.315  1.1985  2.3310 -0.8757
  175SOPE   H8Y19934   4.406   0.225   9.268  0.8877  0.4028  1.8616
  175SOPE   C3919935   4.287   0.063   9.182 -0.8076 -0.7238 -1.1881
  175SOPE   H9X19936   4.186   0.100   9.211  0.3729  2.4486 -0.7068
  175SOPE   H9Y19937   4.291  -0.046   9.202  0.2800 -0.5367 -0.2776
  175SOPE  C31019938   4.334   0.095   9.039 -0.5008  0.5670  0.5510
  175SOPE  H10X19939   4.394   0.005   9.015  1.5694  1.1354  3.1581
  175SOPE  H10Y19940   4.401   0.184   9.035  2.0021 -1.2451 -1.6911
  175SOPE  C31119941   4.217   0.106   8.939 -0.2341 -0.2421  0.4137
  175SOPE  H11X19942   4.172   0.205   8.964 -2.8066 -0.9985 -0.9544
  175SOPE  H11Y19943   4.145   0.027   8.967 -0.9594  0.0974 -0.4495
  175SOPE  C31219944   4.255   0.116   8.791 -0.3768  0.2344 -0.5569
  175SOPE  H12X19945   4.277   0.017   8.745  1.4493  1.1068 -1.6907
  175SOPE  H12Y19946   4.348   0.177   8.787 -1.7124  2.3166 -1.7238
  175SOPE  C31319947   4.146   0.190   8.710 -0.4647 -0.6350 -0.4039
  175SOPE  H13X19948   4.136   0.291   8.755  2.0157  0.2418 -1.6539
  175SOPE  H13Y19949   4.051   0.134   8.727 -0.5634 -0.0529  1.1357
  175SOPE  C31419950   4.165   0.203   8.559  0.7048 -0.3966 -0.4384
  175SOPE  H14X19951   4.193   0.103   8.518  0.2740  0.2234 -2.3760
  175SOPE  H14Y19952   4.238   0.286   8.547 -0.7311  1.0375  0.4276
  175SOPE  C31519953   4.037   0.231   8.478  0.2734 -0.6392 -0.5150
  175SOPE  H15X19954   3.992   0.322   8.525 -1.6634 -1.3418 -0.9000
  175SOPE  H15Y19955   3.958   0.154   8.489  2.7584 -3.3436 -0.3790
  175SOPE  C31619956   4.068   0.252   8.327 -0.0084  0.8204 -0.6758
  175SOPE  H16X19957   4.143   0.334   8.332 -1.4776  2.1311  1.7462
  175SOPE  H16Y19958   3.977   0.301   8.289 -2.1726  1.5614  4.5413
  175SOPE  C31719959   4.094   0.121   8.248 -0.0022  0.3045  0.5325
  175SOPE  H17X19960   4.146   0.045   8.310  0.7891 -0.0309 -0.5095
  175SOPE  H17Y19961   4.162   0.153   8.165  1.9541 -0.2023  1.8771
  175SOPE  C31819962   3.965   0.064   8.178 -0.6341  0.1236  0.2091
  175SOPE  H18X19963   3.915   0.131   8.105  0.9830 -0.9511 -1.9893
  175SOPE  H18Y19964   3.902   0.035   8.265 -0.9893  2.5433  0.8223
  175SOPE  H18Z19965   4.000  -0.025   8.121  3.0416  1.0196  0.8071
  176SOPE     N19966   3.013   5.496  11.003  0.7649  0.3707 -0.2381
  176SOPE   HN119967   3.064   5.569  11.056 -0.3687  2.2603 -1.5789
  176SOPE   HN219968   2.918   5.535  10.985  0.1617 -0.4093  1.0923
  176SOPE   HN319969   3.005   5.410  11.060  0.4393 -0.3125 -1.2811
  176SOPE   C1219970   3.105   5.456  10.895  0.0075  0.5315  0.1940
  176SOPE  H12A19971   3.060   5.367  10.847 -0.1421 -1.0472  3.0175
  176SOPE  H12B19972   3.196   5.415  10.944 -0.7880  1.1460  2.2733
  176SOPE   C1119973   3.143   5.587  10.826  0.1271 -0.2427  0.6120
  176SOPE  H11A19974   3.046   5.630  10.791  0.0159  1.1772  2.4449
  176SOPE  H11B19975   3.209   5.565  10.741 -0.9263  0.5518 -0.4482
  176SOPE     P19976   3.343   5.692  10.975 -0.2931  0.1574 -0.2816
  176SOPE   O1319977   3.368   5.558  11.032  0.4198  0.3782  0.1331
  176SOPE   O1419978   3.359   5.803  11.075 -0.9070  0.5897 -0.6766
  176SOPE   O1219979   3.191   5.691  10.914 -0.7134  0.5306 -0.2285
  176SOPE   O1119980   3.437   5.716  10.848 -0.1191  0.6451 -0.2825
  176SOPE    C119981   3.450   5.843  10.782 -1.0057  0.3067 -0.0343
  176SOPE    HA19982   3.527   5.839  10.702 -2.4511 -0.9961 -1.4425
  176SOPE    HB19983   3.498   5.907  10.859  0.0052 -2.6312  1.9407
  176SOPE    C219984   3.320   5.897  10.732 -0.1023 -0.4322 -0.0524
  176SOPE    HS19985   3.252   5.904  10.820 -1.0389  1.0719 -0.8725
  176SOPE   O2119986   3.284   5.800  10.631  0.5193 -0.9542  0.2162
  176SOPE   C2119987   3.163   5.794  10.600  0.1742 -0.3821 -0.0688
  176SOPE   O2219988   3.066   5.858  10.645  0.1570 -0.6141 -0.0765
  176SOPE   C2219989   3.153   5.702  10.482 -0.6207  0.6134 -0.3186
  176SOPE   H2R19990   3.195   5.603  10.508 -1.8840 -0.3902 -1.9007
  176SOPE   H2S19991   3.222   5.737  10.402  1.0649  0.3276  0.9707
  176SOPE    C319992   3.340   6.041  10.674 -0.8918  0.3104  0.1968
  176SOPE    HX19993   3.379   6.109  10.754 -1.0148 -0.0902  0.6016
  176SOPE    HY19994   3.243   6.073  10.632 -0.6238 -0.4142 -1.0045
  176SOPE   O3119995   3.443   6.049  10.580  0.0180 -0.2562  0.3615
  176SOPE   C3119996   3.414   6.042  10.448 -0.0870  0.2917  0.4365
  176SOPE   O3219997   3.304   6.022  10.401  0.6091  0.4182 -0.3000
  176SOPE   C3219998   3.535   6.072  10.363 -0.0745 -0.7669 -0.4074
  176SOPE   H2X19999   3.572   6.174  10.388  0.1961 -1.3215  1.6170
  176SOPE   H2Y20000   3.500   6.076  10.258 -2.3993 -1.6552  0.2701
  176SOPE   C2320001   3.014   5.680  10.432  1.2751 -0.6026  0.7287
  176SOPE   H3R20002   2.973   5.776  10.395  0.4924 -1.7321 -1.4814
  176SOPE   H3S20003   2.946   5.651  10.515  1.6802  0.8203  1.5809
  176SOPE   C2420004   3.000   5.578  10.323 -0.4062 -1.1873 -0.5853
  176SOPE   H4R20005   3.095   5.575  10.266  1.0059 -1.5328  1.6541
  176SOPE   H4S20006   2.991   5.478  10.371 -0.8969 -1.0201 -0.3263
  176SOPE   C2520007   2.875   5.603  10.245 -0.0015  0.6628  0.1377
  176SOPE   H5R20008   2.787   5.622  10.311 -1.0003 -2.8514  0.0062
  176SOPE   H5S20009   2.875   5.693  10.179 -0.5810 -0.5322 -1.5547
  176SOPE   C2620010   2.838   5.482  10.158 -0.1968  0.1886  0.3124
  176SOPE   H6R20011   2.806   5.407  10.234 -1.6985  2.1497  1.7103
  176SOPE   H6S20012   2.750   5.521  10.104  1.5099  3.3929 -0.4260
  176SOPE   C2720013   2.936   5.448  10.044 -0.4849  0.1524  0.2585
  176SOPE   H7R20014   3.023   5.410  10.102  0.4107 -0.5434 -1.4717
  176SOPE   H7S20015   2.902   5.354   9.996 -0.1979 -1.5987  3.2217
  176SOPE   C2820016   2.977   5.557   9.946  0.8316  0.3383  0.0223
  176SOPE   H8R20017   2.880   5.587   9.901 -0.1295  0.3723  2.0219
  176SOPE   H8S20018   3.012   5.646  10.002  0.1921  0.8536 -0.3780
  176SOPE   C2920019   3.077   5.510   9.846  0.9814 -0.2899 -0.5331
  176SOPE   H9120020   3.179   5.495   9.885  1.8688 -0.1239 -2.6632
  176SOPE  C21020021   3.040   5.466   9.723 -0.0761 -1.2393  0.0067
  176SOPE  H10120022   3.121   5.434   9.656 -0.9096  1.4852 -2.4814
  176SOPE  C21120023   2.902   5.468   9.650  0.5810 -0.4144 -0.5857
  176SOPE  H11R20024   2.861   5.569   9.667 -0.8442 -0.7735 -1.7130
  176SOPE  H11S20025   2.826   5.399   9.691 -0.4680  0.5605 -0.8497
  176SOPE  C21220026   2.923   5.449   9.494  0.4097 -0.3135  0.3739
  176SOPE  H12R20027   2.820   5.454   9.452  0.6983 -1.9841 -0.6367
  176SOPE  H12S20028   2.975   5.351   9.483 -0.1221 -0.4285 -1.5074
  176SOPE  C21320029   3.007   5.568   9.430  0.5051  0.8163 -0.5594
  176SOPE  H13R20030   3.098   5.583   9.492 -0.7775  0.4413  1.4989
  176SOPE  H13S20031   2.943   5.658   9.438  0.9851  0.9886  3.2476
  176SOPE  C21420032   3.030   5.538   9.284 -0.1045 -0.4454  0.4404
  176SOPE  H14R20033   2.936   5.510   9.230  0.1244 -0.1807 -0.1102
  176SOPE  H14S20034   3.102   5.455   9.269  1.3855  0.7610  0.6502
  176SOPE  C21520035   3.075   5.668   9.215  0.3894  0.7456 -0.4957
  176SOPE  H15R20036   3.164   5.700   9.273  1.6745 -0.9894 -1.4471
  176SOPE  H15S20037   2.989   5.737   9.232 -1.3187 -2.0815  4.5286
  176SOPE  C21620038   3.109   5.651   9.068  0.0097  0.1139 -1.3059
  176SOPE  H16R20039   3.033   5.590   9.015 -0.4957 -0.8029  0.4304
  176SOPE  H16S20040   3.197   5.583   9.064 -0.1133 -0.1511  0.0743
  176SOPE  C21720041   3.143   5.781   8.994  0.3002  0.1481  0.3700
  176SOPE  H17R20042   3.248   5.810   9.018  0.9289 -0.7714 -1.1111
  176SOPE  H17S20043   3.069   5.856   9.029  0.2827 -0.5890  2.0334
  176SOPE  C21820044   3.119   5.775   8.844  0.6442 -0.5783  0.3325
  176SOPE  H18R20045   3.194   5.711   8.792 -0.3298 -2.4410  1.0949
  176SOPE  H18S20046   3.112   5.878   8.803  0.1583 -0.5998  0.3521
  176SOPE  H18T20047   3.014   5.740   8.837 -0.3195  2.1154  0.4264
  176SOPE   C3320048   3.655   5.978  10.375 -0.0502  0.1249  1.0722
  176SOPE   H3X20049   3.630   5.872  10.352  1.6160 -0.7509  2.9310
  176SOPE   H3Y20050   3.691   5.965  10.479  2.1759  1.0295  0.4704
  176SOPE   C3420051   3.780   6.029  10.299  0.0129  0.2330  0.2067
  176SOPE   H4X20052   3.853   5.946  10.294  0.0182  0.2920 -1.4361
  176SOPE   H4Y20053   3.813   6.117  10.357 -0.3743  0.7087 -0.2863
  176SOPE   C3520054   3.773   6.083  10.157 -0.2420 -0.1372 -0.3752
  176SOPE   H5X20055   3.875   6.117  10.130  0.4810 -0.4336  1.8364
  176SOPE   H5Y20056   3.715   6.178  10.156 -0.2159 -0.1126 -2.2285
  176SOPE   C3620057   3.720   5.986  10.061  0.0225  0.6599 -0.3965
  176SOPE   H6X20058   3.612   5.978  10.083  0.1278 -0.2008 -0.1507
  176SOPE   H6Y20059   3.770   5.888  10.075 -1.5748  0.1458  2.8910
  176SOPE   C3720060   3.724   6.032   9.918  0.1021  0.2976  0.0368
  176SOPE   H7X20061   3.833   6.034   9.896  0.4616  2.9155  1.6396
  176SOPE   H7Y20062   3.678   6.133   9.916 -0.8737 -0.1412 -0.9502
  176SOPE   C3820063   3.651   5.935   9.827 -0.0709  0.7585  0.7536
  176SOPE   H8X20064   3.549   5.924   9.869  0.1133 -0.9772  0.8217
  176SOPE   H8Y20065   3.697   5.834   9.839 -0.4308  0.5856  0.6956
  176SOPE   C3920066   3.646   5.973   9.678  0.7678 -0.1993 -0.4417
  176SOPE   H9X20067   3.748   5.985   9.635  0.0048 -3.5083 -3.6540
  176SOPE   H9Y20068   3.592   6.068   9.658  1.1628 -0.4026 -2.8383
  176SOPE  C31020069   3.564   5.880   9.592 -0.6311  0.3015  0.5193
  176SOPE  H10X20070   3.456   5.882   9.618 -0.9318 -1.2829 -0.4725
  176SOPE  H10Y20071   3.595   5.778   9.623  3.1673  1.6806  1.8661
  176SOPE  C31120072   3.598   5.895   9.440 -0.2975 -0.2978  0.8363
  176SOPE  H11X20073   3.707   5.897   9.417 -0.7240  0.8858 -1.3953
  176SOPE  H11Y20074   3.561   5.996   9.410  2.8197  0.5974 -0.4079
  176SOPE  C31220075   3.516   5.788   9.362 -0.4559 -0.4258  0.1827
  176SOPE  H12X20076   3.409   5.778   9.391 -1.3380  0.5827 -2.4180
  176SOPE  H12Y20077   3.564   5.694   9.398 -0.6768 -1.6509 -2.4775
  176SOPE  C31320078   3.521   5.801   9.213 -0.4828 -0.1122  0.0094
  176SOPE  H13X20079   3.621   5.842   9.191 -0.0902  1.1204  3.5322
  176SOPE  H13Y20080   3.452   5.880   9.178  0.3737  0.6475  0.0058
  176SOPE  C31420081   3.487   5.669   9.146 -0.3103  1.0567  1.2059
  176SOPE  H14X20082   3.379   5.644   9.156  0.0518 -0.8858  0.7056
  176SOPE  H14Y20083   3.537   5.579   9.189 -0.7709  0.2209  0.0643
  176SOPE  C31520084   3.523   5.667   8.997  0.6774 -0.1769  0.3426
  176SOPE  H15X20085   3.633   5.680   8.981  0.3650  1.0190 -1.0947
  176SOPE  H15Y20086   3.482   5.760   8.953  2.5726  0.6754  0.2624
  176SOPE  C31620087   3.469   5.547   8.918  0.9913 -0.2152 -0.1656
  176SOPE  H16X20088   3.363   5.537   8.948  0.8868 -0.1866 -0.5155
  176SOPE  H16Y20089   3.515   5.453   8.957  0.1118  0.1366  1.8289
  176SOPE  C31720090   3.479   5.545   8.769 -0.9509 -0.3345  0.3579
  176SOPE  H17X20091   3.583   5.530   8.731  0.0639  1.9470  2.0369
  176SOPE  H17Y20092   3.458   5.644   8.723  2.0724  1.6064  2.7406
  176SOPE  C31820093   3.386   5.435   8.696  0.3252 -1.0235  0.5696
  176SOPE  H18X20094   3.382   5.341   8.755 -0.8610 -1.8451 -0.7634
  176SOPE  H18Y20095   3.424   5.409   8.595 -3.0329 -3.1961 -0.2900
  176SOPE  H18Z20096   3.285   5.480   8.686  0.7604  0.0867  0.9565
  177SOPE     N20097   3.419   3.222  11.000 -0.2480 -0.1636 -0.8156
  177SOPE   HN120098   3.333   3.198  10.945 -2.3266  1.6629  1.3992
  177SOPE   HN220099   3.498   3.241  10.936 -0.7599 -0.7754 -1.6587
  177SOPE   HN320100   3.451   3.139  11.054 -0.8800 -0.2578 -0.5667
  177SOPE   C1220101   3.396   3.343  11.087 -0.5371  0.2923 -0.0291
  177SOPE  H12A20102   3.494   3.385  11.116 -0.1664 -1.0985  0.8233
  177SOPE  H12B20103   3.350   3.309  11.182  2.4010  0.8214  1.6869
  177SOPE   C1120104   3.337   3.459  11.013 -0.3127 -0.3259  0.2724
  177SOPE  H11A20105   3.401   3.488  10.927 -1.2789 -2.6311 -1.3281
  177SOPE  H11B20106   3.329   3.548  11.080  0.0570 -0.1633  0.1005
  177SOPE     P20107   3.136   3.528  10.866 -0.2381 -0.4562 -0.0477
  177SOPE   O1320108   3.161   3.670  10.886 -0.3394 -0.2553  0.0844
  177SOPE   O1420109   2.993   3.488  10.874 -0.0429 -0.9786  0.4507
  177SOPE   O1220110   3.213   3.427  10.962 -0.0889  0.4109 -0.0665
  177SOPE   O1120111   3.190   3.483  10.716  0.0466 -0.2001 -0.7520
  177SOPE    C120112   3.094   3.491  10.611  0.2281 -0.0105  0.6175
  177SOPE    HA20113   3.015   3.570  10.613  0.3843  0.2902 -1.7377
  177SOPE    HB20114   3.046   3.392  10.597  1.0460 -0.7082  2.5383
  177SOPE    C220115   3.157   3.517  10.470 -0.2005 -0.2950  0.2330
  177SOPE    HS20116   3.228   3.433  10.453  1.3703  0.4878  2.3711
  177SOPE   O2120117   3.221   3.648  10.462 -0.3529 -0.5220  0.5452
  177SOPE   C2120118   3.357   3.650  10.486 -0.3234  0.3276  1.0745
  177SOPE   O2220119   3.422   3.552  10.495 -0.4410  0.5694  0.3594
  177SOPE   C2220120   3.415   3.787  10.477  0.2836 -0.0699 -0.8473
  177SOPE   H2R20121   3.491   3.807  10.555 -0.1905  2.2927 -0.9097
  177SOPE   H2S20122   3.336   3.863  10.496 -0.1902 -0.0995 -2.5481
  177SOPE    C320123   3.049   3.510  10.366 -0.4401  0.1929  0.6376
  177SOPE    HX20124   2.988   3.603  10.379  0.0006  0.5633  0.0894
  177SOPE    HY20125   2.980   3.424  10.384 -0.9900 -0.0721 -2.2829
  177SOPE   O3120126   3.090   3.507  10.226  0.0188  0.1090  0.0490
  177SOPE   C3120127   3.150   3.398  10.181  0.0967 -0.0286 -0.6311
  177SOPE   O3220128   3.156   3.292  10.239  0.1600 -0.3490 -0.1624
  177SOPE   C3220129   3.187   3.418  10.037 -0.2013  0.0822  0.4013
  177SOPE   H2X20130   3.236   3.518  10.035  0.8379 -0.4267 -0.8799
  177SOPE   H2Y20131   3.100   3.444   9.974  0.0434 -1.3030 -0.5380
  177SOPE   C2320132   3.490   3.824  10.352  0.5767  0.0814  0.8606
  177SOPE   H3R20133   3.577   3.757  10.341  0.5468  0.2058 -0.2349
  177SOPE   H3S20134   3.524   3.929  10.363 -0.0669  0.2299  1.5935
  177SOPE   C2420135   3.414   3.820  10.215 -0.3297 -0.2477  0.1534
  177SOPE   H4R20136   3.399   3.719  10.173  1.4978 -0.8300  0.7962
  177SOPE   H4S20137   3.322   3.882  10.223  0.7450  1.1856  2.7806
  177SOPE   C2520138   3.502   3.899  10.106  0.2274 -0.3417  0.3873
  177SOPE   H5R20139   3.487   4.009  10.116  1.0445 -0.2589  0.8062
  177SOPE   H5S20140   3.609   3.875  10.123 -0.2632 -2.0952  1.1821
  177SOPE   C2620141   3.477   3.856   9.957 -0.7106  0.0603 -0.2246
  177SOPE   H6R20142   3.567   3.888   9.901 -0.3442 -0.5778 -0.0054
  177SOPE   H6S20143   3.496   3.748   9.974 -0.5925  0.2374  0.8828
  177SOPE   C2720144   3.344   3.901   9.893 -0.1186 -0.1656  0.6558
  177SOPE   H7R20145   3.264   3.849   9.950  0.0671  0.8366  1.8823
  177SOPE   H7S20146   3.337   4.010   9.913  1.4753 -0.0972  0.9992
  177SOPE   C2820147   3.344   3.880   9.741  0.5989 -0.4452 -0.1940
  177SOPE   H8R20148   3.245   3.914   9.702 -0.4755 -2.6242  0.4756
  177SOPE   H8S20149   3.419   3.953   9.703 -1.1038  0.6828 -1.5509
  177SOPE   C2920150   3.350   3.734   9.703 -0.3311  0.4181 -0.2497
  177SOPE   H9120151   3.436   3.678   9.743 -1.2842 -1.1217 -0.2790
  177SOPE  C21020152   3.265   3.660   9.625  0.1185 -0.1140  0.7701
  177SOPE  H10120153   3.276   3.553   9.602 -0.4306  0.1972 -1.1715
  177SOPE  C21120154   3.146   3.715   9.550 -0.5320  0.5459  0.4348
  177SOPE  H11R20155   3.171   3.819   9.520 -1.1476  0.3430 -0.8340
  177SOPE  H11S20156   3.054   3.716   9.613 -1.6687  0.2075 -1.1565
  177SOPE  C21220157   3.112   3.640   9.417  0.4042  0.1595  0.2736
  177SOPE  H12R20158   3.013   3.675   9.381  0.7307 -0.3256 -1.1587
  177SOPE  H12S20159   3.109   3.533   9.449  0.8325  0.1968  0.4400
  177SOPE  C21320160   3.212   3.649   9.301  0.0620  0.0736 -0.6895
  177SOPE  H13R20161   3.306   3.605   9.343  0.6229  3.0576  1.5057
  177SOPE  H13S20162   3.232   3.755   9.274 -0.6313  0.5625  0.6302
  177SOPE  C21420163   3.158   3.567   9.183 -0.1586 -0.3294  0.0033
  177SOPE  H14R20164   3.059   3.599   9.144  0.2314  1.3792  0.3057
  177SOPE  H14S20165   3.152   3.463   9.221 -1.6340 -0.4337 -0.4631
  177SOPE  C21520166   3.253   3.573   9.059 -0.4852  0.4016 -0.2548
  177SOPE  H15R20167   3.354   3.598   9.100 -0.9052  1.7316  0.0248
  177SOPE  H15S20168   3.225   3.667   9.006  0.2760  0.9676  0.3166
  177SOPE  C21620169   3.239   3.440   8.977 -0.3324  0.2452  0.0348
  177SOPE  H16R20170   3.237   3.360   9.054  2.3302  0.5554  0.5368
  177SOPE  H16S20171   3.332   3.416   8.921 -0.4669  1.9075 -0.9891
  177SOPE  C21720172   3.123   3.433   8.874 -0.4394 -0.6093 -0.5392
  177SOPE  H17R20173   3.025   3.422   8.925 -1.3752 -2.1833 -2.5629
  177SOPE  H17S20174   3.119   3.334   8.825  0.9777 -0.4520 -1.0180
  177SOPE  C21820175   3.124   3.541   8.765  0.2573  0.4180 -0.4700
  177SOPE  H18R20176   3.107   3.641   8.809 -1.1389  0.7011 -1.5722
  177SOPE  H18S20177   3.042   3.510   8.696  0.1300 -0.8577  0.2224
  177SOPE  H18T20178   3.215   3.547   8.702  0.4240  1.4116 -0.1404
  177SOPE   C3320179   3.269   3.311   9.978  0.2849 -0.0451  0.1290
  177SOPE   H3X20180   3.220   3.213   9.991 -1.6700  0.6321 -1.5445
  177SOPE   H3Y20181   3.369   3.297  10.024  0.8380  1.3164 -0.5973
  177SOPE   C3420182   3.279   3.334   9.827 -0.5407 -0.3565  0.6554
  177SOPE   H4X20183   3.318   3.438   9.820  0.4853 -0.7829 -0.1567
  177SOPE   H4Y20184   3.174   3.336   9.791 -1.0965 -1.3098  2.1301
  177SOPE   C3520185   3.349   3.227   9.750  0.3860 -0.8084 -0.1845
  177SOPE   H5X20186   3.304   3.132   9.786 -0.4946 -1.0563 -1.8416
  177SOPE   H5Y20187   3.459   3.227   9.766  0.1016 -0.2845  1.9980
  177SOPE   C3620188   3.326   3.252   9.602 -0.6050 -0.2813 -0.2414
  177SOPE   H6X20189   3.351   3.358   9.580 -1.3175 -0.1368 -0.3638
  177SOPE   H6Y20190   3.220   3.230   9.578 -0.1703 -0.2985 -2.2936
  177SOPE   C3720191   3.408   3.161   9.512 -0.2361 -0.7333 -1.1098
  177SOPE   H7X20192   3.372   3.055   9.512 -0.0240 -0.8045 -1.5750
  177SOPE   H7Y20193   3.508   3.155   9.560  0.3286  0.2575 -2.1346
  177SOPE   C3820194   3.432   3.214   9.366 -0.2419 -0.3257 -0.3192
  177SOPE   H8X20195   3.511   3.292   9.371  0.0650 -0.6574  0.1390
  177SOPE   H8Y20196   3.340   3.259   9.323 -0.8679 -1.9788 -0.7712
  177SOPE   C3920197   3.476   3.103   9.281  0.6177  0.5879  1.0307
  177SOPE   H9X20198   3.392   3.031   9.267 -0.1060  1.5815  0.1220
  177SOPE   H9Y20199   3.560   3.042   9.322 -0.5664 -2.2338 -0.4319
  177SOPE  C31020200   3.517   3.145   9.135 -0.3413 -0.4151 -0.4005
  177SOPE  H10X20201   3.440   3.207   9.085 -1.3841 -1.3458  0.0124
  177SOPE  H10Y20202   3.534   3.049   9.082  3.0806 -0.3219  0.2743
  177SOPE  C31120203   3.649   3.223   9.133 -0.0736 -0.5531  0.3396
  177SOPE  H11X20204   3.727   3.155   9.173  0.9312 -1.0619 -2.2890
  177SOPE  H11Y20205   3.645   3.314   9.197 -0.1386  0.0341 -0.4822
  177SOPE  C31220206   3.697   3.251   8.994  0.5622 -0.2183  0.5810
  177SOPE  H12X20207   3.688   3.156   8.937 -1.6443  0.5570 -0.4906
  177SOPE  H12Y20208   3.803   3.284   9.000  1.9173 -3.8769 -0.7876
  177SOPE  C31320209   3.625   3.364   8.907 -0.0625 -0.0661  0.0068
  177SOPE  H13X20210   3.620   3.462   8.959  2.1964 -0.3615  0.9001
  177SOPE  H13Y20211   3.519   3.334   8.890 -0.2935  0.1346  1.0073
  177SOPE  C31420212   3.698   3.383   8.769  0.0929  0.0016  0.9212
  177SOPE  H14X20213   3.679   3.287   8.716  0.6885 -0.2333  1.1271
  177SOPE  H14Y20214   3.808   3.396   8.775  0.5258 -3.0911  1.7942
  177SOPE  C31520215   3.626   3.485   8.677 -0.6586 -0.3415  0.8281
  177SOPE  H15X20216   3.528   3.441   8.651 -1.6965  1.5374  1.3401
  177SOPE  H15Y20217   3.684   3.508   8.585  0.4832  2.7512  2.1845
  177SOPE  C31620218   3.587   3.628   8.727 -0.9768  0.5885 -0.9620
  177SOPE  H16X20219   3.541   3.613   8.827 -0.5363 -1.2185 -1.0042
  177SOPE  H16Y20220   3.503   3.675   8.671 -0.1779  0.9777 -1.8687
  177SOPE  C31720221   3.703   3.736   8.730 -0.6542 -0.4146  0.7850
  177SOPE  H17X20222   3.736   3.757   8.626 -1.6778  0.9890  0.7098
  177SOPE  H17Y20223   3.784   3.685   8.787  1.7273  2.3984  0.1665
  177SOPE  C31820224   3.670   3.867   8.794  0.0661  0.3736  0.5604
  177SOPE  H18X20225   3.754   3.938   8.781 -1.0718  1.5931 -0.5005
  177SOPE  H18Y20226   3.657   3.849   8.903 -0.4958  2.1816  0.8199
  177SOPE  H18Z20227   3.573   3.900   8.750  0.6354  0.3947 -0.7267
  178SOPE     N20228   0.199   6.625  10.838  0.0771 -0.5240  0.2452
  178SOPE   HN120229   0.218   6.529  10.874  1.3603 -0.1963  0.5059
  178SOPE   HN220230   0.194   6.689  10.920 -0.1763 -0.7490  0.4056
  178SOPE   HN320231   0.099   6.623  10.812  0.2876  0.5664 -0.7164
  178SOPE   C1220232   0.284   6.675  10.722  0.3588 -0.3321  0.0622
  178SOPE  H12A20233   0.226   6.718  10.638  1.8841  1.9415  0.1128
  178SOPE  H12B20234   0.337   6.586  10.682  1.7461  0.0814  0.9269
  178SOPE   C1120235   0.378   6.783  10.775  0.6990 -0.4061  0.7027
  178SOPE  H11A20236   0.338   6.879  10.814  1.1632 -0.5489  1.5715
  178SOPE  H11B20237   0.437   6.823  10.689  1.2236  0.0660  1.2717
  178SOPE     P20238   0.613   6.715  10.873 -0.0976  0.3553 -0.0677
  178SOPE   O1320239   0.624   6.619  10.763 -0.1753 -0.0318 -0.0841
  178SOPE   O1420240   0.652   6.670  11.011  0.1641 -0.4101  0.4783
  178SOPE   O1220241   0.457   6.745  10.889 -0.1488  0.2373 -0.3196
  178SOPE   O1120242   0.674   6.860  10.845  0.3685 -0.2045  0.2149
  178SOPE    C120243   0.630   6.973  10.923 -0.6600  0.8425 -0.0842
  178SOPE    HA20244   0.664   6.962  11.028  4.1925  2.2992 -1.2309
  178SOPE    HB20245   0.519   6.969  10.922 -0.6384 -2.4439  0.0809
  178SOPE    C220246   0.691   7.103  10.871 -0.4433 -0.4165  0.2051
  178SOPE    HS20247   0.634   7.188  10.914 -1.1647 -1.1232  0.6731
  178SOPE   O2120248   0.699   7.116  10.725 -0.4061  0.3549 -0.0074
  178SOPE   C2120249   0.583   7.118  10.659 -0.3546  0.3106 -0.0234
  178SOPE   O2220250   0.474   7.096  10.716 -0.1308 -0.1831 -0.1817
  178SOPE   C2220251   0.607   7.136  10.507 -0.5753 -0.3010  0.0470
  178SOPE   H2R20252   0.710   7.107  10.478 -0.3094  1.0974 -0.4400
  178SOPE   H2S20253   0.602   7.245  10.488  1.9727  0.1329  1.3535
  178SOPE    C320254   0.842   7.120  10.930  0.3391  1.1659  0.5538
  178SOPE    HX20255   0.885   7.020  10.907  3.5863  2.2253  1.4275
  178SOPE    HY20256   0.829   7.140  11.038 -2.1060 -1.2113  0.7957
  178SOPE   O3120257   0.920   7.227  10.870 -0.7515 -0.4010  0.6372
  178SOPE   C3120258   0.989   7.199  10.754  0.3458  0.1937  0.2488
  178SOPE   O3220259   0.999   7.086  10.707 -0.2388  0.8351 -0.0600
  178SOPE   C3220260   1.054   7.332  10.701  0.2747 -0.4151  0.5839
  178SOPE   H2X20261   1.132   7.356  10.776 -1.2980 -0.7818  2.3981
  178SOPE   H2Y20262   0.978   7.413  10.701  1.1942  0.4942 -0.8062
  178SOPE   C2320263   0.509   7.057  10.427  0.2079 -0.5034 -0.0798
  178SOPE   H3R20264   0.401   7.078  10.443 -1.0032 -4.1088 -2.1730
  178SOPE   H3S20265   0.520   6.947  10.436  0.5937 -0.4557  0.0485
  178SOPE   C2420266   0.534   7.083  10.274  0.5675 -1.0120  0.2544
  178SOPE   H4R20267   0.642   7.081  10.248  0.3844  0.1213 -0.6842
  178SOPE   H4S20268   0.476   7.012  10.211 -0.7416  0.7714 -0.6433
  178SOPE   C2520269   0.497   7.221  10.230  0.0453  0.1187  0.1238
  178SOPE   H5R20270   0.387   7.227  10.214 -0.0890 -1.6938  0.1536
  178SOPE   H5S20271   0.526   7.300  10.302  0.0038  1.0942 -0.9142
  178SOPE   C2620272   0.565   7.266  10.096  0.0894  0.0875  0.2196
  178SOPE   H6R20273   0.532   7.372  10.085 -0.8952 -0.2872 -0.5724
  178SOPE   H6S20274   0.675   7.261  10.108  0.0345  0.2576  0.8775
  178SOPE   C2720275   0.502   7.191   9.976 -0.4223 -0.1513 -0.7772
  178SOPE   H7R20276   0.511   7.082   9.994  1.5235  0.1275  0.1778
  178SOPE   H7S20277   0.391   7.201   9.979 -0.6893 -2.6833  0.6920
  178SOPE   C2820278   0.557   7.236   9.842 -0.1831  0.3724 -0.0630
  178SOPE   H8R20279   0.527   7.343   9.835 -1.3507  0.0388 -0.3183
  178SOPE   H8S20280   0.667   7.223   9.828  0.7750  3.0080  3.5010
  178SOPE   C2920281   0.489   7.149   9.733 -1.1356  0.5060 -0.4307
  178SOPE   H9120282   0.518   7.043   9.736 -0.1623  0.7394 -0.9569
  178SOPE  C21020283   0.407   7.191   9.636  0.0331  0.0207  0.2368
  178SOPE  H10120284   0.352   7.124   9.569  0.8752  1.2075 -1.7389
  178SOPE  C21120285   0.366   7.336   9.620 -0.3822 -0.4875 -0.7235
  178SOPE  H11R20286   0.447   7.396   9.574 -1.7263  0.3828 -2.0518
  178SOPE  H11S20287   0.333   7.385   9.714  0.2614 -0.8621 -0.2971
  178SOPE  C21220288   0.247   7.348   9.524 -0.8905 -0.1029  0.2881
  178SOPE  H12R20289   0.214   7.454   9.517 -2.7216 -0.5846  0.9974
  178SOPE  H12S20290   0.157   7.289   9.553  0.7978 -3.6774 -1.1502
  178SOPE  C21320291   0.287   7.299   9.378  0.5665 -0.9303 -0.6188
  178SOPE  H13R20292   0.265   7.192   9.357 -2.3708 -0.4549 -0.4505
  178SOPE  H13S20293   0.395   7.322   9.370  0.7396 -2.1377 -2.1654
  178SOPE  C21420294   0.214   7.380   9.267  0.8285  0.2359  0.0955
  178SOPE  H14R20295   0.254   7.483   9.278 -1.0519  1.1116 -0.6611
  178SOPE  H14S20296   0.107   7.381   9.296  0.4686 -1.3362 -1.0307
  178SOPE  C21520297   0.237   7.326   9.115  0.7960  0.0954 -0.5560
  178SOPE  H15R20298   0.194   7.224   9.127 -0.4217  0.8557  2.3643
  178SOPE  H15S20299   0.345   7.319   9.093  1.4656 -2.1184  2.7650
  178SOPE  C21620300   0.158   7.409   9.008 -0.2353  0.0078  0.4167
  178SOPE  H16R20301   0.164   7.516   9.035  2.3319 -0.3543  1.5924
  178SOPE  H16S20302   0.049   7.387   9.008 -0.7325  1.9126 -2.1437
  178SOPE  C21720303   0.216   7.390   8.863  0.4448  0.3934  0.1021
  178SOPE  H17R20304   0.225   7.280   8.852  1.5358  0.5262 -0.5603
  178SOPE  H17S20305   0.315   7.441   8.859 -0.1659  1.6461  0.6205
  178SOPE  C21820306   0.127   7.450   8.743 -0.2100  0.3351 -0.2767
  178SOPE  H18R20307   0.171   7.437   8.642  1.8218  0.7080  0.5094
  178SOPE  H18S20308   0.100   7.555   8.764 -0.0902 -0.0413  2.1209
  178SOPE  H18T20309   0.037   7.385   8.743  1.4663 -2.1748 -1.0684
  178SOPE   C3320310   1.110   7.320  10.557  0.7597  0.4105 -0.0580
  178SOPE   H3X20311   1.180   7.234  10.558  0.6784  0.2079 -3.1993
  178SOPE   H3Y20312   1.166   7.412  10.530  1.4484 -0.0546 -0.2285
  178SOPE   C3420313   0.998   7.308  10.450  0.0694 -0.6655 -0.6930
  178SOPE   H4X20314   0.915   7.376  10.480  0.5519 -0.2476 -0.2736
  178SOPE   H4Y20315   0.954   7.208  10.432  0.1669 -0.5044 -1.9238
  178SOPE   C3520316   1.054   7.366  10.322  1.0189 -0.5179  0.8947
  178SOPE   H5X20317   1.138   7.303  10.285  0.1226  0.1310 -2.6016
  178SOPE   H5Y20318   1.088   7.471  10.334 -2.8197  0.9500  0.3778
  178SOPE   C3620319   0.945   7.378  10.207 -0.2650 -0.0166  0.0891
  178SOPE   H6X20320   0.881   7.466  10.229  0.8264  1.0181 -0.6934
  178SOPE   H6Y20321   0.887   7.284  10.216 -2.1663  1.1605  0.7081
  178SOPE   C3720322   1.017   7.377  10.075 -0.3864  0.0912 -1.0170
  178SOPE   H7X20323   1.063   7.276  10.085 -2.1961 -0.9327 -2.3800
  178SOPE   H7Y20324   1.100   7.450  10.064 -0.2083 -0.3135 -2.5376
  178SOPE   C3820325   0.926   7.371   9.953  0.2633  0.0447  0.5222
  178SOPE   H8X20326   0.878   7.471   9.950  0.9159  0.3372 -1.9914
  178SOPE   H8Y20327   0.844   7.297   9.966  0.5752 -0.6536 -1.2587
  178SOPE   C3920328   1.003   7.344   9.817  0.6794 -0.4532  0.0606
  178SOPE   H9X20329   1.056   7.247   9.816  2.4252  0.3467  2.7773
  178SOPE   H9Y20330   1.082   7.421   9.806  0.7832 -0.7736 -1.6798
  178SOPE  C31020331   0.906   7.344   9.700 -0.5773 -0.4580  0.3506
  178SOPE  H10X20332   0.834   7.428   9.692 -2.1065 -1.7252  0.3576
  178SOPE  H10Y20333   0.835   7.260   9.713 -1.7525  0.4055 -0.2866
  178SOPE  C31120334   0.977   7.329   9.563  0.8384  0.6798 -0.4188
  178SOPE  H11X20335   1.068   7.271   9.590  0.1856 -0.0003  0.4135
  178SOPE  H11Y20336   1.011   7.424   9.518  2.2521  1.1244  1.4567
  178SOPE  C31220337   0.894   7.250   9.460  0.7399 -0.0856 -0.4669
  178SOPE  H12X20338   0.864   7.156   9.512  1.3791  1.2623  2.5347
  178SOPE  H12Y20339   0.969   7.231   9.380  2.7334 -0.0214  1.2890
  178SOPE  C31320340   0.763   7.312   9.418 -0.6919 -0.0355 -0.1617
  178SOPE  H13X20341   0.790   7.413   9.381  0.2052 -0.6547 -1.2545
  178SOPE  H13Y20342   0.699   7.317   9.509  1.8135  1.1530  1.6551
  178SOPE  C31420343   0.681   7.234   9.309 -0.5883  0.0743  0.1143
  178SOPE  H14X20344   0.736   7.220   9.213 -0.4162 -1.3077  0.3842
  178SOPE  H14Y20345   0.594   7.299   9.290  0.4733  1.3092 -0.7201
  178SOPE  C31520346   0.643   7.098   9.372  0.2943 -0.0836 -0.3866
  178SOPE  H15X20347   0.614   7.110   9.478  2.3197 -2.7281  0.6145
  178SOPE  H15Y20348   0.736   7.036   9.369  1.1318  1.1261 -0.0006
  178SOPE  C31620349   0.529   7.013   9.307  0.0851  0.6576 -0.3682
  178SOPE  H16X20350   0.431   7.031   9.356 -0.3977  0.0770 -1.0807
  178SOPE  H16Y20351   0.557   6.909   9.335  0.9233  1.1173  0.5633
  178SOPE  C31720352   0.511   7.035   9.155  1.1619 -0.2735 -0.4468
  178SOPE  H17X20353   0.603   7.007   9.099  2.1552  1.0107  0.4996
  178SOPE  H17Y20354   0.493   7.144   9.143 -0.0994 -0.1867  1.7790
  178SOPE  C31820355   0.393   6.965   9.090 -0.2639 -0.4730 -0.4834
  178SOPE  H18X20356   0.364   6.867   9.134 -3.3463 -0.2964 -1.8802
  178SOPE  H18Y20357   0.407   6.955   8.980  2.5947 -3.2404 -0.0015
  178SOPE  H18Z20358   0.302   7.027   9.106  0.6210  0.5524  0.8030
  179SOPE     N20359   6.019   2.585   6.288  0.4680 -0.4674  0.0596
  179SOPE   HN120360   6.043   2.539   6.198  0.5006 -0.4147  0.0417
  179SOPE   HN220361   5.959   2.669   6.274 -0.6712 -0.9583  1.6895
  179SOPE   HN320362   6.110   2.617   6.327 -0.6913  2.5418  0.5204
  179SOPE   C1220363   5.940   2.503   6.385  0.2857  0.4660 -0.0974
  179SOPE  H12A20364   5.959   2.395   6.369  1.2786  0.2811  2.0327
  179SOPE  H12B20365   5.837   2.529   6.352  0.4125  0.7343 -0.2852
  179SOPE   C1120366   5.959   2.557   6.533 -0.0052  0.3040  0.6129
  179SOPE  H11A20367   6.066   2.536   6.558  1.0908  1.0989 -2.8466
  179SOPE  H11B20368   5.890   2.496   6.595 -1.2004 -1.2208 -2.0435
  179SOPE     P20369   5.792   2.747   6.583  0.3366  0.1189  0.2372
  179SOPE   O1320370   5.688   2.640   6.580  0.3019 -0.4656 -0.1331
  179SOPE   O1420371   5.763   2.863   6.499 -0.0334 -0.2862 -0.0414
  179SOPE   O1220372   5.938   2.696   6.538  0.0663 -0.0078  0.4640
  179SOPE   O1120373   5.820   2.803   6.731  0.1525  0.1164  0.3501
  179SOPE    C120374   5.944   2.874   6.746  0.4180  0.6587  0.0748
  179SOPE    HA20375   5.953   2.951   6.667  2.3622 -0.3334 -0.7406
  179SOPE    HB20376   6.032   2.806   6.737 -0.5248 -0.8434  1.6287
  179SOPE    C220377   5.959   2.954   6.873  0.1353 -0.2587 -0.5846
  179SOPE    HS20378   6.063   2.983   6.901  0.0537 -0.2776 -0.2533
  179SOPE   O2120379   5.894   2.893   6.984  0.1897  0.4319 -0.1506
  179SOPE   C2120380   5.970   2.792   7.035  0.4011 -0.4718 -0.8771
  179SOPE   O2220381   6.073   2.758   6.985  0.0839 -0.4781  0.3787
  179SOPE   C2220382   5.891   2.733   7.152  0.5880 -0.2552  0.4375
  179SOPE   H2R20383   5.787   2.745   7.114  0.1436 -1.8875  1.0826
  179SOPE   H2S20384   5.898   2.799   7.241  0.1921 -1.2936  1.2602
  179SOPE    C320385   5.893   3.099   6.859  0.3151  0.7001 -0.1564
  179SOPE    HX20386   5.783   3.087   6.845  0.4795 -0.7261 -0.4016
  179SOPE    HY20387   5.928   3.134   6.760 -2.1500  0.7154 -1.1005
  179SOPE   O3120388   5.918   3.185   6.970  0.2932  0.2786  0.3662
  179SOPE   C3120389   6.027   3.256   6.957  0.4680  0.1643 -0.6175
  179SOPE   O3220390   6.117   3.248   6.874  0.3876 -0.6317  0.3847
  179SOPE   C3220391   6.023   3.366   7.061 -0.0174  0.5419 -0.1386
  179SOPE   H2X20392   6.017   3.465   7.011 -1.6729  1.5964  2.0081
  179SOPE   H2Y20393   6.123   3.368   7.110  0.6505  2.7549 -1.4519
  179SOPE   C2320394   5.927   2.585   7.179  0.7878  0.2083  0.1947
  179SOPE   H3R20395   6.029   2.582   7.222  0.7223  1.7328  0.5298
  179SOPE   H3S20396   5.929   2.532   7.081 -3.1525  0.0651  0.0201
  179SOPE   C2420397   5.824   2.509   7.266  0.5502  0.1512  0.7572
  179SOPE   H4R20398   5.732   2.494   7.206  1.5927  1.8612 -1.3909
  179SOPE   H4S20399   5.852   2.402   7.278 -1.4615 -0.9205 -2.6621
  179SOPE   C2520400   5.783   2.595   7.386  0.3732 -0.3816 -0.4481
  179SOPE   H5R20401   5.880   2.600   7.439  0.2215 -2.0195  0.0307
  179SOPE   H5S20402   5.746   2.696   7.360  1.6901  1.0434  2.6759
  179SOPE   C2620403   5.676   2.531   7.474 -0.8017 -1.0377 -0.4107
  179SOPE   H6R20404   5.717   2.442   7.526  0.8523 -0.4466 -0.6209
  179SOPE   H6S20405   5.635   2.600   7.552  0.3803  0.3625 -0.9638
  179SOPE   C2720406   5.543   2.497   7.409  0.4199 -0.1976  0.0907
  179SOPE   H7R20407   5.513   2.586   7.351  0.3332  1.4142  2.4619
  179SOPE   H7S20408   5.562   2.413   7.338 -0.0408 -0.3695  0.1710
  179SOPE   C2820409   5.435   2.451   7.510 -0.3009  0.1091 -0.7222
  179SOPE   H8R20410   5.353   2.411   7.446 -2.3950  0.2149  1.7450
  179SOPE   H8S20411   5.488   2.363   7.553 -0.5102  0.7813  0.9954
  179SOPE   C2920412   5.380   2.538   7.619  0.0624  0.3415 -0.3359
  179SOPE   H9120413   5.355   2.631   7.565  1.0429  0.1167 -1.2023
  179SOPE  C21020414   5.388   2.535   7.758 -1.2679  0.5717 -0.1349
  179SOPE  H10120415   5.332   2.608   7.819 -1.8421  0.3124 -0.3390
  179SOPE  C21120416   5.451   2.428   7.843 -0.2467  0.2450  0.4598
  179SOPE  H11R20417   5.549   2.401   7.797 -1.2754  0.1179 -1.7837
  179SOPE  H11S20418   5.383   2.340   7.848 -0.2566  0.2446  0.3219
  179SOPE  C21220419   5.483   2.461   7.992 -0.2551  0.0009  0.3407
  179SOPE  H12R20420   5.400   2.519   8.038 -1.4921 -2.0821  0.8736
  179SOPE  H12S20421   5.581   2.514   7.993 -0.6445  0.7439  0.1411
  179SOPE  C21320422   5.509   2.323   8.057  0.1814  0.0458 -0.2839
  179SOPE  H13R20423   5.598   2.282   8.005  1.8200  2.4137  0.4927
  179SOPE  H13S20424   5.414   2.265   8.048 -1.1402  2.0121  0.1843
  179SOPE  C21420425   5.551   2.341   8.205 -0.2243 -0.0811  0.2298
  179SOPE  H14R20426   5.455   2.363   8.257 -0.5514  0.9297 -0.7633
  179SOPE  H14S20427   5.610   2.435   8.199 -0.8646  0.2842 -0.5871
  179SOPE  C21520428   5.634   2.230   8.261 -0.4711 -0.4940  0.0702
  179SOPE  H15R20429   5.679   2.282   8.348 -2.6757  2.4979 -0.4017
  179SOPE  H15S20430   5.727   2.209   8.204 -1.0830  0.8998 -1.5312
  179SOPE  C21620431   5.553   2.103   8.296 -0.2875 -0.2767  0.1971
  179SOPE  H16R20432   5.486   2.085   8.210 -1.7427  0.6349  1.1039
  179SOPE  H16S20433   5.484   2.141   8.374 -2.0227 -0.1286 -1.3536
  179SOPE  C21720434   5.634   1.982   8.336 -0.0531 -0.1599 -0.0597
  179SOPE  H17R20435   5.714   2.007   8.409 -1.0267 -1.3950  1.5077
  179SOPE  H17S20436   5.684   1.943   8.245  1.2324 -0.9916  0.9602
  179SOPE  C21820437   5.539   1.872   8.399  0.2399 -0.0780  0.1291
  179SOPE  H18R20438   5.469   1.841   8.318 -0.8992  3.3572 -0.3385
  179SOPE  H18S20439   5.483   1.922   8.480 -1.5062 -1.2361 -0.2939
  179SOPE  H18T20440   5.599   1.784   8.432 -0.0543 -0.5386 -0.5280
  179SOPE   C3320441   5.910   3.365   7.173 -0.2912 -0.5244  0.8548
  179SOPE   H3X20442   5.919   3.271   7.232 -3.0040 -2.0667 -0.9913
  179SOPE   H3Y20443   5.805   3.371   7.139 -0.6978  1.5265  2.2658
  179SOPE   C3420444   5.934   3.484   7.268  0.0899 -0.9934  0.1094
  179SOPE   H4X20445   5.904   3.579   7.220  0.1794 -1.2583 -0.4889
  179SOPE   H4Y20446   6.041   3.487   7.297  0.2751  0.3832 -0.6185
  179SOPE   C3520447   5.854   3.460   7.404  0.2072 -0.0392  0.7092
  179SOPE   H5X20448   5.893   3.365   7.445  0.6209  1.0296  2.9242
  179SOPE   H5Y20449   5.744   3.456   7.391  0.0409  0.7788  1.7461
  179SOPE   C3620450   5.880   3.564   7.516 -0.1423 -0.1783  0.7345
  179SOPE   H6X20451   5.853   3.665   7.479  1.6831  0.5909  1.3566
  179SOPE   H6Y20452   5.988   3.566   7.544  0.2633 -0.0811 -0.7324
  179SOPE   C3720453   5.804   3.526   7.645  0.0370  0.2305 -0.0820
  179SOPE   H7X20454   5.801   3.416   7.661  1.9582 -0.0338 -1.1604
  179SOPE   H7Y20455   5.699   3.555   7.627  0.1451  0.2433 -0.7319
  179SOPE   C3820456   5.851   3.593   7.768 -0.1923  0.4580 -0.7908
  179SOPE   H8X20457   5.868   3.702   7.754  3.0737  0.5164  2.1807
  179SOPE   H8Y20458   5.953   3.554   7.789 -0.3870  2.0085  4.3349
  179SOPE   C3920459   5.771   3.577   7.900 -0.0629  0.0975 -0.4775
  179SOPE   H9X20460   5.754   3.470   7.923  3.2555 -0.6968 -1.1326
  179SOPE   H9Y20461   5.677   3.634   7.886  0.0478  0.2487 -0.6154
  179SOPE  C31020462   5.832   3.622   8.032 -0.0310  0.4075  0.2834
  179SOPE  H10X20463   5.849   3.731   8.014 -1.2680  0.2511 -2.3025
  179SOPE  H10Y20464   5.930   3.575   8.054 -0.2396  0.1939  0.7709
  179SOPE  C31120465   5.735   3.604   8.145  0.5868 -0.0161  0.3255
  179SOPE  H11X20466   5.745   3.503   8.191  1.0657 -0.7818 -1.3722
  179SOPE  H11Y20467   5.634   3.622   8.102  1.0817 -0.9923 -1.3424
  179SOPE  C31220468   5.757   3.714   8.255  0.2651  0.0190 -0.5414
  179SOPE  H12X20469   5.738   3.811   8.206  0.2334  0.6341  0.6489
  179SOPE  H12Y20470   5.862   3.715   8.293 -0.3213 -0.3585  1.1677
  179SOPE  C31320471   5.657   3.713   8.377 -0.9380  0.5956  0.5356
  179SOPE  H13X20472   5.650   3.608   8.412  2.7385  0.0490  0.0967
  179SOPE  H13Y20473   5.559   3.750   8.341 -0.3089  0.3564 -1.6212
  179SOPE  C31420474   5.703   3.794   8.497 -0.1589  0.0745  0.1758
  179SOPE  H14X20475   5.704   3.900   8.465  1.4535  0.2142  0.6006
  179SOPE  H14Y20476   5.809   3.773   8.523  0.0730  0.9226 -0.0488
  179SOPE  C31520477   5.624   3.756   8.621  0.1123  0.1566 -0.4656
  179SOPE  H15X20478   5.644   3.650   8.647  1.5064  0.2905 -0.9079
  179SOPE  H15Y20479   5.515   3.763   8.604  0.0341  3.4999  0.5653
  179SOPE  C31620480   5.644   3.843   8.748  0.0302 -0.9035  0.3974
  179SOPE  H16X20481   5.754   3.855   8.754 -0.0492  0.3095 -0.1380
  179SOPE  H16Y20482   5.593   3.807   8.840 -1.9214 -0.0331 -0.2751
  179SOPE  C31720483   5.583   3.984   8.726 -0.9115 -0.4015  0.5172
  179SOPE  H17X20484   5.477   3.976   8.694 -0.9437 -0.2293  0.5805
  179SOPE  H17Y20485   5.638   4.036   8.644 -0.6557  1.5306  1.8502
  179SOPE  C31820486   5.597   4.063   8.846  0.6721  0.4665  0.1796
  179SOPE  H18X20487   5.699   4.073   8.890  0.1300 -0.3946  1.7236
  179SOPE  H18Y20488   5.529   4.017   8.921  0.4063 -1.1340 -0.9891
  179SOPE  H18Z20489   5.548   4.160   8.827 -1.5589 -0.8501 -1.2780
  180SOPE     N20490   5.680   4.404   6.301  0.4076  0.2114 -0.3598
  180SOPE   HN120491   5.758   4.464   6.269 -0.0714  1.2535  0.3754
  180SOPE   HN220492   5.689   4.378   6.401 -0.6931 -0.7533 -0.4854
  180SOPE   HN320493   5.671   4.317   6.245  2.5392 -0.4054  0.1669
  180SOPE   C1220494   5.549   4.475   6.286  0.3101  0.0694  0.2747
  180SOPE  H12A20495   5.531   4.486   6.177  3.1297  2.8201 -0.0503
  180SOPE  H12B20496   5.561   4.574   6.335  0.3569  0.8785 -1.3003
  180SOPE   C1120497   5.443   4.384   6.352 -0.8887  0.0361  0.6701
  180SOPE  H11A20498   5.343   4.410   6.312 -0.5401  1.7906  0.8182
  180SOPE  H11B20499   5.442   4.400   6.462 -1.2263  1.3876  0.4922
  180SOPE     P20500   5.435   4.128   6.402  0.0982 -0.1017  0.0148
  180SOPE   O1320501   5.539   4.103   6.496  0.4761 -0.0532 -0.3415
  180SOPE   O1420502   5.400   4.017   6.315  0.0632 -0.0558 -0.1655
  180SOPE   O1220503   5.466   4.249   6.307 -0.2542 -0.0751 -0.0479
  180SOPE   O1120504   5.299   4.165   6.473 -0.4017 -0.2460 -0.7699
  180SOPE    C120505   5.297   4.204   6.613  0.7825  0.2010  0.2544
  180SOPE    HA20506   5.203   4.258   6.636 -0.0978 -0.3036 -1.8765
  180SOPE    HB20507   5.379   4.272   6.642  1.3793  0.2551 -1.4928
  180SOPE    C220508   5.284   4.080   6.706 -0.0986 -0.8069 -0.6631
  180SOPE    HS20509   5.226   4.104   6.797  0.8001 -0.1723 -0.2386
  180SOPE   O2120510   5.415   4.043   6.751  0.4619  0.1324 -0.8653
  180SOPE   C2120511   5.473   4.109   6.843 -0.3636  0.0838 -0.0982
  180SOPE   O2220512   5.443   4.217   6.886 -0.2876 -0.0190 -0.6753
  180SOPE   C2220513   5.611   4.046   6.880  0.2131 -0.0807  0.7625
  180SOPE   H2R20514   5.643   4.123   6.953 -0.7797  0.1035  1.0159
  180SOPE   H2S20515   5.684   4.052   6.797 -1.4088  1.2312 -0.6318
  180SOPE    C320516   5.212   3.954   6.651  0.3649  0.5927  0.0708
  180SOPE    HX20517   5.265   3.913   6.562 -1.4081  0.5158 -1.0108
  180SOPE    HY20518   5.113   3.986   6.610 -0.2523 -0.4796  0.6861
  180SOPE   O3120519   5.193   3.849   6.750 -0.2314 -0.1371  0.2678
  180SOPE   C3120520   5.291   3.751   6.759  0.3894  0.3519 -0.3974
  180SOPE   O3220521   5.386   3.741   6.689 -0.1599 -0.1857 -0.4215
  180SOPE   C3220522   5.267   3.667   6.887  0.2203  0.6890 -0.3528
  180SOPE   H2X20523   5.246   3.733   6.974  0.1836 -1.1905  1.1570
  180SOPE   H2Y20524   5.365   3.614   6.900  0.5764  1.2802 -0.6116
  180SOPE   C2320525   5.596   3.901   6.943 -0.0755 -0.2134 -0.3195
  180SOPE   H3R20526   5.692   3.849   6.923  1.0887  1.7888 -0.1908
  180SOPE   H3S20527   5.518   3.849   6.884  0.3433  0.6968 -1.7360
  180SOPE   C2420528   5.555   3.901   7.085 -0.1899 -0.2961 -0.6331
  180SOPE   H4R20529   5.620   3.958   7.154 -0.5585 -0.5102 -0.1082
  180SOPE   H4S20530   5.456   3.951   7.081  0.3463  0.7668 -0.9404
  180SOPE   C2520531   5.533   3.764   7.158  0.3150 -0.3260  0.0032
  180SOPE   H5R20532   5.460   3.700   7.104 -1.1823  0.6148  0.8564
  180SOPE   H5S20533   5.635   3.719   7.166  0.8539  0.9412  0.4803
  180SOPE   C2620534   5.468   3.786   7.290  0.1710 -0.7563 -0.4831
  180SOPE   H6R20535   5.525   3.847   7.363  0.1333 -2.4561  1.0395
  180SOPE   H6S20536   5.370   3.835   7.274  0.4754  0.5327  1.2798
  180SOPE   C2720537   5.443   3.659   7.373  0.3901  0.0937  0.2825
  180SOPE   H7R20538   5.394   3.581   7.311 -0.3331 -0.0981  1.0789
  180SOPE   H7S20539   5.540   3.613   7.404  0.2626 -0.4455 -0.1067
  180SOPE   C2820540   5.357   3.679   7.502 -0.2397  1.2356  0.5103
  180SOPE   H8R20541   5.287   3.760   7.472 -1.7909 -0.4252 -0.5751
  180SOPE   H8S20542   5.298   3.586   7.518  1.1334  0.0580 -0.9851
  180SOPE   C2920543   5.427   3.707   7.628 -0.0250  0.3689 -0.0631
  180SOPE   H9120544   5.536   3.702   7.617 -0.0096 -3.6386  0.5513
  180SOPE  C21020545   5.385   3.731   7.754  0.1146  0.1046 -0.3639
  180SOPE  H10120546   5.455   3.755   7.835 -1.7867 -0.4790  1.5550
  180SOPE  C21120547   5.250   3.758   7.807  0.3235 -0.1336 -0.2719
  180SOPE  H11R20548   5.184   3.729   7.723 -0.9470  2.9301 -0.4345
  180SOPE  H11S20549   5.238   3.867   7.824  0.3038 -0.1476 -0.1923
  180SOPE  C21220550   5.201   3.694   7.940  0.4821  0.3067 -0.2912
  180SOPE  H12R20551   5.195   3.585   7.921  0.7316 -0.4220  3.1379
  180SOPE  H12S20552   5.097   3.714   7.972 -0.0854 -4.3102  1.4018
  180SOPE  C21320553   5.288   3.708   8.065 -0.5907  0.3766  0.4747
  180SOPE  H13R20554   5.284   3.811   8.107 -1.3412 -0.1821  1.8288
  180SOPE  H13S20555   5.395   3.688   8.044 -0.8452 -1.9827  1.2353
  180SOPE  C21420556   5.221   3.640   8.186  0.0091 -0.2306 -0.1910
  180SOPE  H14R20557   5.209   3.529   8.181 -1.4451 -0.1004 -0.1436
  180SOPE  H14S20558   5.114   3.672   8.188  0.6307  1.9513  0.5586
  180SOPE  C21520559   5.290   3.672   8.308 -0.0793  0.2237  0.4489
  180SOPE  H15R20560   5.311   3.780   8.324 -2.3595  0.6376  1.0252
  180SOPE  H15S20561   5.388   3.620   8.309 -1.0133 -1.6798 -0.5959
  180SOPE  C21620562   5.218   3.615   8.439  0.0661  0.0068 -0.1979
  180SOPE  H16R20563   5.124   3.673   8.451 -0.2204 -0.3961 -0.4647
  180SOPE  H16S20564   5.287   3.650   8.519 -0.6059  0.5192  0.1728
  180SOPE  C21720565   5.195   3.462   8.435 -0.1786  0.5129  0.8872
  180SOPE  H17R20566   5.287   3.411   8.398  0.6627  3.3203 -1.1974
  180SOPE  H17S20567   5.110   3.444   8.365  1.0861  0.6335 -0.7418
  180SOPE  C21820568   5.148   3.402   8.570  0.1785  0.2662 -0.5602
  180SOPE  H18R20569   5.056   3.454   8.603 -1.3058 -1.2084 -2.2001
  180SOPE  H18S20570   5.221   3.407   8.655 -2.1414 -0.1131  1.5691
  180SOPE  H18T20571   5.127   3.293   8.569  0.3902  0.2121 -0.0194
  180SOPE   C3320572   5.160   3.552   6.870 -0.5318 -0.0791  0.4292
  180SOPE   H3X20573   5.181   3.481   6.787  1.9610  0.2421  0.7038
  180SOPE   H3Y20574   5.083   3.618   6.824  0.2551  1.0454  0.6829
  180SOPE   C3420575   5.111   3.488   6.996  0.1373 -0.3085  0.0857
  180SOPE   H4X20576   5.014   3.438   6.974 -0.6846  0.1815  2.3168
  180SOPE   H4Y20577   5.092   3.565   7.073 -2.3939  0.6178 -1.3252
  180SOPE   C3520578   5.201   3.382   7.051  0.2479  0.0212 -0.7404
  180SOPE   H5X20579   5.302   3.413   7.085 -1.8165  4.9087  1.9452
  180SOPE   H5Y20580   5.218   3.310   6.968 -1.9139 -0.3686 -0.9065
  180SOPE   C3620581   5.137   3.305   7.173  0.0735 -0.3046 -0.1628
  180SOPE   H6X20582   5.213   3.240   7.221  0.4917  0.6500  0.4965
  180SOPE   H6Y20583   5.045   3.252   7.140 -0.8068 -0.6908  2.6862
  180SOPE   C3720584   5.088   3.405   7.273 -0.0017  0.3296 -0.6663
  180SOPE   H7X20585   4.989   3.441   7.239  0.2405  2.1492  0.4120
  180SOPE   H7Y20586   5.146   3.498   7.290 -1.2343  0.8049  1.2051
  180SOPE   C3820587   5.085   3.348   7.417 -0.4550  0.7631 -0.2603
  180SOPE   H8X20588   5.192   3.333   7.445  0.2401 -0.9772 -3.3290
  180SOPE   H8Y20589   5.029   3.252   7.413  0.6135  0.1264 -0.6953
  180SOPE   C3920590   5.002   3.427   7.521 -0.0107 -0.2186 -0.1931
  180SOPE   H9X20591   4.906   3.450   7.471  0.3007 -0.6698 -0.9995
  180SOPE   H9Y20592   5.065   3.517   7.540 -0.7515  0.4375 -0.8280
  180SOPE  C31020593   4.985   3.354   7.660  0.2915 -0.8115  0.1913
  180SOPE  H10X20594   5.084   3.303   7.669  0.5432 -0.3359  0.1717
  180SOPE  H10Y20595   4.918   3.268   7.641  0.3799 -0.7048 -0.6216
  180SOPE  C31120596   4.956   3.450   7.775 -0.7978  0.3720 -0.2683
  180SOPE  H11X20597   4.867   3.511   7.749 -0.0959  1.8948  0.8107
  180SOPE  H11Y20598   5.040   3.521   7.786 -0.0770 -0.4814 -0.2120
  180SOPE  C31220599   4.924   3.386   7.906  0.2938  0.3195  0.2944
  180SOPE  H12X20600   5.001   3.311   7.933  0.6595  0.1101 -1.2160
  180SOPE  H12Y20601   4.835   3.320   7.899 -1.1558  2.0147  1.7141
  180SOPE  C31320602   4.908   3.488   8.018 -0.4981 -0.1087 -0.6064
  180SOPE  H13X20603   4.824   3.557   7.993  0.8914  2.8153  2.0348
  180SOPE  H13Y20604   5.005   3.533   8.047 -0.3918 -2.3022  3.1165
  180SOPE  C31420605   4.854   3.426   8.142 -0.0813 -0.5478 -0.5499
  180SOPE  H14X20606   4.918   3.340   8.173  0.6230  0.7248  1.8664
  180SOPE  H14Y20607   4.757   3.379   8.115  0.0505 -0.8905 -0.4325
  180SOPE  C31520608   4.836   3.530   8.261 -0.0636 -0.1149  0.2606
  180SOPE  H15X20609   4.751   3.594   8.231 -2.1578 -2.1920  1.4721
  180SOPE  H15Y20610   4.925   3.594   8.280 -1.0041  0.4556  3.3001
  180SOPE  C31620611   4.782   3.464   8.392 -0.3026  0.3935  0.4018
  180SOPE  H16X20612   4.853   3.391   8.436 -0.6354 -0.6099 -0.6785
  180SOPE  H16Y20613   4.695   3.401   8.367 -0.6286  1.0545 -0.1639
  180SOPE  C31720614   4.734   3.568   8.488  0.1024  0.3848  0.8653
  180SOPE  H17X20615   4.655   3.613   8.424  0.3164  1.8433  1.5871
  180SOPE  H17Y20616   4.815   3.641   8.509  0.6383  0.8546 -2.3615
  180SOPE  C31820617   4.675   3.509   8.615 -0.9543  0.4987 -0.4925
  180SOPE  H18X20618   4.593   3.438   8.595 -0.0501 -0.9774  0.8501
  180SOPE  H18Y20619   4.630   3.584   8.684 -0.6574  0.4168 -0.2054
  180SOPE  H18Z20620   4.745   3.443   8.671 -2.6248 -2.3502 -1.6076
  181SOPE     N20621   4.527   0.247   5.985 -0.0771 -0.1390 -0.0953
  181SOPE   HN120622   4.543   0.334   5.930  0.5616 -1.1680 -1.5621
  181SOPE   HN220623   4.598   0.179   5.954 -1.1293 -1.1610 -0.3397
  181SOPE   HN320624   4.438   0.200   5.959  0.0208 -1.1573  1.3161
  181SOPE   C1220625   4.528   0.266   6.138 -0.1443 -0.1116  0.2857
  181SOPE  H12A20626   4.526   0.166   6.186 -0.2404  0.0524  0.6252
  181SOPE  H12B20627   4.429   0.312   6.159  0.3279  1.1074 -0.0975
  181SOPE   C1120628   4.647   0.348   6.182  0.0717  0.8331  0.5918
  181SOPE  H11A20629   4.743   0.299   6.155  0.6825  3.3669 -2.4666
  181SOPE  H11B20630   4.653   0.363   6.292  0.8981  1.3868  0.4821
  181SOPE     P20631   4.763   0.566   6.107  0.2010 -0.2413 -0.6157
  181SOPE   O1320632   4.732   0.713   6.082 -0.9775  0.1205 -0.8301
  181SOPE   O1420633   4.850   0.507   6.005 -0.1569 -0.0768 -0.4120
  181SOPE   O1220634   4.634   0.477   6.105 -0.1687  0.3029  0.2451
  181SOPE   O1120635   4.825   0.538   6.252 -0.2482 -0.2650  0.3442
  181SOPE    C120636   4.807   0.642   6.346  0.3794  0.0432 -0.5270
  181SOPE    HA20637   4.724   0.713   6.328 -0.0589  0.6805  3.1314
  181SOPE    HB20638   4.896   0.708   6.359  2.0650 -2.1316 -0.5411
  181SOPE    C220639   4.809   0.584   6.496  0.0939  0.6357  0.2152
  181SOPE    HS20640   4.705   0.547   6.505 -0.0279  0.5347 -1.3251
  181SOPE   O2120641   4.837   0.685   6.596  0.5692  0.0281 -0.7845
  181SOPE   C2120642   4.734   0.762   6.631  0.2797  0.0475  0.6816
  181SOPE   O2220643   4.622   0.769   6.579  0.3512  0.4470 -0.0970
  181SOPE   C2220644   4.781   0.848   6.754  0.1464 -0.2984  0.1478
  181SOPE   H2R20645   4.871   0.898   6.713  1.3214 -1.2609  1.4322
  181SOPE   H2S20646   4.814   0.779   6.835 -2.1698 -1.9000 -0.1756
  181SOPE    C320647   4.909   0.471   6.522 -0.4604 -0.7309  0.3247
  181SOPE    HX20648   5.008   0.520   6.518 -0.6649 -0.3690 -1.8000
  181SOPE    HY20649   4.909   0.408   6.430 -0.7111 -0.1783 -0.0651
  181SOPE   O3120650   4.882   0.391   6.638 -0.0539  0.3443  0.9842
  181SOPE   C3120651   4.790   0.299   6.623 -0.3516 -0.4300 -0.0962
  181SOPE   O3220652   4.735   0.272   6.520  0.0921  0.0318  0.3360
  181SOPE   C3220653   4.758   0.246   6.767 -0.9976  0.3630  0.0709
  181SOPE   H2X20654   4.720   0.334   6.823  0.8586  0.3218  1.5116
  181SOPE   H2Y20655   4.852   0.215   6.818 -0.7496  1.4798  0.3120
  181SOPE   C2320656   4.675   0.940   6.808  0.4433 -1.2357  0.4157
  181SOPE   H3R20657   4.581   0.882   6.815  0.3485 -1.4847 -2.1437
  181SOPE   H3S20658   4.651   1.023   6.738 -1.5919 -0.4274  1.9811
  181SOPE   C2420659   4.696   0.983   6.951  0.1103 -0.4358 -0.1341
  181SOPE   H4R20660   4.708   0.884   6.999 -0.9953  0.1917  1.5365
  181SOPE   H4S20661   4.794   1.034   6.955  1.3581 -2.7610  0.7297
  181SOPE   C2520662   4.575   1.067   7.008 -0.3406  0.1334 -0.4056
  181SOPE   H5R20663   4.545   1.148   6.938  1.9644  1.3939 -0.0391
  181SOPE   H5S20664   4.484   1.006   7.022 -1.2254  1.6837  1.0016
  181SOPE   C2620665   4.603   1.139   7.144  0.5410 -0.0256  0.0192
  181SOPE   H6R20666   4.689   1.209   7.139  0.6497  0.2769  3.5958
  181SOPE   H6S20667   4.506   1.193   7.154  1.0977  1.0931 -0.4532
  181SOPE   C2720668   4.614   1.035   7.257 -0.0682 -0.3326  0.0829
  181SOPE   H7R20669   4.528   0.964   7.255 -0.7923  0.5026  1.0885
  181SOPE   H7S20670   4.693   0.959   7.237 -0.4184 -0.8923  0.7821
  181SOPE   C2820671   4.616   1.098   7.397  0.1002  0.2682  0.1594
  181SOPE   H8R20672   4.701   1.169   7.388  0.6273 -0.3871 -0.1235
  181SOPE   H8S20673   4.522   1.154   7.417  0.3261  0.8072 -0.2467
  181SOPE   C2920674   4.638   0.992   7.509  0.0328  0.0306 -0.4273
  181SOPE   H9120675   4.723   0.924   7.492 -0.4822 -0.5421 -0.7858
  181SOPE  C21020676   4.560   0.972   7.613 -0.0968  0.6266  0.1216
  181SOPE  H10120677   4.595   0.907   7.694  1.7761  2.2349  0.6748
  181SOPE  C21120678   4.436   1.044   7.649  0.1193 -0.9492  0.2651
  181SOPE  H11R20679   4.370   1.043   7.559  1.4932  1.8527 -0.8997
  181SOPE  H11S20680   4.464   1.149   7.672 -1.5253 -0.5626  0.5765
  181SOPE  C21220681   4.361   0.985   7.773  0.2741  0.0772  0.2482
  181SOPE  H12R20682   4.410   0.987   7.873 -3.0448  0.9009  1.9844
  181SOPE  H12S20683   4.342   0.876   7.766 -1.3150  0.0967  3.0205
  181SOPE  C21320684   4.225   1.061   7.794 -0.3509  0.1618  0.2005
  181SOPE  H13R20685   4.159   1.025   7.713 -0.6930  1.3406 -0.0628
  181SOPE  H13S20686   4.241   1.171   7.796  1.8248 -0.1138  0.0683
  181SOPE  C21420687   4.182   1.021   7.938  0.2833 -0.0135 -0.0587
  181SOPE  H14R20688   4.229   0.924   7.965 -0.6642 -0.0802  1.4685
  181SOPE  H14S20689   4.072   1.007   7.929 -0.1774  2.8346  0.0741
  181SOPE  C21520690   4.206   1.137   8.037 -0.5575 -0.6198  0.3931
  181SOPE  H15R20691   4.148   1.220   7.992 -3.5988 -1.8945  1.6705
  181SOPE  H15S20692   4.314   1.163   8.030 -0.3482 -1.5017  0.2547
  181SOPE  C21620693   4.165   1.102   8.185 -0.0771 -0.0400 -0.0989
  181SOPE  H16R20694   4.119   1.002   8.173  1.0653 -0.3829 -1.8649
  181SOPE  H16S20695   4.093   1.174   8.232  1.9716  1.3140  1.1253
  181SOPE  C21720696   4.283   1.096   8.279 -0.1237  0.0068 -0.0513
  181SOPE  H17R20697   4.323   1.194   8.312  0.4559 -0.0137 -0.6833
  181SOPE  H17S20698   4.359   1.049   8.213 -0.4674 -0.2002 -0.3025
  181SOPE  C21820699   4.262   1.009   8.402  0.1174 -0.0001  0.4481
  181SOPE  H18R20700   4.349   1.042   8.463  2.3497  0.1621 -2.5955
  181SOPE  H18S20701   4.255   0.899   8.389 -0.6766  0.1153 -0.1572
  181SOPE  H18T20702   4.169   1.052   8.446  0.8392  2.9342 -0.6093
  181SOPE   C3320703   4.646   0.131   6.777 -0.2572 -0.0998 -0.1752
  181SOPE   H3X20704   4.680   0.037   6.727 -1.2293 -0.4155 -0.2613
  181SOPE   H3Y20705   4.559   0.168   6.720 -0.3701 -1.6495 -1.0702
  181SOPE   C3420706   4.603   0.112   6.922 -0.5166 -0.3164  0.1188
  181SOPE   H4X20707   4.502   0.065   6.929 -0.6328 -0.3109 -1.1962
  181SOPE   H4Y20708   4.578   0.214   6.959  2.0513  0.6174 -0.5445
  181SOPE   C3520709   4.697   0.022   7.002  0.1342 -0.1668  0.8818
  181SOPE   H5X20710   4.803   0.055   7.002  0.2626 -0.3713 -1.7987
  181SOPE   H5Y20711   4.706  -0.081   6.963  1.5590  0.0627  0.5454
  181SOPE   C3620712   4.661   0.005   7.149  1.0059 -0.1165  0.3119
  181SOPE   H6X20713   4.556  -0.029   7.138  0.6128  1.6772 -2.7846
  181SOPE   H6Y20714   4.658   0.095   7.214 -3.0335  0.9053 -1.0430
  181SOPE   C3720715   4.748  -0.096   7.221  0.8965 -1.0088 -0.2914
  181SOPE   H7X20716   4.848  -0.050   7.237  0.7081 -0.8777  0.5633
  181SOPE   H7Y20717   4.749  -0.183   7.151 -5.0003 -0.7425 -1.2203
  181SOPE   C3820718   4.695  -0.156   7.353  0.5046 -0.3647 -0.2158
  181SOPE   H8X20719   4.755  -0.248   7.370  0.3356 -0.6170 -0.9566
  181SOPE   H8Y20720   4.590  -0.187   7.337 -0.5158  0.5511  3.5684
  181SOPE   C3920721   4.710  -0.059   7.474  0.0089 -0.0444 -0.1304
  181SOPE   H9X20722   4.657  -0.102   7.562  1.0190  1.9483  1.5506
  181SOPE   H9Y20723   4.671   0.042   7.450  1.3088  0.5064 -0.0041
  181SOPE  C31020724   4.857  -0.047   7.514 -1.1180  0.0075  0.5341
  181SOPE  H10X20725   4.912   0.015   7.440  1.0873  0.1949  2.2145
  181SOPE  H10Y20726   4.915  -0.141   7.498  1.0097  1.2430  0.6011
  181SOPE  C31120727   4.873   0.006   7.659  0.7801  0.1058  0.4544
  181SOPE  H11X20728   4.844  -0.075   7.729 -0.1565  0.6728  0.7344
  181SOPE  H11Y20729   4.807   0.094   7.669  0.9903  0.5842 -1.7637
  181SOPE  C31220730   5.014   0.040   7.688  0.4323  0.1939 -0.2521
  181SOPE  H12X20731   5.060   0.105   7.611  1.6991 -0.8243 -0.3895
  181SOPE  H12Y20732   5.078  -0.046   7.660  1.9941  1.9147 -2.3033
  181SOPE  C31320733   5.041   0.079   7.829 -0.8753 -0.2671 -0.1394
  181SOPE  H13X20734   5.031   0.188   7.845  1.0880 -0.1115  0.2318
  181SOPE  H13Y20735   5.148   0.054   7.843 -1.1216 -1.1147  0.3087
  181SOPE  C31420736   4.959   0.002   7.947 -0.8118 -0.7830 -0.0243
  181SOPE  H14X20737   4.848   0.009   7.943 -0.7661  1.2737  1.1833
  181SOPE  H14Y20738   5.000   0.047   8.039 -0.3309 -0.0025 -0.6094
  181SOPE  C31520739   4.998  -0.146   7.950  0.5090 -0.3357 -0.1657
  181SOPE  H15X20740   5.107  -0.150   7.971  0.6878 -0.5779 -1.0819
  181SOPE  H15Y20741   4.974  -0.193   7.852 -2.9205  0.7827  0.0061
  181SOPE  C31620742   4.921  -0.223   8.063  1.0296 -0.5262 -0.1355
  181SOPE  H16X20743   4.942  -0.332   8.062 -0.7390 -0.9001  0.9057
  181SOPE  H16Y20744   4.812  -0.206   8.048  0.7400 -1.2357  1.0427
  181SOPE  C31720745   4.947  -0.179   8.205  0.3856 -0.6005 -0.0442
  181SOPE  H17X20746   4.950  -0.071   8.232  2.5931 -0.6143 -0.0462
  181SOPE  H17Y20747   5.051  -0.206   8.235  0.8111  1.0426  0.0787
  181SOPE  C31820748   4.844  -0.250   8.301  0.0086 -0.2608 -0.9579
  181SOPE  H18X20749   4.735  -0.237   8.282 -0.7853 -1.8895  1.9600
  181SOPE  H18Y20750   4.859  -0.214   8.405  1.9080  0.7707 -1.5542
  181SOPE  H18Z20751   4.871  -0.357   8.307  1.6419  0.1940  0.7615
  182SOPE     N20752   4.979   4.344   6.441 -0.6309 -0.5139  0.6656
  182SOPE   HN120753   4.889   4.397   6.434 -1.9382 -2.4636  1.7275
  182SOPE   HN220754   4.953   4.249   6.475 -1.8152 -0.9710 -1.3291
  182SOPE   HN320755   5.054   4.396   6.490  1.0358 -1.3334 -0.9242
  182SOPE   C1220756   5.025   4.304   6.302  0.3292 -0.2421 -0.6455
  182SOPE  H12A20757   5.130   4.270   6.312  0.3080 -0.2276 -0.3721
  182SOPE  H12B20758   5.018   4.392   6.233  0.7828 -0.0855 -0.4934
  182SOPE   C1120759   4.931   4.189   6.265  0.1703  0.1753 -0.7296
  182SOPE  H11A20760   4.951   4.155   6.161 -1.0184 -0.8806 -0.6424
  182SOPE  H11B20761   4.826   4.227   6.266  0.1387  0.2614  2.1420
  182SOPE     P20762   4.887   3.939   6.349  0.6811  0.0973 -0.0210
  182SOPE   O1320763   4.991   3.851   6.298 -0.3930  0.2378  0.6523
  182SOPE   O1420764   4.752   3.937   6.276  0.2175 -0.3958 -0.8341
  182SOPE   O1220765   4.950   4.082   6.358 -0.3112  0.3586 -0.2966
  182SOPE   O1120766   4.868   3.900   6.504  0.3094 -0.0759  0.3554
  182SOPE    C120767   4.815   4.002   6.595  0.8317 -0.1390 -0.1394
  182SOPE    HA20768   4.738   4.068   6.549  0.4908  0.5187  1.2875
  182SOPE    HB20769   4.891   4.067   6.643 -0.6740  1.0333  0.7820
  182SOPE    C220770   4.737   3.941   6.713  0.2629  0.2858  0.1041
  182SOPE    HS20771   4.683   4.031   6.749 -1.1930 -0.7968  0.7132
  182SOPE   O2120772   4.835   3.891   6.805  0.1049 -0.0217 -0.0252
  182SOPE   C2120773   4.872   3.977   6.890 -0.2100  0.1263 -0.1913
  182SOPE   O2220774   4.844   4.098   6.891  0.0728  0.1688  0.0946
  182SOPE   C2220775   4.964   3.911   6.990 -0.2919 -0.4362  0.0487
  182SOPE   H2R20776   5.059   3.968   6.985  1.1024 -2.7745 -2.0248
  182SOPE   H2S20777   4.988   3.808   6.957  0.4832  0.0012 -0.8214
  182SOPE    C320778   4.628   3.835   6.674 -0.3328 -0.3151  0.9265
  182SOPE    HX20779   4.680   3.748   6.628 -1.4280  0.1027 -1.2171
  182SOPE    HY20780   4.558   3.865   6.593  0.8971  1.8212  0.5634
  182SOPE   O3120781   4.549   3.807   6.789 -0.1428 -0.2976  0.0583
  182SOPE   C3120782   4.577   3.686   6.845  0.1896  0.2811 -0.1809
  182SOPE   O3220783   4.671   3.614   6.822  0.0880 -0.6422  0.3555
  182SOPE   C3220784   4.477   3.668   6.955  0.5141  0.3345 -0.2677
  182SOPE   H2X20785   4.403   3.750   6.948  1.0513  0.8018 -0.5625
  182SOPE   H2Y20786   4.515   3.677   7.059 -3.8597  1.8551  1.4207
  182SOPE   C2320787   4.911   3.919   7.139  0.1797 -0.1405  1.4995
  182SOPE   H3R20788   4.864   4.016   7.165 -1.3476 -0.4364  0.0083
  182SOPE   H3S20789   4.996   3.907   7.210  0.1918  0.4133  1.5817
  182SOPE   C2420790   4.811   3.811   7.171 -0.0792  0.9893 -0.4471
  182SOPE   H4R20791   4.706   3.840   7.150 -0.0111  2.5440  1.1125
  182SOPE   H4S20792   4.834   3.709   7.134 -1.0774  0.2014  1.0242
  182SOPE   C2520793   4.814   3.803   7.330 -0.1783  0.2493  0.2637
  182SOPE   H5R20794   4.908   3.746   7.345 -0.4018 -0.6747 -1.6428
  182SOPE   H5S20795   4.806   3.900   7.385  2.1638  0.9859 -0.5738
  182SOPE   C2620796   4.694   3.721   7.393 -0.0805 -0.2616  0.5701
  182SOPE   H6R20797   4.607   3.765   7.340  0.1632  0.5937  0.8535
  182SOPE   H6S20798   4.702   3.612   7.372 -1.7964 -0.5370  1.1709
  182SOPE   C2720799   4.673   3.728   7.541  0.7590 -0.0930  0.0205
  182SOPE   H7R20800   4.607   3.640   7.559 -1.9239  1.8738  0.4289
  182SOPE   H7S20801   4.768   3.712   7.595  1.4084 -0.6826 -1.2404
  182SOPE   C2820802   4.598   3.858   7.588 -0.3078 -0.1272 -0.1124
  182SOPE   H8R20803   4.666   3.945   7.573 -0.4959  0.1913  0.8606
  182SOPE   H8S20804   4.502   3.871   7.533 -0.2372 -0.8408 -0.4143
  182SOPE   C2920805   4.580   3.839   7.737 -0.2061  0.1927 -0.7212
  182SOPE   H9120806   4.676   3.834   7.789 -1.1968  2.3834  1.5562
  182SOPE  C21020807   4.465   3.825   7.804  0.3667  0.2172 -0.5970
  182SOPE  H10120808   4.466   3.797   7.910  0.0502  0.7605 -0.4503
  182SOPE  C21120809   4.329   3.825   7.744 -0.4943  0.4656  0.3560
  182SOPE  H11R20810   4.306   3.725   7.703 -2.1486  0.6217  0.7991
  182SOPE  H11S20811   4.328   3.893   7.656 -2.6803 -0.4684 -0.4070
  182SOPE  C21220812   4.225   3.871   7.854  0.1045  0.2774 -0.0826
  182SOPE  H12R20813   4.139   3.908   7.795  0.1878  1.1135  0.3072
  182SOPE  H12S20814   4.267   3.961   7.905 -0.9794  1.6855 -1.6003
  182SOPE  C21320815   4.171   3.768   7.953 -0.6828 -0.7992  0.2926
  182SOPE  H13R20816   4.243   3.718   8.021 -0.3715  1.3598  1.6632
  182SOPE  H13S20817   4.115   3.694   7.893 -0.7533  1.1694 -2.2413
  182SOPE  C21420818   4.080   3.841   8.043  0.2469 -0.9535 -0.5796
  182SOPE  H14R20819   3.990   3.877   7.988  0.8657  0.6948 -0.5662
  182SOPE  H14S20820   4.128   3.934   8.079 -1.4920 -0.2987  0.1530
  182SOPE  C21520821   4.028   3.751   8.154 -0.3507  0.3207 -0.6804
  182SOPE  H15R20822   4.108   3.675   8.167 -1.6110 -1.1542 -1.1175
  182SOPE  H15S20823   3.927   3.709   8.131 -1.0337  1.1871  0.6300
  182SOPE  C21620824   4.011   3.825   8.281 -0.1680  0.0912  0.6764
  182SOPE  H16R20825   3.904   3.856   8.289 -0.1868  0.3938 -0.6139
  182SOPE  H16S20826   4.068   3.920   8.285 -2.4537  1.5307  1.2056
  182SOPE  C21720827   4.046   3.739   8.405  0.3282  0.5720  0.2082
  182SOPE  H17R20828   4.153   3.709   8.397  0.1485 -0.0100 -0.0325
  182SOPE  H17S20829   3.986   3.646   8.414  1.6937 -0.2397  1.1960
  182SOPE  C21820830   4.017   3.814   8.535 -0.4722 -0.7721 -0.1532
  182SOPE  H18R20831   3.912   3.852   8.541 -0.1044  0.1077  1.2076
  182SOPE  H18S20832   4.091   3.896   8.545 -0.4129 -0.8921  0.3917
  182SOPE  H18T20833   4.029   3.752   8.626  2.1776  0.1175  0.1707
  182SOPE   C3320834   4.416   3.529   6.947  0.2471 -0.3284 -0.2510
  182SOPE   H3X20835   4.497   3.454   6.935  0.1254 -1.0762  2.7466
  182SOPE   H3Y20836   4.350   3.519   6.858  1.8420  0.8928 -1.6244
  182SOPE   C3420837   4.335   3.504   7.080  0.2904  0.0147  0.4057
  182SOPE   H4X20838   4.248   3.571   7.096 -0.2767 -0.9220  1.3998
  182SOPE   H4Y20839   4.396   3.525   7.170  1.2038 -0.8129  0.0036
  182SOPE   C3520840   4.287   3.360   7.099 -0.5807  0.4853 -0.4365
  182SOPE   H5X20841   4.297   3.341   7.208  2.6778 -0.4458 -0.7946
  182SOPE   H5Y20842   4.351   3.284   7.050  0.2730  0.7102  0.3031
  182SOPE   C3620843   4.146   3.327   7.050 -0.4533 -0.8805  0.1585
  182SOPE   H6X20844   4.166   3.340   6.942 -2.0091  0.0805 -0.0402
  182SOPE   H6Y20845   4.071   3.406   7.068 -1.0013 -0.7752 -2.3454
  182SOPE   C3720846   4.089   3.196   7.088  0.5026 -0.3456  0.7446
  182SOPE   H7X20847   4.167   3.123   7.058  1.1935  0.7727 -0.2452
  182SOPE   H7Y20848   3.992   3.181   7.036  1.0826  0.5681 -0.6863
  182SOPE   C3820849   4.058   3.199   7.236 -0.3625 -0.7404  0.4738
  182SOPE   H8X20850   4.005   3.296   7.251 -0.5746 -0.8561  0.4802
  182SOPE   H8Y20851   4.153   3.215   7.292 -0.0525  0.8864 -0.4453
  182SOPE   C3920852   3.984   3.077   7.292  0.1669  0.0438 -0.0795
  182SOPE   H9X20853   4.040   2.981   7.293  0.3568  0.1348 -0.9997
  182SOPE   H9Y20854   3.890   3.062   7.236  0.4903  2.2378 -1.3343
  182SOPE  C31020855   3.941   3.104   7.440 -0.8520 -0.0697  0.7888
  182SOPE  H10X20856   3.895   3.204   7.450  0.0942  0.5725 -0.9041
  182SOPE  H10Y20857   4.035   3.114   7.498  0.1881  0.4504 -0.9127
  182SOPE  C31120858   3.859   2.992   7.497  0.3957  0.0578  0.0237
  182SOPE  H11X20859   3.884   2.902   7.438 -1.7401 -0.3492 -0.3566
  182SOPE  H11Y20860   3.751   3.017   7.486  0.5545  0.3065 -1.0670
  182SOPE  C31220861   3.888   2.963   7.644 -0.0814 -0.8415 -0.0536
  182SOPE  H12X20862   3.840   3.042   7.706  2.1965  0.9341 -0.4221
  182SOPE  H12Y20863   3.998   2.954   7.658  0.0723 -0.2841 -0.8667
  182SOPE  C31320864   3.813   2.835   7.697 -0.5215 -0.2077 -0.4717
  182SOPE  H13X20865   3.846   2.738   7.653 -2.9515 -1.4270  0.2202
  182SOPE  H13Y20866   3.710   2.833   7.657  0.3744 -1.8865 -2.9689
  182SOPE  C31420867   3.824   2.826   7.854 -0.5072 -0.4518  0.6005
  182SOPE  H14X20868   3.932   2.840   7.877 -0.0269 -0.9390 -1.2111
  182SOPE  H14Y20869   3.797   2.722   7.882 -2.1578 -0.3944 -0.6241
  182SOPE  C31520870   3.741   2.931   7.928  0.8430  0.1823 -0.1973
  182SOPE  H15X20871   3.641   2.937   7.881 -0.7394 -2.2819  2.5104
  182SOPE  H15Y20872   3.786   3.029   7.900  2.4515 -0.1471  1.1077
  182SOPE  C31620873   3.740   2.936   8.081  0.3463 -0.0390 -0.5306
  182SOPE  H16X20874   3.721   3.040   8.114 -2.8036 -0.6979  0.1011
  182SOPE  H16Y20875   3.836   2.901   8.124  1.3248  2.5158 -0.4900
  182SOPE  C31720876   3.631   2.831   8.136 -0.3415 -0.0495 -0.0925
  182SOPE  H17X20877   3.674   2.732   8.109  1.2074 -0.1601  2.5055
  182SOPE  H17Y20878   3.527   2.852   8.101 -0.4973  1.4892  1.1919
  182SOPE  C31820879   3.625   2.841   8.293 -0.4541  0.0907  0.1837
  182SOPE  H18X20880   3.522   2.858   8.331 -1.1161 -0.8781 -1.0958
  182SOPE  H18Y20881   3.697   2.924   8.314 -0.0473  0.0020 -0.8083
  182SOPE  H18Z20882   3.664   2.745   8.331  0.0810  0.9669  1.9843
  183SOPE     N20883   0.540   0.002   6.438  0.0252 -0.5846  0.1306
  183SOPE   HN120884   0.616   0.035   6.375 -0.2662 -0.4802 -0.1702
  183SOPE   HN220885   0.583  -0.042   6.522 -0.1937 -1.4905 -0.2182
  183SOPE   HN320886   0.483  -0.071   6.390  0.0418 -0.3798 -0.2106
  183SOPE   C1220887   0.459   0.115   6.488 -0.0564 -0.8351  0.6887
  183SOPE  H12A20888   0.385   0.081   6.563 -1.2199 -0.8228 -0.4053
  183SOPE  H12B20889   0.402   0.162   6.405 -1.3002 -1.5349  1.1330
  183SOPE   C1120890   0.554   0.216   6.549  0.0287 -0.5361 -0.0382
  183SOPE  H11A20891   0.602   0.190   6.645 -1.6148  0.4658  1.0971
  183SOPE  H11B20892   0.491   0.304   6.573  0.6467 -0.2036  0.3969
  183SOPE     P20893   0.811   0.259   6.499  0.2755  0.3853 -0.1841
  183SOPE   O1320894   0.899   0.345   6.422  0.1055 -0.4695  0.2165
  183SOPE   O1420895   0.864   0.117   6.516 -0.3266  0.1474  0.2937
  183SOPE   O1220896   0.661   0.261   6.458 -0.4401  0.4908 -0.4315
  183SOPE   O1120897   0.808   0.333   6.645 -0.3733  0.0389 -0.1896
  183SOPE    C120898   0.771   0.467   6.640 -0.1925 -0.3568 -0.7583
  183SOPE    HA20899   0.673   0.476   6.590 -0.0587 -0.9142 -1.1312
  183SOPE    HB20900   0.850   0.533   6.599  2.3032 -2.0747  0.9336
  183SOPE    C220901   0.740   0.520   6.784 -0.5353 -1.0836  0.0048
  183SOPE    HS20902   0.718   0.629   6.774 -1.7964 -1.1383  1.6961
  183SOPE   O2120903   0.859   0.487   6.868  0.1058 -0.9700  0.4186
  183SOPE   C2120904   0.916   0.598   6.911  0.1679 -0.8587  0.5773
  183SOPE   O2220905   0.904   0.706   6.854  0.2612 -0.5463 -0.5174
  183SOPE   C2220906   0.997   0.566   7.039 -0.6689 -0.2433  0.1153
  183SOPE   H2R20907   1.077   0.642   7.036  1.6094 -2.4832 -2.7010
  183SOPE   H2S20908   1.024   0.460   7.017  1.2403 -0.1132  1.5984
  183SOPE    C320909   0.612   0.455   6.844  0.4035 -0.0013  0.0354
  183SOPE    HX20910   0.643   0.352   6.873 -0.0859 -0.7865 -2.0304
  183SOPE    HY20911   0.543   0.440   6.758  0.7186 -0.1732 -0.1925
  183SOPE   O3120912   0.560   0.530   6.952 -0.1395  0.1471 -0.0112
  183SOPE   C3120913   0.444   0.500   6.989  0.6088  0.0619  0.4069
  183SOPE   O3220914   0.376   0.419   6.937  0.5523 -0.5665  0.1165
  183SOPE   C3220915   0.406   0.590   7.105 -0.4695  0.0927  0.1280
  183SOPE   H2X20916   0.326   0.544   7.168  0.8081 -1.0675  0.9644
  183SOPE   H2Y20917   0.354   0.679   7.063 -0.5798 -0.2683 -0.5145
  183SOPE   C2320918   0.927   0.564   7.175 -0.1421  0.2851  0.1837
  183SOPE   H3R20919   0.844   0.490   7.178 -1.3717  1.6207 -0.1472
  183SOPE   H3S20920   0.883   0.664   7.193 -2.0582 -0.1132 -1.8709
  183SOPE   C2420921   1.023   0.526   7.299 -0.0661 -0.4047 -0.6880
  183SOPE   H4R20922   1.045   0.417   7.300 -0.3402 -0.5097 -2.5382
  183SOPE   H4S20923   1.125   0.568   7.281 -0.2962 -0.0503 -1.1921
  183SOPE   C2520924   0.964   0.571   7.431  0.4285  0.0046  0.5136
  183SOPE   H5R20925   0.934   0.677   7.420 -0.9392 -0.4945 -0.9988
  183SOPE   H5S20926   0.872   0.514   7.456  0.1914  0.4079  0.5749
  183SOPE   C2620927   1.066   0.557   7.548  0.8392 -1.1558  0.0006
  183SOPE   H6R20928   1.108   0.454   7.557  0.7539 -1.1070  1.1124
  183SOPE   H6S20929   1.151   0.626   7.530  0.8776 -0.9696  0.8501
  183SOPE   C2720930   0.999   0.593   7.682 -1.4254  0.2676  0.3750
  183SOPE   H7R20931   0.970   0.700   7.690  1.0792  1.0156  0.2936
  183SOPE   H7S20932   0.913   0.523   7.686 -0.3664 -1.0134  1.9473
  183SOPE   C2820933   1.090   0.551   7.802 -0.0637 -0.1194 -0.0193
  183SOPE   H8R20934   1.122   0.449   7.774 -0.9957  0.6221 -4.6682
  183SOPE   H8S20935   1.177   0.619   7.807 -0.7836  0.8130  0.2227
  183SOPE   C2920936   1.024   0.546   7.937 -0.6129  0.9345 -0.2542
  183SOPE   H9120937   0.935   0.482   7.934  1.3523 -1.9663 -1.5590
  183SOPE  C21020938   1.067   0.600   8.046  0.0012 -0.0881  0.3352
  183SOPE  H10120939   1.019   0.576   8.143  0.7151 -2.0880  0.2395
  183SOPE  C21120940   1.193   0.677   8.065  0.0927 -0.3073  0.5205
  183SOPE  H11R20941   1.178   0.769   8.004  1.9725 -0.4097 -0.1602
  183SOPE  H11S20942   1.280   0.623   8.023  0.2816  1.2189 -1.1689
  183SOPE  C21220943   1.221   0.730   8.206 -0.7467  0.5960  0.0798
  183SOPE  H12R20944   1.128   0.783   8.235 -1.6909 -1.9990  2.1203
  183SOPE  H12S20945   1.301   0.807   8.198 -1.3113  1.1673 -0.0794
  183SOPE  C21320946   1.259   0.632   8.315 -0.3031  0.3997  0.1393
  183SOPE  H13R20947   1.362   0.593   8.301 -1.4953 -2.8638 -0.1904
  183SOPE  H13S20948   1.192   0.548   8.289  0.1414 -0.5389  1.8397
  183SOPE  C21420949   1.247   0.677   8.465 -0.6814 -0.1906  0.9584
  183SOPE  H14R20950   1.145   0.718   8.479 -1.4542 -0.1161 -3.5329
  183SOPE  H14S20951   1.310   0.769   8.468 -2.9465  1.4380  0.9289
  183SOPE  C21520952   1.277   0.581   8.581  0.1225 -0.2523 -0.0477
  183SOPE  H15R20953   1.378   0.538   8.566  0.3673 -0.2420  1.4782
  183SOPE  H15S20954   1.210   0.492   8.583  0.3197 -0.3951  0.2594
  183SOPE  C21620955   1.285   0.650   8.714  0.4559  0.0745 -0.1284
  183SOPE  H16R20956   1.306   0.759   8.701 -1.8277  0.7724  1.3800
  183SOPE  H16S20957   1.361   0.600   8.777 -1.0738 -2.0250  0.1337
  183SOPE  C21720958   1.154   0.646   8.794 -0.1732 -0.2492  0.8053
  183SOPE  H17R20959   1.100   0.549   8.785 -2.4651  0.8954  1.4230
  183SOPE  H17S20960   1.088   0.730   8.764  1.4439  0.7427 -0.0615
  183SOPE  C21820961   1.188   0.656   8.948  0.9533 -0.6553 -0.4944
  183SOPE  H18R20962   1.278   0.594   8.972 -0.3671 -1.7277  2.0130
  183SOPE  H18S20963   1.105   0.607   9.002  1.1593  0.7789  1.2311
  183SOPE  H18T20964   1.204   0.764   8.966 -0.8807 -0.2305 -1.2121
  183SOPE   C3320965   0.528   0.624   7.209  0.6270 -1.2688  0.9657
  183SOPE   H3X20966   0.600   0.692   7.158 -0.5562 -2.0460 -1.9736
  183SOPE   H3Y20967   0.585   0.532   7.235  0.2375 -1.6891  0.3559
  183SOPE   C3420968   0.487   0.698   7.342 -0.7757 -0.2967 -0.6219
  183SOPE   H4X20969   0.402   0.649   7.394 -1.3686  0.2727 -1.0495
  183SOPE   H4Y20970   0.456   0.803   7.325 -3.3195 -1.1868 -2.0667
  183SOPE   C3520971   0.602   0.699   7.441 -0.4224 -0.8633  0.1715
  183SOPE   H5X20972   0.671   0.782   7.414 -1.0210 -0.7658 -1.1177
  183SOPE   H5Y20973   0.653   0.600   7.452  1.6459  0.2015  0.7928
  183SOPE   C3620974   0.554   0.724   7.590 -0.5343 -0.3202  0.6027
  183SOPE   H6X20975   0.457   0.672   7.599 -1.1758  0.2371 -2.1974
  183SOPE   H6Y20976   0.540   0.833   7.608 -2.1552 -0.4978  0.5169
  183SOPE   C3720977   0.652   0.674   7.694  0.4374  0.7126  0.3839
  183SOPE   H7X20978   0.743   0.738   7.699  2.1704 -1.7298  2.2848
  183SOPE   H7Y20979   0.684   0.570   7.670  1.2693  1.2110 -0.7505
  183SOPE   C3820980   0.578   0.684   7.830 -0.6353  0.0115 -0.3494
  183SOPE   H8X20981   0.481   0.631   7.838 -0.7362  0.4152  1.9599
  183SOPE   H8Y20982   0.552   0.792   7.841 -3.2229 -0.4428 -1.4158
  183SOPE   C3920983   0.659   0.620   7.945 -0.1507  0.0008 -0.2597
  183SOPE   H9X20984   0.762   0.663   7.950 -0.1345 -0.0359 -0.2769
  183SOPE   H9Y20985   0.659   0.512   7.921 -2.3716 -0.1748  0.3207
  183SOPE  C31020986   0.599   0.635   8.089 -0.8441 -0.2799 -0.1791
  183SOPE  H10X20987   0.491   0.608   8.090 -0.4473 -2.0453 -1.1432
  183SOPE  H10Y20988   0.606   0.743   8.118 -2.8607  0.2688 -1.5392
  183SOPE  C31120989   0.676   0.566   8.195  0.0960  0.5901 -0.2155
  183SOPE  H11X20990   0.749   0.497   8.147 -0.9170  1.4270 -3.1749
  183SOPE  H11Y20991   0.599   0.514   8.256  0.6583  0.4134  0.3552
  183SOPE  C31220992   0.749   0.665   8.292 -0.2254 -0.4351  0.2493
  183SOPE  H12X20993   0.689   0.754   8.320  0.5323 -0.1278  0.9436
  183SOPE  H12Y20994   0.838   0.698   8.233  0.4382 -1.8265  0.4369
  183SOPE  C31320995   0.807   0.595   8.421 -0.1213  0.5097  0.2989
  183SOPE  H13X20996   0.890   0.662   8.452  1.0669  1.0030 -3.4603
  183SOPE  H13Y20997   0.858   0.500   8.395  0.3575  0.1334  2.4066
  183SOPE  C31420998   0.701   0.582   8.537 -0.5629  0.3852 -0.7363
  183SOPE  H14X20999   0.629   0.522   8.477  0.6094  0.1586 -1.9925
  183SOPE  H14Y21000   0.662   0.681   8.566 -0.0766  0.2802  0.3172
  183SOPE  C31521001   0.748   0.498   8.658  0.4152 -0.3118  0.0266
  183SOPE  H15X21002   0.856   0.515   8.678  0.6658 -0.7893 -0.8775
  183SOPE  H15Y21003   0.716   0.396   8.628 -0.8164  0.3984 -1.1805
  183SOPE  C31621004   0.674   0.534   8.788  0.1367 -0.5412  0.0506
  183SOPE  H16X21005   0.567   0.559   8.773  0.0435 -0.6941  0.4424
  183SOPE  H16Y21006   0.731   0.627   8.810  0.4730 -0.1547 -2.2410
  183SOPE  C31721007   0.695   0.433   8.908  0.8364  0.2542  0.4331
  183SOPE  H17X21008   0.673   0.333   8.867 -2.5758  1.0795 -0.0934
  183SOPE  H17Y21009   0.626   0.459   8.992 -0.3304 -0.5693 -0.2537
  183SOPE  C31821010   0.841   0.421   8.952 -0.6585  0.2304  0.6803
  183SOPE  H18X21011   0.899   0.485   8.883 -0.9323 -0.2404  0.0116
  183SOPE  H18Y21012   0.884   0.321   8.931 -1.8418 -0.1163 -0.2019
  183SOPE  H18Z21013   0.869   0.447   9.057  0.3912 -1.9179  0.9731
  184SOPE     N21014   6.039   0.401   5.888 -0.0632 -0.2415 -0.6390
  184SOPE   HN121015   6.116   0.388   5.819  0.2229 -1.3807 -0.1288
  184SOPE   HN221016   6.068   0.350   5.974  2.7033 -1.7386 -2.3031
  184SOPE   HN321017   5.958   0.348   5.850 -0.4643  1.7772 -2.8426
  184SOPE   C1221018   5.994   0.531   5.937 -0.5938 -0.6387  0.4014
  184SOPE  H12A21019   5.886   0.549   5.921 -0.1466  2.2917  0.1454
  184SOPE  H12B21020   6.032   0.606   5.865  3.1149 -1.4907  1.2459
  184SOPE   C1121021   6.020   0.557   6.091  0.5735 -0.9566 -0.1200
  184SOPE  H11A21022   5.961   0.488   6.156  0.2444 -0.5072  0.0683
  184SOPE  H11B21023   5.964   0.651   6.110 -0.1036 -1.4747  0.4950
  184SOPE     P21024   6.225   0.705   6.137  0.1857  0.0195 -0.6257
  184SOPE   O1321025   6.188   0.787   6.022 -0.2750 -0.2428  0.4566
  184SOPE   O1421026   6.367   0.675   6.164  0.3836  0.0450 -0.4447
  184SOPE   O1221027   6.160   0.560   6.127  0.0283 -0.1350  0.6560
  184SOPE   O1121028   6.162   0.771   6.267 -0.1197  0.3719 -1.0687
  184SOPE    C121029   6.128   0.685   6.380  0.9018 -0.6528 -0.0854
  184SOPE    HA21030   6.127   0.576   6.361 -2.2011 -0.7021 -0.0300
  184SOPE    HB21031   6.025   0.710   6.413  0.8637 -0.1108 -0.5995
  184SOPE    C221032   6.222   0.706   6.501  0.2502 -0.1346 -0.3588
  184SOPE    HS21033   6.327   0.694   6.470  0.3440 -0.5700  0.1089
  184SOPE   O2121034   6.180   0.612   6.606 -0.3701  0.5525  0.1526
  184SOPE   C2121035   6.282   0.559   6.681 -0.3708 -0.7491 -0.0110
  184SOPE   O2221036   6.403   0.577   6.670 -0.0063 -0.4489  0.7785
  184SOPE   C2221037   6.218   0.472   6.783 -0.4365  0.4079  0.3527
  184SOPE   H2R21038   6.251   0.368   6.763 -0.6585  0.4063 -0.0155
  184SOPE   H2S21039   6.108   0.480   6.781 -0.5345 -0.7480 -1.0609
  184SOPE    C321040   6.209   0.851   6.550 -0.0539  0.0990 -0.2836
  184SOPE    HX21041   6.102   0.853   6.578 -0.5885 -1.0414 -2.0311
  184SOPE    HY21042   6.219   0.925   6.468 -0.3835  1.2063  0.6590
  184SOPE   O3121043   6.290   0.880   6.672  0.0913  0.7203  0.3833
  184SOPE   C3121044   6.418   0.891   6.646  0.2347 -0.1127  0.9687
  184SOPE   O3221045   6.472   0.894   6.539  0.4108 -0.4175 -0.0465
  184SOPE   C3221046   6.492   0.897   6.782 -0.3328  0.8633 -0.1674
  184SOPE   H2X21047   6.546   0.800   6.775  0.5305  1.3931 -0.9964
  184SOPE   H2Y21048   6.421   0.888   6.866  0.7913 -1.4667  0.6263
  184SOPE   C2321049   6.270   0.521   6.919  0.3401 -0.5143 -0.9595
  184SOPE   H3R21050   6.380   0.537   6.917  0.4751 -0.7896  1.2858
  184SOPE   H3S21051   6.266   0.435   6.989  0.3800  0.3428  0.1351
  184SOPE   C2421052   6.193   0.632   6.991 -0.8728 -0.1035 -0.1184
  184SOPE   H4R21053   6.166   0.700   6.907  1.8964  1.0531 -0.1795
  184SOPE   H4S21054   6.098   0.595   7.034 -0.3079 -1.7448 -0.1696
  184SOPE   C2521055   6.263   0.712   7.104  0.2672 -0.2564  0.1357
  184SOPE   H5R21056   6.354   0.763   7.068 -0.1122  0.9303  0.7740
  184SOPE   H5S21057   6.190   0.793   7.125 -0.3464 -0.9393  0.6981
  184SOPE   C2621058   6.288   0.630   7.233  0.2716  0.0528 -0.5178
  184SOPE   H6R21059   6.190   0.612   7.282 -0.3714 -0.3822 -1.9309
  184SOPE   H6S21060   6.330   0.530   7.209 -1.6806 -1.1627  0.8534
  184SOPE   C2721061   6.393   0.704   7.324 -0.3411  0.2758  0.5726
  184SOPE   H7R21062   6.490   0.692   7.271 -1.9233  0.4950 -2.5769
  184SOPE   H7S21063   6.357   0.808   7.339 -0.2457  0.5953 -1.1709
  184SOPE   C2821064   6.404   0.631   7.455 -0.2388  0.4855  0.3248
  184SOPE   H8R21065   6.447   0.533   7.423  1.5457  1.2331  0.3313
  184SOPE   H8S21066   6.484   0.683   7.511 -0.4838  0.9405  0.2634
  184SOPE   C2921067   6.279   0.599   7.536  0.8804  0.2405 -0.4779
  184SOPE   H9121068   6.223   0.512   7.500 -0.3187 -0.0839  1.9278
  184SOPE  C21021069   6.230   0.672   7.644 -0.1143 -0.0823  0.4524
  184SOPE  H10121070   6.139   0.627   7.687  1.1562 -1.8066  1.4745
  184SOPE  C21121071   6.278   0.797   7.713 -0.2380  0.2021 -1.0678
  184SOPE  H11R21072   6.193   0.868   7.715 -1.0900 -0.7209 -2.4372
  184SOPE  H11S21073   6.354   0.855   7.656  0.3297 -1.9747 -2.6748
  184SOPE  C21221074   6.307   0.768   7.860  0.1216  0.3147 -0.8647
  184SOPE  H12R21075   6.380   0.684   7.865  0.8306  0.8913 -1.4479
  184SOPE  H12S21076   6.216   0.726   7.908 -0.1793  0.4589 -1.3037
  184SOPE  C21321077   6.357   0.878   7.949 -0.2544 -0.0015  0.0320
  184SOPE  H13R21078   6.271   0.945   7.974  1.6865  1.7317  2.6820
  184SOPE  H13S21079   6.432   0.939   7.894 -1.4089  0.1217 -1.4710
  184SOPE  C21421080   6.421   0.836   8.080  0.1411 -0.1116 -0.2557
  184SOPE  H14R21081   6.514   0.780   8.054  0.6689  0.4550  0.3755
  184SOPE  H14S21082   6.351   0.769   8.134  0.8677 -1.0812 -0.4705
  184SOPE  C21521083   6.455   0.948   8.182 -0.4005  0.1950  0.0015
  184SOPE  H15R21084   6.363   0.993   8.224  1.0671  1.1385  2.4421
  184SOPE  H15S21085   6.513   1.031   8.135  0.7522 -1.6593 -2.0083
  184SOPE  C21621086   6.539   0.882   8.295  0.2318  0.1292 -0.1989
  184SOPE  H16R21087   6.633   0.852   8.244  1.2786  0.2434  1.5980
  184SOPE  H16S21088   6.492   0.794   8.344  0.8636  0.2124  0.5775
  184SOPE  C21721089   6.594   0.983   8.396  0.9657 -0.3756 -0.3904
  184SOPE  H17R21090   6.516   1.039   8.453 -0.1058 -1.0139 -1.1806
  184SOPE  H17S21091   6.656   1.064   8.352 -2.1548  2.8344  0.6181
  184SOPE  C21821092   6.679   0.915   8.514  0.2874 -0.1205 -0.7039
  184SOPE  H18R21093   6.709   0.993   8.587  1.4045 -0.6994 -0.5058
  184SOPE  H18S21094   6.760   0.860   8.461 -1.9367 -1.0824 -3.3228
  184SOPE  H18T21095   6.617   0.836   8.561  1.0880 -0.4457 -0.1792
  184SOPE   C3321096   6.586   1.010   6.793 -0.4062  0.3851  0.1786
  184SOPE   H3X21097   6.529   1.106   6.787 -0.0779  0.6387  0.8871
  184SOPE   H3Y21098   6.660   0.996   6.711  1.2223 -0.4182  1.6999
  184SOPE   C3421099   6.663   1.018   6.922  0.2357  0.5677 -1.0889
  184SOPE   H4X21100   6.734   1.103   6.921  0.3587  0.4638 -1.8842
  184SOPE   H4Y21101   6.724   0.927   6.944  2.8405  3.0288  3.1485
  184SOPE   C3521102   6.569   1.041   7.042 -0.0323 -0.5499 -0.1715
  184SOPE   H5X21103   6.507   0.952   7.064 -1.0477  0.3153  0.5958
  184SOPE   H5Y21104   6.500   1.127   7.026 -0.3677  0.1733  3.9554
  184SOPE   C3621105   6.629   1.090   7.180 -0.1688  1.0122 -0.4494
  184SOPE   H6X21106   6.554   1.147   7.239 -0.2898 -0.4895  0.9035
  184SOPE   H6Y21107   6.714   1.159   7.160  1.4593 -0.7450  0.0220
  184SOPE   C3721108   6.662   0.968   7.266 -0.3944 -0.5742 -0.5267
  184SOPE   H7X21109   6.736   0.906   7.211  0.8270  0.3572  0.0089
  184SOPE   H7Y21110   6.582   0.891   7.269 -0.0570 -0.9649 -1.2379
  184SOPE   C3821111   6.710   1.001   7.413  0.5276 -0.2125 -0.4582
  184SOPE   H8X21112   6.818   1.028   7.403  1.2790 -1.5052  2.7819
  184SOPE   H8Y21113   6.710   0.917   7.486  0.4803 -1.4187 -1.7914
  184SOPE   C3921114   6.619   1.097   7.493 -0.2054  0.0097  0.3127
  184SOPE   H9X21115   6.517   1.057   7.477  0.8059 -2.6367 -0.1627
  184SOPE   H9Y21116   6.637   1.197   7.447 -0.5220 -0.4926 -0.9489
  184SOPE  C31021117   6.660   1.098   7.645 -0.3896  1.0112 -0.3914
  184SOPE  H10X21118   6.665   0.992   7.678  0.0156  0.8192 -1.0367
  184SOPE  H10Y21119   6.579   1.138   7.709 -1.8184 -3.5271  0.9797
  184SOPE  C31121120   6.801   1.156   7.681 -0.4891  0.7484 -0.5718
  184SOPE  H11X21121   6.813   1.247   7.617  1.3349  0.6275 -0.4552
  184SOPE  H11Y21122   6.879   1.081   7.654  0.5627  1.1736  1.1335
  184SOPE  C31221123   6.817   1.171   7.838  0.0524 -0.1309  0.3600
  184SOPE  H12X21124   6.926   1.186   7.852 -0.0350  2.6335 -1.3252
  184SOPE  H12Y21125   6.787   1.070   7.872 -1.2105  0.4978  1.1825
  184SOPE  C31321126   6.733   1.282   7.899  0.5279  0.4914  1.5772
  184SOPE  H13X21127   6.625   1.256   7.893  0.6600 -0.3770  2.6154
  184SOPE  H13Y21128   6.755   1.375   7.843 -0.1585  0.0225  0.4941
  184SOPE  C31421129   6.764   1.297   8.045 -0.1942  0.0885  0.4961
  184SOPE  H14X21130   6.874   1.314   8.054 -0.0237 -1.3187  1.4836
  184SOPE  H14Y21131   6.740   1.203   8.100 -0.4628  0.8473  1.7086
  184SOPE  C31521132   6.692   1.408   8.121 -0.6127 -0.7508  0.1234
  184SOPE  H15X21133   6.586   1.380   8.138 -0.9729 -0.0709 -0.9003
  184SOPE  H15Y21134   6.687   1.504   8.064 -1.1417  0.5907  2.3318
  184SOPE  C31621135   6.761   1.440   8.257 -0.4979 -0.3097  0.4833
  184SOPE  H16X21136   6.860   1.483   8.231 -0.7759 -1.2700 -2.6240
  184SOPE  H16Y21137   6.792   1.345   8.305 -0.4903 -0.2950  0.5078
  184SOPE  C31721138   6.674   1.526   8.352  0.2582  0.1631 -0.2257
  184SOPE  H17X21139   6.628   1.599   8.282  0.1891 -0.9019 -1.3412
  184SOPE  H17Y21140   6.730   1.590   8.423 -1.3983  0.5142  0.8191
  184SOPE  C31821141   6.576   1.451   8.432 -0.9468  0.7409 -0.4370
  184SOPE  H18X21142   6.507   1.519   8.486  0.7791  0.6261  2.0871
  184SOPE  H18Y21143   6.633   1.405   8.516  0.5824  0.8968 -1.3550
  184SOPE  H18Z21144   6.515   1.373   8.381 -0.2276 -2.0706  2.6066
  185SAPI   C1221145   3.003   4.038  11.097 -0.0786  0.1651  0.6667
  185SAPI    H221146   2.914   3.986  11.055 -0.9914  1.4661  0.9157
  185SAPI    O221147   2.994   4.027  11.240  0.2274 -0.0571  0.5170
  185SAPI   HO221148   2.982   3.936  11.267 -0.6530  0.2191  1.1016
  185SAPI   C1321149   3.128   3.967  11.052  0.8204  0.1976 -0.3912
  185SAPI    H321150   3.135   3.966  10.941 -1.0931  0.4993 -0.5472
  185SAPI    O321151   3.126   3.832  11.102  0.3027 -0.6505 -1.0541
  185SAPI   HO321152   3.150   3.771  11.032 -0.7245 -0.1668 -1.8572
  185SAPI   C1421153   3.248   4.048  11.094 -0.5450 -0.5115 -0.0794
  185SAPI    H421154   3.251   4.057  11.205  0.5912 -2.4755  0.0965
  185SAPI    O421155   3.373   3.991  11.049 -0.3011 -0.1170 -0.2064
  185SAPI   HO421156   3.442   4.001  11.114  0.6895 -1.0484 -1.0850
  185SAPI   C1521157   3.241   4.196  11.051 -0.8715 -0.1467  0.2864
  185SAPI    H521158   3.245   4.191  10.940  0.9035  1.6671  0.2229
  185SAPI    O521159   3.357   4.277  11.089  0.0070  0.2686  0.3355
  185SAPI   HO521160   3.357   4.363  11.047  2.0785  0.0850 -0.1652
  185SAPI   C1621161   3.108   4.263  11.090 -0.1651  0.1572  0.2415
  185SAPI    H621162   3.107   4.262  11.201  3.1623  1.5391  0.3851
  185SAPI    O621163   3.106   4.399  11.042 -0.1194  0.5146  0.0988
  185SAPI   HO621164   3.046   4.438  11.106  0.9855  1.3271  0.6826
  185SAPI   C1121165   2.998   4.177  11.042 -0.1248  0.2931  0.3220
  185SAPI    H121166   3.010   4.178  10.931 -1.7580  1.1439  0.1320
  185SAPI     P21167   2.739   4.225  10.965  0.2062  0.0081  0.4589
  185SAPI   O1321168   2.634   4.323  10.989 -0.0104  0.7716  0.1172
  185SAPI   O1421169   2.685   4.090  10.959  0.4566  0.3375 -0.3244
  185SAPI   O1221170   2.870   4.246  11.071 -0.0736  0.0347  0.7024
  185SAPI   O1121171   2.794   4.278  10.825 -0.6241  0.6142  0.2283
  185SAPI    C121172   2.726   4.250  10.699  1.0095  0.4000  0.0604
  185SAPI    HA21173   2.620   4.280  10.708  0.6394 -0.4396 -1.3166
  185SAPI    HB21174   2.775   4.316  10.624 -0.7841  0.1736 -1.3710
  185SAPI    C221175   2.735   4.097  10.660  0.1659  0.6187  0.2802
  185SAPI    HS21176   2.665   4.036  10.721 -0.0900 -1.5874 -2.0223
  185SAPI   O2121177   2.869   4.048  10.669  0.0829 -0.5889 -0.0603
  185SAPI   C2121178   2.901   3.925  10.633  0.9785  0.0241  0.1481
  185SAPI   O2221179   2.821   3.838  10.610  0.1312  0.3755 -0.2035
  185SAPI   C2221180   3.053   3.908  10.644  0.3502  0.2789  0.1697
  185SAPI   H2R21181   3.078   3.912  10.752  1.6727  3.9620 -0.1485
  185SAPI   H2S21182   3.081   3.816  10.588  0.6994  0.3622  0.2072
  185SAPI    C321183   2.675   4.085  10.512 -0.4204 -0.1659  0.6338
  185SAPI    HX21184   2.705   3.994  10.455  0.8085 -1.2092  2.8089
  185SAPI    HY21185   2.739   4.164  10.466  1.0434 -1.0464  1.0799
  185SAPI   O3121186   2.538   4.128  10.494 -0.3479  0.0515 -0.2694
  185SAPI   C3121187   2.502   4.142  10.364  0.0978  0.6498  0.0063
  185SAPI   O3221188   2.579   4.125  10.270  0.7311  0.0613 -0.3236
  185SAPI   C3221189   2.357   4.194  10.362  0.0729 -1.0931  0.3999
  185SAPI   H2X21190   2.347   4.269  10.444  0.9629 -0.0511 -0.4106
  185SAPI   H2Y21191   2.283   4.113  10.380 -0.9481 -0.8345 -2.2091
  185SAPI   C2321192   3.130   4.034  10.595  0.1475  0.1910 -0.9475
  185SAPI   H3R21193   3.233   4.011  10.629 -0.2631 -0.5585 -0.1776
  185SAPI   H3S21194   3.088   4.119  10.654  0.0047 -0.8548  0.4975
  185SAPI   C2421195   3.147   4.063  10.449  0.1944  0.4521 -0.1646
  185SAPI   H4R21196   3.190   3.979  10.390  0.4413  0.5357 -0.1050
  185SAPI   H4S21197   3.221   4.145  10.444  0.4948  0.1762 -0.2722
  185SAPI   C2521198   3.020   4.105  10.384  0.4293 -0.2717  0.0115
  185SAPI   H5R21199   2.971   4.176  10.452  1.0819  0.7685 -0.5836
  185SAPI   C2621200   2.978   4.077  10.261  0.5190  0.0008 -0.5447
  185SAPI   H6R21201   2.879   4.119  10.238  2.0511  3.5656 -1.2919
  185SAPI   C2721202   3.042   3.996  10.154 -0.0562 -0.6231  0.1374
  185SAPI   H7R21203   3.153   4.001  10.151 -0.0817  0.5145  0.7823
  185SAPI   H7S21204   3.011   4.041  10.057 -2.6831 -0.2129  1.0746
  185SAPI   C2821205   3.010   3.850  10.157  0.4890 -0.2178 -0.4335
  185SAPI   H8R21206   3.026   3.807  10.258  1.1753  0.7207 -0.1259
  185SAPI   C2921207   2.951   3.777  10.058 -0.5242 -0.2635  0.2406
  185SAPI   H9R21208   2.940   3.668  10.068  0.9376 -0.5033 -0.5143
  185SAPI  C21021209   2.901   3.824   9.931 -0.2414  0.0847  0.1638
  185SAPI  H10R21210   2.915   3.736   9.864  0.0335  1.2524 -1.3654
  185SAPI  H10S21211   2.981   3.891   9.892 -0.1657  0.5465  1.0781
  185SAPI  C21121212   2.769   3.894   9.926 -0.1625 -0.4859  0.6219
  185SAPI  H11R21213   2.758   3.961  10.013  3.5242  0.5389  0.4552
  185SAPI  C21221214   2.680   3.882   9.828 -0.2080 -0.7532 -1.0962
  185SAPI  H12R21215   2.584   3.936   9.837  1.1248  1.3893  2.5778
  185SAPI  C21321216   2.701   3.799   9.706  0.8176 -0.0980  0.3933
  185SAPI  H13R21217   2.604   3.776   9.656  0.8104 -0.7073  0.6753
  185SAPI  H13S21218   2.750   3.703   9.732  0.9314 -0.6123 -1.5335
  185SAPI  C21421219   2.804   3.852   9.609  0.7698 -0.4711 -0.0684
  185SAPI  H14R21220   2.871   3.924   9.658  0.3926 -0.8099  0.9737
  185SAPI  C21521221   2.796   3.834   9.477  0.1354 -0.5261 -0.2829
  185SAPI  H15R21222   2.882   3.867   9.417 -0.5282 -0.1639 -1.0540
  185SAPI  C21621223   2.698   3.746   9.400  0.0517  0.2873 -0.2834
  185SAPI  H16R21224   2.662   3.671   9.473  1.3983 -0.9199 -0.8102
  185SAPI  H16S21225   2.745   3.689   9.317 -0.1165 -0.5020  0.1597
  185SAPI  C21721226   2.582   3.833   9.338  0.0605 -0.4659  0.3148
  185SAPI  H17R21227   2.528   3.878   9.424 -0.5529 -2.4528  1.0190
  185SAPI  H17S21228   2.507   3.765   9.293  0.3133 -1.0553  0.7665
  185SAPI  C21821229   2.632   3.938   9.235  0.1519 -0.0481  0.0140
  185SAPI  H18R21230   2.703   4.015   9.268 -1.4956  0.4933  2.5528
  185SAPI  H18S21231   2.538   3.992   9.210 -0.4700 -1.4030 -0.7353
  185SAPI  C21921232   2.698   3.883   9.108 -0.3800  0.5506 -0.0135
  185SAPI  H19R21233   2.628   3.809   9.064 -2.2496  0.7846  2.3422
  185SAPI  H19S21234   2.793   3.838   9.145 -1.0791  0.8811  2.3672
  185SAPI  C22021235   2.737   3.995   9.012 -0.1334  0.7709  0.2842
  185SAPI  H20R21236   2.786   3.957   8.920  1.0369  1.1468  0.7380
  185SAPI  H20S21237   2.815   4.059   9.059 -0.6129  0.7958  1.0616
  185SAPI  H20T21238   2.652   4.059   8.981 -0.4231 -0.0256 -0.6254
  185SAPI   C3321239   2.319   4.254  10.226  0.1580 -0.1024 -0.1439
  185SAPI   H3X21240   2.328   4.185  10.139  1.1640  1.9306 -1.7541
  185SAPI   H3Y21241   2.394   4.334  10.206 -0.5174  0.1821 -1.6493
  185SAPI   C3421242   2.179   4.317  10.214  0.2817  0.1071  0.3749
  185SAPI   H4X21243   2.161   4.377  10.306  1.2732 -0.1819  0.7675
  185SAPI   H4Y21244   2.113   4.228  10.221  0.1952  0.2229  1.0705
  185SAPI   C3521245   2.177   4.407  10.085  0.9299  0.5298 -0.5207
  185SAPI   H5X21246   2.276   4.434  10.043 -0.6800  1.3228 -4.3157
  185SAPI   H5Y21247   2.102   4.489  10.087 -2.3839 -2.2460  1.2511
  185SAPI   C3621248   2.116   4.321   9.963  0.0077  0.1020 -0.2168
  185SAPI   H6X21249   2.008   4.295   9.969 -0.5019  2.3310  1.4789
  185SAPI   H6Y21250   2.175   4.227   9.960 -1.0803 -0.5711 -1.1594
  185SAPI   C3721251   2.134   4.382   9.823 -1.5713  0.1843 -0.0274
  185SAPI   H7X21252   2.109   4.315   9.738  2.3091 -2.4487  0.5882
  185SAPI   H7Y21253   2.243   4.403   9.810 -1.5964  1.3719  1.4093
  185SAPI   C3821254   2.056   4.507   9.796  0.5700  0.2653 -0.0148
  185SAPI   H8X21255   2.082   4.586   9.870  1.2433 -0.1158  0.1632
  185SAPI   H8Y21256   1.951   4.480   9.822  0.6198  2.6102  3.3301
  185SAPI   C3921257   2.062   4.578   9.654 -0.3738  0.8180 -0.9259
  185SAPI   H9X21258   2.162   4.623   9.639  0.3017 -0.2958  0.1324
  185SAPI   H9Y21259   1.983   4.657   9.657 -1.0979  0.2173 -2.5342
  185SAPI  C31021260   2.029   4.487   9.531  0.0109 -0.3813 -0.4539
  185SAPI  H10X21261   1.934   4.431   9.543  0.1915 -1.2944 -2.7896
  185SAPI  H10Y21262   2.115   4.416   9.530  0.5007  0.1763 -2.4417
  185SAPI  C31121263   2.045   4.555   9.393 -0.0964 -0.5266 -0.7653
  185SAPI  H11X21264   2.130   4.625   9.408 -0.7701  0.2927 -0.6896
  185SAPI  H11Y21265   1.967   4.630   9.369  0.2388 -0.3412 -1.2837
  185SAPI  C31221266   2.066   4.469   9.271 -0.3007 -0.2582 -0.1118
  185SAPI  H12X21267   1.965   4.453   9.228  0.2466  0.5304 -1.7689
  185SAPI  H12Y21268   2.112   4.371   9.297 -0.6541  0.0478  1.7511
  185SAPI  C31321269   2.165   4.515   9.167 -0.2989  0.2206 -0.7080
  185SAPI  H13X21270   2.268   4.509   9.208 -0.8080 -0.8593  0.4915
  185SAPI  H13Y21271   2.149   4.624   9.156 -3.3909 -0.1604 -0.8600
  185SAPI  C31421272   2.153   4.437   9.035 -0.8608 -0.4192 -0.8719
  185SAPI  H14X21273   2.060   4.468   8.982  0.2822  0.6434 -2.3545
  185SAPI  H14Y21274   2.151   4.331   9.067  0.2417  0.3392  1.9851
  185SAPI  C31521275   2.266   4.461   8.932 -0.3393  0.1359  0.4420
  185SAPI  H15X21276   2.246   4.415   8.833 -1.9195  2.1474 -0.2491
  185SAPI  H15Y21277   2.362   4.422   8.973 -1.3469  0.5571  3.4296
  185SAPI  C31621278   2.298   4.603   8.884  0.4292 -0.1734  0.0036
  185SAPI  H16X21279   2.325   4.659   8.976 -3.2897  2.1700 -0.1483
  185SAPI  H16Y21280   2.210   4.662   8.852 -0.2114  1.2329  3.7607
  185SAPI  C31721281   2.414   4.604   8.793  0.4682  0.6543 -0.1244
  185SAPI  H17X21282   2.382   4.558   8.697 -0.1406 -1.0568  0.8706
  185SAPI  H17Y21283   2.508   4.555   8.827  0.5251  0.5485 -0.4324
  185SAPI  C31821284   2.441   4.749   8.743  0.5060 -0.8280  0.0724
  185SAPI  H18X21285   2.489   4.809   8.824 -0.8487 -1.6002  1.5076
  185SAPI  H18Y21286   2.343   4.796   8.721  1.4572  0.4398 -1.8138
  185SAPI  H18Z21287   2.500   4.737   8.650  1.2772 -0.0325  0.4433
  186SAPI   C1221288   4.568   1.892  11.024  0.0442  0.2190  0.3630
  186SAPI    H221289   4.663   1.891  11.081  0.3827  0.2619 -0.1892
  186SAPI    O221290   4.523   1.763  11.000 -0.0580 -0.1443  0.1050
  186SAPI   HO221291   4.595   1.705  11.026  0.5022  0.3828 -0.2380
  186SAPI   C1321292   4.471   1.973  11.106 -0.1824  0.0048 -0.1111
  186SAPI    H321293   4.524   2.063  11.142 -0.0099 -0.7054  1.5294
  186SAPI    O321294   4.444   1.896  11.225 -0.0797  0.9216 -0.7976
  186SAPI   HO321295   4.404   1.810  11.208  3.0598 -1.1954  1.4701
  186SAPI   C1421296   4.344   2.013  11.035  0.1720 -0.2716 -0.3849
  186SAPI    H421297   4.277   1.926  11.016 -0.1838 -0.3670  1.1624
  186SAPI    O421298   4.254   2.094  11.114 -0.2409  0.1850 -0.0330
  186SAPI   HO421299   4.169   2.102  11.070  0.3270  2.3060 -0.8558
  186SAPI   C1521300   4.380   2.091  10.902  0.2283  0.9648 -0.1880
  186SAPI    H521301   4.434   2.180  10.939 -2.4867  2.4248  0.5348
  186SAPI    O521302   4.263   2.136  10.838  0.4528 -0.0277  0.1199
  186SAPI   HO521303   4.271   2.137  10.742 -0.5407 -0.7826  0.0149
  186SAPI   C1621304   4.473   2.003  10.814  0.6114  0.2485 -0.1492
  186SAPI    H621305   4.418   1.913  10.781  0.1246  0.5808 -0.2669
  186SAPI    O621306   4.496   2.075  10.692  0.3503 -0.1143 -0.0336
  186SAPI   HO621307   4.589   2.052  10.680 -0.1954 -2.8239  0.3111
  186SAPI   C1121308   4.595   1.973  10.900 -0.1640 -0.2707  0.4282
  186SAPI    H121309   4.639   2.067  10.940  0.5883 -1.0014  1.3761
  186SAPI     P21310   4.828   1.966  10.761  0.2000  0.6746 -0.2443
  186SAPI   O1321311   4.928   1.857  10.730  0.4523  0.2521  0.0064
  186SAPI   O1421312   4.872   2.079  10.846  0.0465  0.4443 -0.1331
  186SAPI   O1221313   4.692   1.899  10.826 -0.0990 -0.6010  0.0871
  186SAPI   O1121314   4.757   2.024  10.626  0.0648  0.0494  0.5688
  186SAPI    C121315   4.775   1.966  10.502 -0.1451 -0.1792 -0.9574
  186SAPI    HA21316   4.803   1.858  10.510  0.6724  0.0581 -0.4085
  186SAPI    HB21317   4.680   1.966  10.445 -0.3847 -1.1154 -0.5853
  186SAPI    C221318   4.881   2.048  10.425 -0.0715  0.1628 -0.4503
  186SAPI    HS21319   4.870   2.029  10.316 -2.3921 -2.0001  0.0802
  186SAPI   O2121320   5.012   2.014  10.471  0.0869 -0.4633 -0.1002
  186SAPI   C2121321   5.074   1.903  10.413 -1.1887 -0.0969  0.1494
  186SAPI   O2221322   5.012   1.829  10.335  0.2772  0.2441 -0.1959
  186SAPI   C2221323   5.218   1.880  10.453 -0.3190  0.6711  0.8641
  186SAPI   H2R21324   5.276   1.970  10.422 -1.8172  1.2137 -0.5141
  186SAPI   H2S21325   5.221   1.891  10.564 -1.0406  2.2270  0.7575
  186SAPI    C321326   4.857   2.202  10.454 -0.8131  0.1284  0.1525
  186SAPI    HX21327   4.885   2.240  10.555  0.6893  2.4389 -1.0494
  186SAPI    HY21328   4.748   2.223  10.457 -0.6838  1.1920 -1.4062
  186SAPI   O3121329   4.926   2.281  10.358  0.0411  0.4591  0.4250
  186SAPI   C3121330   4.847   2.318  10.253  0.0251  0.1618  0.6757
  186SAPI   O3221331   4.740   2.264  10.217 -0.2397  0.0105 -0.5776
  186SAPI   C3221332   4.916   2.435  10.180 -0.5545  0.0759  0.3256
  186SAPI   H2X21333   5.025   2.412  10.178 -0.7587 -0.8950 -1.2358
  186SAPI   H2Y21334   4.885   2.528  10.232 -1.8534 -0.3720  0.3777
  186SAPI   C2321335   5.285   1.743  10.408  0.3763  0.0960  0.1374
  186SAPI   H3R21336   5.213   1.663  10.381  1.0457  0.1604 -2.0375
  186SAPI   H3S21337   5.351   1.710  10.492  0.1826 -1.1071 -0.1662
  186SAPI   C2421338   5.381   1.776  10.292 -0.4199 -0.3468 -0.0048
  186SAPI   H4R21339   5.449   1.689  10.276 -0.6287 -0.7300  1.0774
  186SAPI   H4S21340   5.447   1.855  10.335  1.5284 -1.0015 -1.6412
  186SAPI   C2521341   5.310   1.826  10.169 -0.1948  0.0005  0.1223
  186SAPI   H5R21342   5.206   1.862  10.179  0.0422  1.5646 -2.3917
  186SAPI   C2621343   5.360   1.818  10.046  0.1918 -0.0179  0.4130
  186SAPI   H6R21344   5.306   1.866   9.962  0.3252 -0.8391 -0.1559
  186SAPI   C2721345   5.495   1.752  10.012  0.0990 -0.1961  0.0635
  186SAPI   H7R21346   5.558   1.751  10.103  0.2554  0.0717 -0.0417
  186SAPI   H7S21347   5.536   1.828   9.943 -1.2122  1.5080  1.0802
  186SAPI   C2821348   5.472   1.621   9.947  0.2571 -0.0369  0.0803
  186SAPI   H8R21349   5.454   1.541  10.021 -0.6660 -0.6783 -0.8058
  186SAPI   C2921350   5.474   1.586   9.813 -0.2786 -0.3004 -0.0079
  186SAPI   H9R21351   5.456   1.480   9.790 -0.7831 -0.0544 -0.7762
  186SAPI  C21021352   5.517   1.676   9.692 -0.2594  1.1523 -0.5823
  186SAPI  H10R21353   5.470   1.776   9.699 -1.0591  0.7524 -0.1303
  186SAPI  H10S21354   5.474   1.632   9.599  1.1596  1.2084 -1.2863
  186SAPI  C21121355   5.667   1.694   9.673 -0.3114  0.3989 -0.5164
  186SAPI  H11R21356   5.711   1.736   9.764 -2.3478 -0.2676  0.8335
  186SAPI  C21221357   5.742   1.683   9.565 -0.4376  0.0059  0.3752
  186SAPI  H12R21358   5.850   1.704   9.570 -0.5088  0.1483  1.3630
  186SAPI  C21321359   5.690   1.646   9.429 -0.3479  0.1913 -0.0977
  186SAPI  H13R21360   5.764   1.677   9.352  2.5789 -1.1730  1.9890
  186SAPI  H13S21361   5.592   1.697   9.415 -0.3928 -0.2480 -1.5961
  186SAPI  C21421362   5.666   1.497   9.427  0.1206 -0.0767 -0.3031
  186SAPI  H14R21363   5.689   1.441   9.518  0.1607  0.2575 -0.1073
  186SAPI  C21521364   5.606   1.428   9.323  0.0124 -0.4196  0.0314
  186SAPI  H15R21365   5.597   1.319   9.329  0.9671 -0.6003 -1.2944
  186SAPI  C21621366   5.567   1.482   9.192  0.0431  0.3684 -0.1513
  186SAPI  H16R21367   5.556   1.591   9.176 -2.4542  0.1315 -0.3958
  186SAPI  H16S21368   5.477   1.426   9.158  0.3671  0.3719 -1.0531
  186SAPI  C21721369   5.674   1.429   9.092  0.6755 -0.2516  0.2496
  186SAPI  H17R21370   5.685   1.319   9.093 -0.0351 -0.3305 -0.1105
  186SAPI  H17S21371   5.766   1.487   9.116  0.6299 -0.3798  0.7445
  186SAPI  C21821372   5.631   1.479   8.945  0.3775  0.2220  0.2328
  186SAPI  H18R21373   5.723   1.521   8.900  0.0074  0.2039 -0.5688
  186SAPI  H18S21374   5.558   1.561   8.963 -0.6661 -0.8562  1.1093
  186SAPI  C21921375   5.568   1.375   8.857  0.5892  0.1462 -0.9636
  186SAPI  H19R21376   5.469   1.343   8.895  1.3662  1.0404  2.1030
  186SAPI  H19S21377   5.642   1.291   8.856 -1.2196 -1.5889  0.6796
  186SAPI  C22021378   5.551   1.424   8.720 -0.2112 -0.3267 -0.3043
  186SAPI  H20R21379   5.518   1.345   8.649  0.1252 -0.6448 -0.1065
  186SAPI  H20S21380   5.648   1.471   8.693  0.0925 -0.2623  0.8329
  186SAPI  H20T21381   5.478   1.507   8.710 -1.5335 -1.3933  0.1125
  186SAPI   C3321382   4.885   2.436  10.034 -0.5473  0.0992 -0.8652
  186SAPI   H3X21383   4.783   2.477  10.017 -0.0396  1.2711 -1.1850
  186SAPI   H3Y21384   4.872   2.330  10.001 -1.0334 -0.9970  2.4664
  186SAPI   C3421385   4.981   2.506   9.944  0.3478 -0.1485  0.6641
  186SAPI   H4X21386   5.081   2.479   9.981 -1.0348 -1.0490  4.0947
  186SAPI   H4Y21387   4.967   2.616   9.954 -1.4624 -0.3394  0.7017
  186SAPI   C3521388   4.971   2.464   9.796  0.2592  0.1114  0.5029
  186SAPI   H5X21389   4.989   2.355   9.805 -1.7294 -0.1511  2.0202
  186SAPI   H5Y21390   5.052   2.525   9.751  0.3092 -0.4406 -0.1656
  186SAPI   C3621391   4.845   2.504   9.720 -0.3183 -0.8352  0.4546
  186SAPI   H6X21392   4.812   2.606   9.750  1.3469 -0.0224 -0.3910
  186SAPI   H6Y21393   4.773   2.428   9.759  1.4538 -3.0905 -0.4774
  186SAPI   C3721394   4.857   2.499   9.568 -0.1147  0.2606 -0.1460
  186SAPI   H7X21395   4.932   2.573   9.534  2.5603 -2.3136 -0.3504
  186SAPI   H7Y21396   4.757   2.511   9.522 -0.5147 -2.0188  0.0082
  186SAPI   C3821397   4.917   2.366   9.517  0.2479 -0.7711 -0.1236
  186SAPI   H8X21398   4.844   2.285   9.538  0.7093 -1.0108  0.6002
  186SAPI   H8Y21399   5.022   2.356   9.554  0.4798  0.4166 -0.4243
  186SAPI   C3921400   4.932   2.369   9.364 -0.2088  0.5474 -0.1544
  186SAPI   H9X21401   4.990   2.460   9.338 -0.2949  1.0898  1.4580
  186SAPI   H9Y21402   4.833   2.383   9.315 -0.4550  0.8302  0.4192
  186SAPI  C31021403   5.004   2.249   9.295 -0.0320  0.1578 -0.0315
  186SAPI  H10X21404   4.943   2.158   9.309  1.3853 -1.0382 -1.2182
  186SAPI  H10Y21405   5.108   2.224   9.325 -0.7380 -0.9854  1.6052
  186SAPI  C31121406   5.005   2.273   9.144 -0.0072 -0.0117  0.4895
  186SAPI  H11X21407   5.083   2.347   9.118  1.3248 -0.4965  2.8299
  186SAPI  H11Y21408   4.906   2.313   9.112  0.6072 -0.0011 -1.5031
  186SAPI  C31221409   5.034   2.149   9.059  0.1165  0.2718 -0.5153
  186SAPI  H12X21410   4.968   2.062   9.082  1.5286 -1.4808 -2.6110
  186SAPI  H12Y21411   5.134   2.105   9.078 -0.3396 -0.5798 -0.0137
  186SAPI  C31321412   5.007   2.179   8.908 -0.6573 -0.6971  0.4634
  186SAPI  H13X21413   4.913   2.236   8.898  0.9046  1.9719 -0.0202
  186SAPI  H13Y21414   4.997   2.085   8.850  3.3703 -1.5270  0.7771
  186SAPI  C31421415   5.123   2.264   8.852 -0.3345  0.3617 -0.4523
  186SAPI  H14X21416   5.217   2.206   8.849 -1.0798 -1.0282  1.3699
  186SAPI  H14Y21417   5.131   2.359   8.909 -0.4033  0.4078 -0.5206
  186SAPI  C31521418   5.108   2.294   8.697  0.2848 -0.0159 -0.0140
  186SAPI  H15X21419   5.018   2.358   8.694  0.7969  0.7262  0.1019
  186SAPI  H15Y21420   5.101   2.201   8.636  2.1644 -2.1623  2.7761
  186SAPI  C31621421   5.232   2.372   8.642 -0.7233  0.4891  0.5527
  186SAPI  H16X21422   5.254   2.466   8.697  1.2330  0.7111 -0.5179
  186SAPI  H16Y21423   5.212   2.400   8.536 -0.5265 -0.2700  0.3083
  186SAPI  C31721424   5.371   2.296   8.645 -0.2602 -0.6624  0.4445
  186SAPI  H17X21425   5.364   2.209   8.576 -3.0926  0.9836 -1.5496
  186SAPI  H17Y21426   5.387   2.256   8.747 -2.4905 -2.4649  0.1625
  186SAPI  C31821427   5.499   2.381   8.603  0.5664 -0.4675  0.6448
  186SAPI  H18X21428   5.500   2.417   8.498  1.6625  0.6317  1.0113
  186SAPI  H18Y21429   5.593   2.324   8.611  0.7531 -0.5588 -1.5880
  186SAPI  H18Z21430   5.497   2.474   8.664  0.9154  0.7978 -1.1910
  187SAPI   C1221431   0.333   4.622   6.568 -0.1312 -0.2434 -0.4207
  187SAPI    H221432   0.229   4.586   6.583 -0.4524 -0.4811 -2.7971
  187SAPI    O221433   0.348   4.674   6.432 -0.3340 -0.4094  0.7342
  187SAPI   HO221434   0.383   4.611   6.369  0.4371  2.2896 -1.7493
  187SAPI   C1321435   0.353   4.740   6.662 -0.3264  0.8130  0.2114
  187SAPI    H321436   0.336   4.701   6.764 -2.7353  1.7816  0.2314
  187SAPI    O321437   0.250   4.838   6.639  0.1009  0.2489 -0.3151
  187SAPI   HO321438   0.250   4.858   6.545 -0.2989  1.8514 -0.0072
  187SAPI   C1421439   0.491   4.788   6.651  0.7782 -0.8243 -0.1824
  187SAPI    H421440   0.513   4.813   6.545  2.9267  1.8429  0.7540
  187SAPI    O421441   0.517   4.919   6.716  0.4856  0.0455 -0.0716
  187SAPI   HO421442   0.568   4.901   6.795  0.1021 -1.1284 -0.0615
  187SAPI   C1521443   0.597   4.679   6.691 -0.4327  0.1380 -0.2717
  187SAPI    H521444   0.583   4.647   6.796 -0.9197  2.2818  0.3683
  187SAPI    O521445   0.729   4.735   6.692 -0.0279  0.8882 -0.0513
  187SAPI   HO521446   0.772   4.708   6.774  1.8849 -0.3291 -1.3416
  187SAPI   C1621447   0.581   4.562   6.594 -0.9225  0.6450  0.2931
  187SAPI    H621448   0.599   4.592   6.488  1.5967 -3.5082 -0.6938
  187SAPI    O621449   0.682   4.460   6.623  0.6534  0.3341 -0.2194
  187SAPI   HO621450   0.666   4.440   6.715 -0.8723  3.4827  0.3286
  187SAPI   C1121451   0.434   4.508   6.597 -0.3202 -0.3207  0.3206
  187SAPI    H121452   0.419   4.465   6.699  0.2673 -3.5725 -0.8361
  187SAPI     P21453   0.318   4.276   6.509 -0.0774 -0.0515 -0.0499
  187SAPI   O1321454   0.348   4.179   6.401 -0.9445  0.4800 -0.0920
  187SAPI   O1421455   0.183   4.328   6.502 -0.0618  0.1733 -0.1036
  187SAPI   O1221456   0.427   4.404   6.503  0.0041  0.3624  0.9909
  187SAPI   O1121457   0.349   4.208   6.647  0.4614  0.0973 -0.2616
  187SAPI    C121458   0.456   4.118   6.663  0.1682  0.4117 -0.7463
  187SAPI    HA21459   0.414   4.016   6.646 -0.3408  0.7535 -1.6120
  187SAPI    HB21460   0.542   4.148   6.600 -0.7828  1.0678 -1.7777
  187SAPI    C221461   0.512   4.116   6.809  0.0659  0.2270  0.2999
  187SAPI    HS21462   0.618   4.149   6.798  0.3057  2.0923  5.4050
  187SAPI   O2121463   0.499   3.987   6.868  0.7546  0.0722  0.1367
  187SAPI   C2121464   0.599   3.943   6.950 -0.2859  0.0162  0.1912
  187SAPI   O2221465   0.710   3.984   6.953 -0.8180 -0.6830 -0.2566
  187SAPI   C2221466   0.535   3.845   7.059 -0.0222  0.2843 -0.5782
  187SAPI   H2R21467   0.427   3.867   7.070  0.1975  1.0857  0.1088
  187SAPI   H2S21468   0.542   3.747   7.007  2.6010  0.0501  0.0810
  187SAPI    C321469   0.445   4.216   6.906 -0.4553  0.1500 -0.3076
  187SAPI    HX21470   0.354   4.163   6.941 -1.5909  1.2603 -1.4625
  187SAPI    HY21471   0.424   4.305   6.843  0.1518  0.2418 -0.3839
  187SAPI   O3121472   0.534   4.247   7.018  0.3219 -0.1618  0.2511
  187SAPI   C3121473   0.624   4.343   6.992 -0.4946 -0.4997 -0.6834
  187SAPI   O3221474   0.638   4.395   6.886 -0.5441 -0.1977 -0.4549
  187SAPI   C3221475   0.715   4.367   7.122 -0.1997 -0.3688 -0.1391
  187SAPI   H2X21476   0.649   4.412   7.199 -1.1160 -2.1552  0.1807
  187SAPI   H2Y21477   0.802   4.434   7.105 -0.1156  0.0838  1.8201
  187SAPI   C2321478   0.602   3.850   7.203  0.8112 -1.3124  0.1677
  187SAPI   H3R21479   0.534   3.794   7.271  0.8509 -0.3452  1.0244
  187SAPI   H3S21480   0.605   3.951   7.248  1.5091  0.0594 -2.7272
  187SAPI   C2421481   0.739   3.788   7.213 -0.0969 -0.2946 -0.3701
  187SAPI   H4R21482   0.787   3.823   7.307  1.2718  0.5266 -1.3280
  187SAPI   H4S21483   0.796   3.837   7.130 -2.8154  1.4216 -1.3609
  187SAPI   C2521484   0.764   3.642   7.195 -0.5220  0.4727  0.1776
  187SAPI   H5R21485   0.780   3.606   7.092  0.1671 -1.3518  0.8750
  187SAPI   C2621486   0.767   3.547   7.288  0.4731 -0.2114  0.1829
  187SAPI   H6R21487   0.780   3.447   7.244 -0.1922  0.9257 -2.8060
  187SAPI   C2721488   0.730   3.569   7.435 -0.0518 -0.1115  0.2911
  187SAPI   H7R21489   0.656   3.651   7.433 -0.7277 -0.7249 -0.2109
  187SAPI   H7S21490   0.826   3.598   7.484 -0.3493  0.6512  0.4217
  187SAPI   C2821491   0.672   3.446   7.504 -0.0593  0.1890  0.7770
  187SAPI   H8R21492   0.681   3.353   7.445  0.3620  1.7292 -1.7152
  187SAPI   C2921493   0.602   3.443   7.618 -0.0835  0.1958  0.5906
  187SAPI   H9R21494   0.572   3.344   7.656 -0.4222 -0.1702 -0.5683
  187SAPI  C21021495   0.595   3.563   7.717 -0.1685  0.0715  0.5112
  187SAPI  H10R21496   0.691   3.617   7.719 -0.7336  1.1306  0.0428
  187SAPI  H10S21497   0.577   3.511   7.813  2.7587 -0.1373  1.0094
  187SAPI  C21121498   0.490   3.670   7.684  0.1541  0.1118 -0.2404
  187SAPI  H11R21499   0.486   3.688   7.576  0.1137 -0.8716 -0.4102
  187SAPI  C21221500   0.409   3.729   7.772 -0.0660  0.2589  0.0021
  187SAPI  H12R21501   0.337   3.805   7.740 -0.5512 -0.0821  0.2530
  187SAPI  C21321502   0.406   3.709   7.922 -1.0377 -0.2110  0.0072
  187SAPI  H13R21503   0.421   3.601   7.944  0.3245  0.1468  0.9391
  187SAPI  H13S21504   0.306   3.742   7.958 -1.1208  0.5844 -0.9309
  187SAPI  C21421505   0.509   3.793   7.986 -0.0312 -0.2233 -0.0081
  187SAPI  H14R21506   0.583   3.852   7.930  0.7997  0.2981  1.5808
  187SAPI  C21521507   0.514   3.804   8.125 -0.1599 -0.1724 -0.0866
  187SAPI  H15R21508   0.586   3.869   8.177 -0.4586 -0.6613  0.9709
  187SAPI  C21621509   0.425   3.733   8.226 -0.0987 -0.3768 -0.0920
  187SAPI  H16R21510   0.489   3.706   8.313  0.2736  1.0395  0.0987
  187SAPI  H16S21511   0.374   3.644   8.183 -0.4607  0.8745 -2.3906
  187SAPI  C21721512   0.303   3.828   8.278  0.6445 -0.4032 -0.2825
  187SAPI  H17R21513   0.261   3.880   8.190  3.8862  1.8251 -0.6671
  187SAPI  H17S21514   0.340   3.908   8.345 -2.8148  1.2776 -0.1781
  187SAPI  C21821515   0.212   3.751   8.377 -1.0838 -0.6362  0.1302
  187SAPI  H18R21516   0.141   3.815   8.434  1.2798  1.1484  1.2854
  187SAPI  H18S21517   0.270   3.697   8.455  1.2870  2.7494  0.9400
  187SAPI  C21921518   0.120   3.646   8.308  0.1999  0.1963  0.1294
  187SAPI  H19R21519   0.046   3.598   8.375 -0.1029  0.0058 -0.3310
  187SAPI  H19S21520   0.172   3.551   8.284  0.5242  0.5195 -0.4978
  187SAPI  C22021521   0.028   3.700   8.188 -0.1312  0.7837  0.1923
  187SAPI  H20R21522  -0.043   3.620   8.155 -2.0692  2.7951 -0.7852
  187SAPI  H20S21523   0.095   3.724   8.104  0.0631  0.3891  0.2303
  187SAPI  H20T21524  -0.036   3.787   8.214 -1.0727  0.0451  0.4150
  187SAPI   C3321525   0.758   4.235   7.179  0.1573  0.2090  0.1583
  187SAPI   H3X21526   0.833   4.189   7.111  2.5019  3.0404  0.6194
  187SAPI   H3Y21527   0.679   4.159   7.198  1.5868 -0.9055  2.0603
  187SAPI   C3421528   0.826   4.255   7.317  0.0075  0.3578  0.5002
  187SAPI   H4X21529   0.758   4.319   7.377 -0.7562 -1.0690  1.2097
  187SAPI   H4Y21530   0.917   4.314   7.293 -1.0360  2.1008  0.6111
  187SAPI   C3521531   0.859   4.124   7.388  0.2151 -1.0899  0.1366
  187SAPI   H5X21532   0.848   4.034   7.324 -0.9163 -1.0684  0.2870
  187SAPI   H5Y21533   0.784   4.108   7.468  1.3069 -0.7398  1.2713
  187SAPI   C3621534   0.993   4.135   7.453 -0.4417  0.5820 -0.8327
  187SAPI   H6X21535   0.992   4.220   7.524 -0.7753  0.0679 -0.2113
  187SAPI   H6Y21536   1.067   4.153   7.372  3.3616 -1.0621  1.9211
  187SAPI   C3721537   1.032   3.996   7.516  0.2344  0.0964 -0.9395
  187SAPI   H7X21538   1.126   4.026   7.567 -1.6295  2.0948  1.5747
  187SAPI   H7Y21539   1.053   3.929   7.430  1.0584  0.5051 -1.0646
  187SAPI   C3821540   0.941   3.951   7.621  0.1990 -0.2582  0.3165
  187SAPI   H8X21541   0.854   3.903   7.571  1.1588 -0.2264 -1.4854
  187SAPI   H8Y21542   0.899   4.040   7.673  0.0663 -0.2347  0.1716
  187SAPI   C3921543   1.008   3.862   7.718 -1.3297 -0.6804  0.2527
  187SAPI   H9X21544   1.106   3.906   7.749 -1.6068 -0.5995  1.0453
  187SAPI   H9Y21545   1.042   3.774   7.659  2.5420  2.0023 -2.0097
  187SAPI  C31021546   0.931   3.835   7.848  0.2547 -0.6935 -0.6508
  187SAPI  H10X21547   0.839   3.781   7.816 -0.6860  0.7470 -0.4628
  187SAPI  H10Y21548   0.896   3.931   7.892  0.0981 -1.7923  1.7695
  187SAPI  C31121549   1.013   3.764   7.953  0.1641 -0.2319 -0.3747
  187SAPI  H11X21550   1.089   3.838   7.986 -0.0107  0.0966 -0.6973
  187SAPI  H11Y21551   1.070   3.683   7.903  0.7787  1.1609 -2.0518
  187SAPI  C31221552   0.940   3.711   8.083 -0.2867 -0.6022  0.4071
  187SAPI  H12X21553   0.995   3.617   8.109 -0.6208 -0.6476  0.9613
  187SAPI  H12Y21554   0.838   3.681   8.049 -0.4035  1.2106 -0.9840
  187SAPI  C31321555   0.920   3.816   8.195 -0.5797 -0.3065 -0.1123
  187SAPI  H13X21556   0.861   3.771   8.278 -0.7981 -0.8999 -0.5748
  187SAPI  H13Y21557   0.856   3.903   8.168 -0.5827 -0.7250 -1.5144
  187SAPI  C31421558   1.052   3.867   8.264  0.8845  0.4434  0.1086
  187SAPI  H14X21559   1.129   3.901   8.191  0.5941  1.5970  0.3217
  187SAPI  H14Y21560   1.082   3.785   8.333 -3.1376 -2.2586 -0.9793
  187SAPI  C31521561   1.032   3.992   8.354  0.2595  0.0115 -0.6014
  187SAPI  H15X21562   0.960   3.981   8.439  1.8097  0.1924  0.7769
  187SAPI  H15Y21563   1.002   4.080   8.294 -0.1696 -1.0626 -2.0379
  187SAPI  C31621564   1.158   4.017   8.438 -0.0092 -0.0889 -0.0557
  187SAPI  H16X21565   1.240   4.016   8.363 -2.2918 -0.9662 -2.7039
  187SAPI  H16Y21566   1.178   3.940   8.516  2.6886  0.7213  0.1453
  187SAPI  C31721567   1.165   4.154   8.507  0.2192  0.4106  0.1570
  187SAPI  H17X21568   1.176   4.232   8.428 -1.1578 -1.0755 -1.5907
  187SAPI  H17Y21569   1.259   4.166   8.565  0.3109  0.4797 -0.0044
  187SAPI  C31821570   1.052   4.170   8.601 -0.3161 -0.5223 -0.2921
  187SAPI  H18X21571   0.963   4.196   8.540  0.4924 -2.6225 -2.5273
  187SAPI  H18Y21572   1.072   4.262   8.660  0.2760  2.0346 -4.1013
  187SAPI  H18Z21573   1.025   4.079   8.658 -1.4068 -0.2279 -0.3186
  188SAPI   C1221574   2.290   0.799   6.179 -0.2737 -0.4624  0.4593
  188SAPI    H221575   2.264   0.892   6.234 -1.1745 -0.0109 -0.6691
  188SAPI    O221576   2.188   0.778   6.082 -0.2548 -0.2898 -0.0793
  188SAPI   HO221577   2.142   0.863   6.080  0.1820 -0.0568 -0.4951
  188SAPI   C1321578   2.426   0.823   6.112 -0.2756  0.8962  0.7127
  188SAPI    H321579   2.493   0.855   6.195  2.2967 -1.0808 -0.4608
  188SAPI    O321580   2.429   0.927   6.018 -0.2031 -0.0133 -0.0593
  188SAPI   HO321581   2.361   0.908   5.953  0.5170 -0.3889 -0.7160
  188SAPI   C1421582   2.480   0.686   6.058  0.0249  0.0487  0.1609
  188SAPI    H421583   2.423   0.683   5.963  2.9879  0.3737 -1.7620
  188SAPI    O421584   2.613   0.698   6.020 -0.1038  0.0605  0.3639
  188SAPI   HO421585   2.669   0.737   6.088  0.3197  0.1111 -0.0130
  188SAPI   C1521586   2.467   0.576   6.166 -0.5267  0.0228  0.3275
  188SAPI    H521587   2.540   0.595   6.248 -0.8374 -0.0840  0.6290
  188SAPI    O521588   2.502   0.456   6.103 -0.1621  0.0999 -0.5060
  188SAPI   HO521589   2.478   0.401   6.177  0.9590 -0.4044 -0.4950
  188SAPI   C1621590   2.329   0.566   6.227  0.3419 -0.2455  0.4494
  188SAPI    H621591   2.259   0.540   6.144  0.7165  0.0955  0.0197
  188SAPI    O621592   2.327   0.462   6.325 -0.0112 -0.2799  0.7573
  188SAPI   HO621593   2.263   0.500   6.385  1.1474  0.3241  1.6643
  188SAPI   C1121594   2.291   0.692   6.288 -0.2197  0.1720 -0.3417
  188SAPI    H121595   2.374   0.719   6.357  0.9518 -2.7290 -0.4661
  188SAPI     P21596   2.129   0.793   6.482 -0.5557  0.2740  0.7682
  188SAPI   O1321597   2.010   0.874   6.447  0.3347  0.0837 -0.1022
  188SAPI   O1421598   2.251   0.873   6.511 -0.0561  0.1923 -0.6374
  188SAPI   O1221599   2.172   0.694   6.353  0.5948  0.0202 -0.4133
  188SAPI   O1121600   2.093   0.690   6.596  0.2746  0.1182 -0.5175
  188SAPI    C121601   2.164   0.566   6.617 -0.5532 -0.3398 -0.1456
  188SAPI    HA21602   2.111   0.494   6.551  0.1248  0.1185 -1.2152
  188SAPI    HB21603   2.268   0.581   6.581  0.4742 -1.6466  2.0217
  188SAPI    C221604   2.162   0.531   6.766  0.8044 -0.1154  0.7414
  188SAPI    HS21605   2.052   0.531   6.782  0.0776 -0.6252 -3.1282
  188SAPI   O2121606   2.241   0.622   6.835 -0.2585  0.3911 -0.1873
  188SAPI   C2121607   2.182   0.668   6.949  0.2839  0.2369 -0.1535
  188SAPI   O2221608   2.065   0.643   6.974  0.2611 -0.2855 -0.0536
  188SAPI   C2221609   2.284   0.752   7.033  0.5869 -0.6436 -0.4373
  188SAPI   H2R21610   2.375   0.690   7.047  1.1850  0.4333  0.6434
  188SAPI   H2S21611   2.309   0.839   6.968 -0.6200 -1.8200 -2.5734
  188SAPI    C321612   2.208   0.382   6.797 -0.2025  0.0050  0.7226
  188SAPI    HX21613   2.314   0.375   6.765 -0.3287 -1.0237  0.5106
  188SAPI    HY21614   2.151   0.313   6.731 -2.2314  1.2460  1.1125
  188SAPI   O3121615   2.179   0.329   6.929 -0.0048 -0.0957 -0.3670
  188SAPI   C3121616   2.290   0.313   7.006  0.6534  0.4483 -0.1533
  188SAPI   O3221617   2.404   0.351   6.983 -0.2481  0.0809  0.2593
  188SAPI   C3221618   2.249   0.241   7.131  0.0944 -0.2208 -0.1838
  188SAPI   H2X21619   2.269   0.132   7.123 -0.1235 -0.2668 -0.1181
  188SAPI   H2Y21620   2.139   0.257   7.137  0.1208 -0.6330  2.7953
  188SAPI   C2321621   2.212   0.784   7.170  1.2609  0.3134  0.2252
  188SAPI   H3R21622   2.208   0.685   7.221  1.5820  0.2674  0.1603
  188SAPI   H3S21623   2.103   0.802   7.156  1.4527 -0.3983 -2.8818
  188SAPI   C2421624   2.266   0.890   7.253  0.1243 -0.6951 -0.3296
  188SAPI   H4R21625   2.206   0.920   7.341  1.4893  2.2983 -0.3099
  188SAPI   H4S21626   2.272   0.991   7.208  1.9567  0.2304  1.8157
  188SAPI   C2521627   2.407   0.854   7.295 -0.1523  0.1663 -0.2344
  188SAPI   H5R21628   2.465   0.812   7.212  0.7322 -1.2286  1.0392
  188SAPI   C2621629   2.461   0.856   7.419  0.4758 -0.0948  0.1865
  188SAPI   H6R21630   2.564   0.823   7.436  1.3422  2.9218  1.3781
  188SAPI   C2721631   2.397   0.904   7.546  0.3324 -0.0153  0.5212
  188SAPI   H7R21632   2.307   0.966   7.525  1.1607  0.6361 -1.3872
  188SAPI   H7S21633   2.468   0.972   7.597  1.2783 -1.2936  0.9676
  188SAPI   C2821634   2.368   0.792   7.638  1.0126 -0.2166  0.1235
  188SAPI   H8R21635   2.318   0.704   7.595 -0.1973 -1.3466  3.5031
  188SAPI   C2921636   2.403   0.786   7.767  0.6721 -0.8637 -0.0258
  188SAPI   H9R21637   2.367   0.701   7.828 -1.3664 -0.0321  0.0252
  188SAPI  C21021638   2.477   0.890   7.845  0.5267 -0.3838  0.0136
  188SAPI  H10R21639   2.437   0.899   7.949 -0.3513  0.0509 -0.3534
  188SAPI  H10S21640   2.446   0.993   7.815  2.0008  1.2235  3.3554
  188SAPI  C21121641   2.634   0.864   7.841  0.1167  0.0907 -0.0704
  188SAPI  H11R21642   2.674   0.811   7.754 -0.8962 -1.0641  0.1388
  188SAPI  C21221643   2.716   0.900   7.943  0.0117  0.1166 -0.4201
  188SAPI  H12R21644   2.824   0.880   7.940 -0.2939 -1.5882 -2.0822
  188SAPI  C21321645   2.662   0.971   8.067  0.6327  0.1193 -0.4260
  188SAPI  H13R21646   2.558   1.006   8.047  1.0785  0.2917 -2.7742
  188SAPI  H13S21647   2.729   1.057   8.089  0.4655  0.1952 -0.2108
  188SAPI  C21421648   2.638   0.885   8.186 -0.6340 -0.1809  0.2739
  188SAPI  H14R21649   2.644   0.778   8.162  0.7230  0.1054 -0.8265
  188SAPI  C21521650   2.635   0.918   8.309 -0.2429 -1.4298 -0.3414
  188SAPI  H15R21651   2.648   0.846   8.392 -0.8861 -2.0579 -0.7743
  188SAPI  C21621652   2.647   1.055   8.372  0.5555  0.4130 -0.0127
  188SAPI  H16R21653   2.556   1.065   8.434 -0.2961  1.0474 -1.3219
  188SAPI  H16S21654   2.639   1.124   8.285 -1.1388 -0.8957 -0.9659
  188SAPI  C21721655   2.773   1.097   8.442  0.6142 -0.0708  0.2754
  188SAPI  H17R21656   2.747   1.191   8.496 -1.7380  1.6185 -3.4061
  188SAPI  H17S21657   2.851   1.122   8.368  0.2665 -1.6829 -0.6630
  188SAPI  C21821658   2.836   0.995   8.536  0.7390 -0.1575 -0.1488
  188SAPI  H18R21659   2.852   0.898   8.484 -0.0054 -0.9128  1.0018
  188SAPI  H18S21660   2.775   0.973   8.626  1.4861  1.4000  0.7826
  188SAPI  C21921661   2.966   1.044   8.590  0.1639 -0.1283  0.4974
  188SAPI  H19R21662   3.028   1.089   8.510 -1.0196 -0.5514 -0.6889
  188SAPI  H19S21663   3.023   0.953   8.618  1.3271 -0.0206 -1.3443
  188SAPI  C22021664   2.974   1.147   8.706  0.3184 -0.1956  0.2052
  188SAPI  H20R21665   3.077   1.173   8.737  0.4535 -0.1687 -0.2591
  188SAPI  H20S21666   2.925   1.093   8.790  1.9097 -1.1197  0.5713
  188SAPI  H20T21667   2.912   1.237   8.684 -0.5341 -0.8769 -0.2746
  188SAPI   C3321668   2.297   0.321   7.260  0.6133  0.0735 -0.1105
  188SAPI   H3X21669   2.258   0.425   7.255  0.5460  0.1867  1.8769
  188SAPI   H3Y21670   2.408   0.331   7.259  0.6192  0.0483  0.2000
  188SAPI   C3421671   2.245   0.263   7.389  0.0745  0.1418 -0.0298
  188SAPI   H4X21672   2.303   0.170   7.408  0.4558 -0.0768 -2.1009
  188SAPI   H4Y21673   2.137   0.240   7.380 -0.0009 -0.0645  1.2269
  188SAPI   C3521674   2.271   0.361   7.504  0.4981  0.0385 -0.9748
  188SAPI   H5X21675   2.173   0.350   7.556  1.4048 -0.0442  0.7672
  188SAPI   H5Y21676   2.298   0.463   7.470  0.8225  0.5289  0.7019
  188SAPI   C3621677   2.383   0.316   7.597 -0.4899  0.0815  0.3723
  188SAPI   H6X21678   2.471   0.305   7.531 -2.4996 -0.3758 -2.4368
  188SAPI   H6Y21679   2.350   0.225   7.651 -0.5616 -1.3172 -1.9196
  188SAPI   C3721680   2.411   0.428   7.692 -0.3262  0.1231  0.0120
  188SAPI   H7X21681   2.312   0.459   7.730  0.5847  0.8365  1.9823
  188SAPI   H7Y21682   2.467   0.514   7.649 -2.1156  1.0317 -0.6061
  188SAPI   C3821683   2.493   0.363   7.809  0.2604 -0.1495 -0.3178
  188SAPI   H8X21684   2.582   0.319   7.758 -0.1239  0.1746 -1.2965
  188SAPI   H8Y21685   2.435   0.282   7.856 -0.6093  1.4181  1.4174
  188SAPI   C3921686   2.535   0.470   7.920 -0.2397  0.2785 -0.0869
  188SAPI   H9X21687   2.443   0.515   7.964 -0.8699  1.3371 -2.3620
  188SAPI   H9Y21688   2.581   0.558   7.871  0.2332  0.5228  0.7615
  188SAPI  C31021689   2.633   0.409   8.017 -0.2990  0.2200  0.4925
  188SAPI  H10X21690   2.708   0.339   7.974  0.1889  1.0160  0.0378
  188SAPI  H10Y21691   2.576   0.343   8.086 -0.2133 -0.0869  0.2756
  188SAPI  C31121692   2.710   0.524   8.088 -0.2589  0.2370 -0.2015
  188SAPI  H11X21693   2.638   0.607   8.106 -0.0899  0.1022  1.2771
  188SAPI  H11Y21694   2.796   0.554   8.025  1.3359  0.0472  1.7833
  188SAPI  C31221695   2.770   0.476   8.225  0.0183  0.0232  0.2875
  188SAPI  H12X21696   2.845   0.397   8.205  0.3050  0.2135  0.6020
  188SAPI  H12Y21697   2.683   0.430   8.276 -0.5892  3.5485  2.7943
  188SAPI  C31321698   2.834   0.582   8.318 -0.4942 -0.5923 -0.8980
  188SAPI  H13X21699   2.757   0.654   8.355 -0.6641 -0.5020 -1.4260
  188SAPI  H13Y21700   2.915   0.640   8.269  0.1368 -0.5074  0.2007
  188SAPI  C31421701   2.906   0.522   8.435 -0.3919  0.6408  0.8456
  188SAPI  H14X21702   2.991   0.587   8.468 -0.3061  0.0569  1.8305
  188SAPI  H14Y21703   2.955   0.428   8.403 -0.7007 -0.0270  2.2588
  188SAPI  C31521704   2.820   0.500   8.555  0.4631 -0.4395 -0.2028
  188SAPI  H15X21705   2.757   0.411   8.533  0.9594 -0.2527 -2.7477
  188SAPI  H15Y21706   2.747   0.582   8.569  1.0100  0.0864 -0.3458
  188SAPI  C31621707   2.906   0.487   8.675 -0.1134 -0.0941  0.4637
  188SAPI  H16X21708   2.967   0.579   8.686 -2.6853  1.7060  0.6543
  188SAPI  H16Y21709   2.978   0.403   8.663 -0.0585 -0.0754  0.6699
  188SAPI  C31721710   2.825   0.490   8.805 -0.2508  0.0451  0.6948
  188SAPI  H17X21711   2.744   0.414   8.808 -1.6420  1.4456  0.1430
  188SAPI  H17Y21712   2.771   0.587   8.815 -0.6343 -0.2292  1.3257
  188SAPI  C31821713   2.905   0.471   8.929  0.8383 -0.3229 -0.1792
  188SAPI  H18X21714   2.958   0.374   8.915 -1.4810 -2.1974  2.6680
  188SAPI  H18Y21715   2.841   0.463   9.019  1.9223 -0.8836  0.5629
  188SAPI  H18Z21716   2.981   0.548   8.949  0.6806 -0.5019  1.2149
  189POPC     N21717   0.970   2.063  11.029 -0.2383  0.9371  0.0519
  189POPC   C1221718   1.105   1.982  11.047 -0.6838  0.2423 -0.2949
  189POPC  H12A21719   1.150   1.973  10.949 -0.5727  0.9180 -0.3118
  189POPC  H12B21720   1.090   1.880  11.078  1.4769  0.0935  0.4479
  189POPC   C1321721   0.995   2.203  10.991 -0.1922 -1.0112 -0.4225
  189POPC  H13A21722   1.055   2.248  11.069 -0.9048  1.3376 -1.1520
  189POPC  H13B21723   1.051   2.212  10.899 -1.1669  1.9883 -0.8609
  189POPC  H13C21724   0.907   2.265  10.978 -0.1794 -1.0170 -0.5387
  189POPC   C1421725   0.902   1.982  10.918  0.2211 -0.1979 -0.4399
  189POPC  H14A21726   0.971   1.951  10.842  0.4858  0.5702 -0.5195
  189POPC  H14B21727   0.860   1.892  10.961  1.3580 -0.3193  0.4788
  189POPC  H14C21728   0.838   2.052  10.866  1.5994  0.5671 -1.1419
  189POPC   C1521729   0.877   2.051  11.143 -0.2405 -0.0889 -0.1110
  189POPC  H15A21730   0.832   1.953  11.154  0.9855 -0.8024 -1.1356
  189POPC  H15B21731   0.788   2.108  11.120 -0.1263 -0.2985 -1.1089
  189POPC  H15C21732   0.921   2.095  11.231 -0.2538 -1.9663  0.8985
  189POPC   C1121733   1.210   2.045  11.145 -0.4196 -0.0665 -0.2563
  189POPC  H11A21734   1.298   1.977  11.151 -0.2367  0.0989 -0.9829
  189POPC  H11B21735   1.167   2.053  11.247 -1.4251 -1.2526 -0.5617
  189POPC     P21736   1.370   2.211  11.014 -0.4434 -0.1278 -0.2556
  189POPC   O1321737   1.494   2.179  11.080 -0.0294  0.2859  0.2117
  189POPC   O1421738   1.354   2.348  10.957  0.8850  0.6713 -0.4722
  189POPC   O1221739   1.250   2.181  11.115 -1.0094 -0.0094  0.4307
  189POPC   O1121740   1.339   2.105  10.901  0.3946  0.5244  0.1475
  189POPC    C121741   1.436   2.016  10.850 -0.0014  0.7942 -0.8207
  189POPC    HA21742   1.386   1.923  10.815 -2.4440  0.9502  1.8488
  189POPC    HB21743   1.505   1.980  10.929  0.4703 -0.4688 -1.7789
  189POPC    C221744   1.513   2.074  10.728 -0.0332  0.1473  0.4692
  189POPC    HS21745   1.566   2.162  10.770 -0.8085 -0.3338  2.5500
  189POPC   O2121746   1.410   2.109  10.634 -0.6142  0.4628  0.7461
  189POPC   C2121747   1.434   2.222  10.567 -0.4391  0.4254  0.1197
  189POPC   O2221748   1.533   2.294  10.585 -0.2886  0.3561  0.0268
  189POPC   C2221749   1.320   2.258  10.474  0.2112 -0.6161 -0.0250
  189POPC   H2R21750   1.296   2.361  10.507  1.3698 -0.3844  0.1659
  189POPC   H2S21751   1.242   2.180  10.486  0.4116 -0.8059  0.0664
  189POPC    C321752   1.607   1.972  10.670 -0.2711 -0.4157 -0.2996
  189POPC    HX21753   1.561   1.874  10.647 -2.7443  0.5375  0.3488
  189POPC    HY21754   1.667   1.935  10.757 -2.2545  1.2902  1.9325
  189POPC   O3121755   1.685   2.014  10.560 -0.2343  0.1836 -0.0939
  189POPC   C3121756   1.797   2.083  10.587  0.4058 -0.5807 -0.3708
  189POPC   O3221757   1.822   2.138  10.693 -0.3341  0.9024 -0.2899
  189POPC   C3221758   1.875   2.111  10.458 -0.2711 -0.3692 -0.0455
  189POPC   H2X21759   1.948   2.029  10.441 -1.4171 -1.9359  2.0350
  189POPC   H2Y21760   1.922   2.211  10.474 -1.7148  0.3587 -0.1844
  189POPC   C2321761   1.383   2.279  10.333 -0.1559  0.3163 -0.2693
  189POPC   H3R21762   1.482   2.328  10.342  1.3807 -2.3381 -1.2826
  189POPC   H3S21763   1.308   2.324  10.265  1.1402 -0.9660 -2.6754
  189POPC   C2421764   1.415   2.143  10.275 -0.0020 -0.1435  0.5826
  189POPC   H4R21765   1.320   2.090  10.253 -0.6676  0.5547  1.6701
  189POPC   H4S21766   1.487   2.086  10.336 -0.8970  0.3925  2.1970
  189POPC   C2521767   1.485   2.154  10.133  0.5491 -1.0795 -0.1512
  189POPC   H5R21768   1.583   2.201  10.154  1.6302 -2.6802 -1.3920
  189POPC   H5S21769   1.432   2.236  10.080 -0.3983 -0.0867  2.1604
  189POPC   C2621770   1.494   2.021  10.057  0.3526  0.0661  0.4719
  189POPC   H6R21771   1.536   1.949  10.130 -1.4730  0.8712  2.3898
  189POPC   H6S21772   1.565   2.026   9.971 -0.3486 -2.3950 -0.3163
  189POPC   C2721773   1.366   1.960  10.004  0.2073 -0.1334 -0.0549
  189POPC   H7R21774   1.297   2.032   9.954 -0.5522 -1.4460 -0.9379
  189POPC   H7S21775   1.298   1.922  10.083  1.3640 -1.9218  0.1257
  189POPC   C2821776   1.416   1.833   9.917 -0.5931 -0.4145  0.6792
  189POPC   H8R21777   1.487   1.772   9.977  0.6973  0.4772  0.1205
  189POPC   H8S21778   1.477   1.881   9.837 -2.4756 -0.6702 -1.0105
  189POPC   C2921779   1.287   1.762   9.861 -0.2177  0.2607 -0.4876
  189POPC   H9121780   1.254   1.674   9.918  1.0866  1.5366  2.4405
  189POPC  C21021781   1.219   1.791   9.749 -0.1544  0.0333  0.0367
  189POPC  H10121782   1.133   1.727   9.724  0.7879 -0.9691 -0.7239
  189POPC  C21121783   1.257   1.907   9.662  0.1571  0.6017 -0.1481
  189POPC  H11R21784   1.316   1.982   9.717  0.5082 -1.1432  1.9666
  189POPC  H11S21785   1.163   1.958   9.632  0.4050  1.0421 -0.1803
  189POPC  C21221786   1.326   1.875   9.531 -0.4812 -0.9717  0.9241
  189POPC  H12R21787   1.299   1.777   9.485  1.2693 -1.4284  0.7690
  189POPC  H12S21788   1.432   1.847   9.550 -0.4459 -0.5844  1.3003
  189POPC  C21321789   1.313   1.984   9.413 -0.1504  0.3489  0.0926
  189POPC  H13R21790   1.367   2.076   9.444 -0.1027  1.2974 -2.5762
  189POPC  H13S21791   1.212   2.018   9.384  0.0974  1.7039  0.7555
  189POPC  C21421792   1.402   1.940   9.294 -0.6437  0.2943 -0.1879
  189POPC  H14R21793   1.496   1.887   9.322 -1.4705 -1.2922 -0.2774
  189POPC  H14S21794   1.422   2.033   9.237  2.1527 -0.6861 -0.9846
  189POPC  C21521795   1.321   1.855   9.191  0.4712  0.6629  0.9536
  189POPC  H15R21796   1.346   1.893   9.089  1.4079 -0.7211  0.6342
  189POPC  H15S21797   1.216   1.880   9.214 -0.2858 -1.6967  0.2956
  189POPC  C21621798   1.356   1.704   9.196  1.0755 -0.3498  0.7761
  189POPC  H16R21799   1.338   1.668   9.300  0.8996 -2.6640  0.0029
  189POPC  H16S21800   1.462   1.692   9.164  0.1886 -0.5297 -2.4351
  189POPC  C21721801   1.274   1.616   9.100  0.0559 -0.4532 -0.0348
  189POPC  H17R21802   1.313   1.516   9.129  2.4399  0.3828 -0.1449
  189POPC  H17S21803   1.293   1.637   8.993  1.2983 -1.4736 -0.0448
  189POPC  C21821804   1.125   1.607   9.132  0.0711 -1.2527 -0.0366
  189POPC  H18R21805   1.070   1.703   9.124  0.0573 -1.1301  1.3063
  189POPC  H18S21806   1.115   1.574   9.238 -0.8112  1.1580  0.6752
  189POPC  H18T21807   1.078   1.537   9.060  1.4446 -0.5828 -1.6468
  189POPC   C3321808   1.794   2.123  10.325  0.5384  0.4152 -0.6219
  189POPC   H3X21809   1.718   2.203  10.336  2.2237  1.9657  0.2754
  189POPC   H3Y21810   1.750   2.026  10.294  1.0067 -0.6621  1.8265
  189POPC   C3421811   1.884   2.162  10.207 -0.2132 -0.3725 -0.1196
  189POPC   H4X21812   1.823   2.185  10.117  0.6786 -2.0029 -1.2041
  189POPC   H4Y21813   1.942   2.079  10.162 -3.1409 -3.9551  2.0961
  189POPC   C3521814   1.968   2.289  10.237  0.4893  0.0530 -0.7040
  189POPC   H5X21815   2.047   2.256  10.307  0.0995 -1.6264 -1.0008
  189POPC   H5Y21816   1.902   2.362  10.288  0.0976 -0.5523 -0.3236
  189POPC   C3621817   2.047   2.353  10.127  0.4112 -0.0655 -0.0379
  189POPC   H6X21818   2.101   2.273  10.073  2.8620  0.7812  0.9982
  189POPC   H6Y21819   2.120   2.434  10.152  0.5574 -0.7899  2.0766
  189POPC   C3721820   1.952   2.408  10.022 -0.1341 -0.2157 -0.3166
  189POPC   H7X21821   1.911   2.504  10.060 -1.2105  0.1874 -2.3427
  189POPC   H7Y21822   1.884   2.330   9.982 -0.1268 -0.2778 -0.2062
  189POPC   C3821823   2.031   2.438   9.890 -0.5701 -0.1160 -0.0755
  189POPC   H8X21824   2.074   2.340   9.860 -0.1133 -0.1074  0.5339
  189POPC   H8Y21825   2.117   2.507   9.905 -0.8568  0.6536 -1.7125
  189POPC   C3921826   1.945   2.487   9.770 -0.1267  0.6484 -0.2309
  189POPC   H9X21827   1.925   2.596   9.780 -1.3125  0.2285  3.2895
  189POPC   H9Y21828   1.846   2.438   9.782  0.8210 -1.6758 -1.2818
  189POPC  C31021829   2.000   2.456   9.630  0.5056  0.2534 -0.5043
  189POPC  H10X21830   1.980   2.351   9.598  2.6484 -0.0611 -0.9641
  189POPC  H10Y21831   2.110   2.456   9.643  0.7316 -4.7049 -0.3521
  189POPC  C31121832   1.942   2.554   9.532  0.0196  0.3674  0.4265
  189POPC  H11X21833   1.957   2.657   9.570  0.1424  0.0447  1.2677
  189POPC  H11Y21834   1.834   2.529   9.524  0.3727 -1.6580  1.2387
  189POPC  C31221835   2.027   2.545   9.400  0.6434 -0.2204 -0.0103
  189POPC  H12X21836   2.132   2.584   9.399  1.8502 -3.2095 -1.5401
  189POPC  H12Y21837   1.962   2.604   9.332  0.5172 -1.2170 -0.7807
  189POPC  C31321838   2.029   2.403   9.343 -0.0251 -0.6278  0.1052
  189POPC  H13X21839   1.920   2.383   9.334 -0.0482 -0.7655  0.6682
  189POPC  H13Y21840   2.079   2.332   9.412 -0.9553  0.2061  1.6936
  189POPC  C31421841   2.097   2.387   9.207  0.2544  0.0831 -0.7001
  189POPC  H14X21842   2.200   2.427   9.195 -0.3176  2.6033  1.8158
  189POPC  H14Y21843   2.039   2.444   9.131  2.1334  2.1159 -0.7161
  189POPC  C31521844   2.105   2.242   9.169 -0.2305 -0.5725  0.1282
  189POPC  H15X21845   2.009   2.193   9.197 -1.2590 -0.3206 -2.6136
  189POPC  H15Y21846   2.188   2.192   9.222 -2.1590 -1.6992  2.2662
  189POPC  C31621847   2.119   2.228   9.010  0.0834  0.9189 -0.4736
  189POPC  H16X21848   2.031   2.263   8.952  0.3746  0.0769 -1.4624
  189POPC  H16Y21849   2.124   2.119   8.987 -1.2845  0.8264 -0.3953
  189POPC  H16Z21850   2.218   2.271   8.983  1.6002 -1.3298  1.1439
  190POPC     N21851   3.967   3.694  11.411  0.2757 -0.0071 -0.1660
  190POPC   C1221852   3.932   3.711  11.264  0.3378  0.7396  0.2469
  190POPC  H12A21853   3.856   3.642  11.232  1.9073 -0.7623 -0.3891
  190POPC  H12B21854   4.020   3.672  11.214 -0.1722 -0.8040  0.5075
  190POPC   C1321855   3.856   3.755  11.504 -0.0513 -0.4281  0.0436
  190POPC  H13A21856   3.766   3.697  11.490 -0.3606  0.3079 -1.2460
  190POPC  H13B21857   3.885   3.758  11.608  1.5624 -0.7565 -0.3686
  190POPC  H13C21858   3.834   3.857  11.478  0.4064 -0.8094 -2.0217
  190POPC   C1421859   3.991   3.553  11.460  0.1593  0.7916 -0.4984
  190POPC  H14A21860   4.087   3.516  11.428 -0.4734 -1.4197  0.0107
  190POPC  H14B21861   3.989   3.547  11.568  1.5029 -0.6342 -0.5224
  190POPC  H14C21862   3.908   3.494  11.426 -1.1697  2.7512 -0.7864
  190POPC   C1521863   4.087   3.777  11.442 -0.4930  0.1621 -0.1013
  190POPC  H15A21864   4.173   3.756  11.380 -1.6380 -1.0211 -1.3554
  190POPC  H15B21865   4.112   3.766  11.546 -0.5263 -0.6762 -0.1770
  190POPC  H15C21866   4.051   3.878  11.432 -2.2915 -0.4426 -0.2644
  190POPC   C1121867   3.887   3.849  11.205  0.4333  0.4172 -0.6645
  190POPC  H11A21868   3.899   3.843  11.095 -0.9461 -3.1204 -0.7766
  190POPC  H11B21869   3.963   3.921  11.241  1.4932  0.3710 -2.6936
  190POPC     P21870   3.699   4.014  11.202 -0.1244 -0.0656 -0.0756
  190POPC   O1321871   3.801   4.110  11.252  0.2158 -0.1053 -0.4413
  190POPC   O1421872   3.556   4.029  11.246  0.6047  0.1742  0.0095
  190POPC   O1221873   3.752   3.875  11.242 -0.2950  0.3110 -0.1339
  190POPC   O1121874   3.708   3.999  11.049  0.1082  0.2524 -0.0631
  190POPC    C121875   3.799   4.087  10.975 -0.2670  0.4221 -0.3724
  190POPC    HA21876   3.821   4.039  10.877 -2.6330  0.3744 -0.9406
  190POPC    HB21877   3.892   4.116  11.029 -0.2388 -0.0473 -0.1640
  190POPC    C221878   3.717   4.213  10.940  0.4941  0.0101 -0.2697
  190POPC    HS21879   3.656   4.241  11.030 -2.2759 -0.7366 -1.7997
  190POPC   O2121880   3.626   4.187  10.834 -0.1812  0.3467  0.0422
  190POPC   C2121881   3.557   4.293  10.793 -0.6494 -0.1201  0.3082
  190POPC   O2221882   3.544   4.403  10.846 -0.4112  0.2040  0.2473
  190POPC   C2221883   3.470   4.248  10.677 -0.1060  0.3439  0.0812
  190POPC   H2R21884   3.409   4.340  10.664  0.1915  0.4540 -0.5854
  190POPC   H2S21885   3.414   4.153  10.692 -3.6296  2.2243 -0.2427
  190POPC    C321886   3.823   4.329  10.914  0.1654 -0.2584 -0.0907
  190POPC    HX21887   3.888   4.327  11.004 -0.2063 -0.8181  0.1699
  190POPC    HY21888   3.775   4.429  10.922  1.3478  0.2575  0.8381
  190POPC   O3121889   3.904   4.325  10.795  0.1515 -0.3558  0.4930
  190POPC   C3121890   3.936   4.436  10.739 -0.5023  0.2960  0.7510
  190POPC   O3221891   3.917   4.549  10.778 -0.2247  0.6429  0.2525
  190POPC   C3221892   4.032   4.419  10.618  0.5274 -0.1164 -0.6274
  190POPC   H2X21893   4.116   4.353  10.648  2.0990  1.6641 -1.0092
  190POPC   H2Y21894   4.073   4.519  10.593 -1.9834  0.7629 -1.5305
  190POPC   C2321895   3.553   4.243  10.542  0.0304 -0.2964 -0.5123
  190POPC   H3R21896   3.577   4.135  10.533  0.8213 -0.1347 -0.3627
  190POPC   H3S21897   3.656   4.283  10.542 -0.0904  0.0266 -0.5480
  190POPC   C2421898   3.495   4.298  10.413  0.3072  0.0097  0.6861
  190POPC   H4R21899   3.511   4.408  10.402  0.7792 -0.1847 -0.8949
  190POPC   H4S21900   3.388   4.271  10.417  0.1758  0.4359  0.2068
  190POPC   C2521901   3.583   4.249  10.291 -0.1816 -0.1075  0.0388
  190POPC   H5R21902   3.583   4.138  10.302 -0.5012  0.0712  2.3045
  190POPC   H5S21903   3.685   4.289  10.310 -1.0854  2.9824 -0.9686
  190POPC   C2621904   3.525   4.305  10.155 -0.1547 -0.3450 -0.4147
  190POPC   H6R21905   3.519   4.416  10.164 -1.9311 -0.4552  0.1830
  190POPC   H6S21906   3.420   4.277  10.135 -0.1303 -0.6426 -0.1359
  190POPC   C2721907   3.622   4.283  10.038 -0.2337  0.3486 -0.1783
  190POPC   H7R21908   3.630   4.172  10.042  1.3588  0.4872  1.5290
  190POPC   H7S21909   3.719   4.325  10.072  0.6159 -0.4565 -1.5124
  190POPC   C2821910   3.566   4.346   9.910 -0.4292  0.2088  0.7916
  190POPC   H8R21911   3.515   4.440   9.938 -1.4181 -0.9342  3.0122
  190POPC   H8S21912   3.495   4.273   9.867  1.9248 -2.8081  1.6788
  190POPC   C2921913   3.682   4.381   9.820 -0.1746 -0.1105 -0.1370
  190POPC   H9121914   3.775   4.403   9.874  0.1878  2.7637 -1.7196
  190POPC  C21021915   3.682   4.371   9.687 -0.2634  0.1773  0.3745
  190POPC  H10121916   3.778   4.391   9.638 -0.1111  0.3287  0.7315
  190POPC  C21121917   3.565   4.322   9.601  0.4049  0.0422 -0.2996
  190POPC  H11R21918   3.541   4.384   9.512 -0.5975 -0.3328 -0.3076
  190POPC  H11S21919   3.473   4.312   9.663  1.3243  0.7013  1.2458
  190POPC  C21221920   3.591   4.181   9.568 -0.1416  0.0012  0.6588
  190POPC  H12R21921   3.569   4.108   9.649  1.9853 -1.4505  0.0023
  190POPC  H12S21922   3.697   4.157   9.544 -0.9538 -4.4089  0.6077
  190POPC  C21321923   3.519   4.158   9.432  0.5685 -0.2262  0.6979
  190POPC  H13R21924   3.549   4.240   9.363  0.9377  0.1656  1.3142
  190POPC  H13S21925   3.411   4.151   9.455  0.0185 -2.1248 -1.9699
  190POPC  C21421926   3.566   4.035   9.353  0.4724 -0.4918 -0.1095
  190POPC  H14R21927   3.677   4.044   9.355  0.5300 -0.9515 -0.8148
  190POPC  H14S21928   3.528   4.045   9.250 -1.3300 -3.2976  0.1721
  190POPC  C21521929   3.529   3.902   9.415  0.3654 -0.3031  0.1292
  190POPC  H15R21930   3.423   3.899   9.450  0.8184 -0.2954  1.5767
  190POPC  H15S21931   3.588   3.886   9.508  1.0459  0.6030 -0.1328
  190POPC  C21621932   3.549   3.785   9.315 -1.0780 -0.0244  0.0702
  190POPC  H16R21933   3.463   3.791   9.245 -1.2253 -1.5128  0.1005
  190POPC  H16S21934   3.538   3.688   9.368 -0.9533 -2.6260 -4.2050
  190POPC  C21721935   3.687   3.788   9.241 -0.7296  0.3147 -0.2918
  190POPC  H17R21936   3.770   3.774   9.314 -0.2840 -4.0635 -1.3926
  190POPC  H17S21937   3.698   3.885   9.188  0.3824  1.3218  1.6704
  190POPC  C21821938   3.701   3.690   9.131  0.5496 -0.1298  0.6323
  190POPC  H18R21939   3.695   3.584   9.165 -1.4291 -1.0273 -2.1034
  190POPC  H18S21940   3.805   3.707   9.094  0.4897  0.5334  0.7566
  190POPC  H18T21941   3.626   3.710   9.051  0.3916  2.0321  1.2571
  190POPC   C3321942   3.953   4.375  10.490 -0.0983  0.0709  0.0253
  190POPC   H3X21943   3.898   4.461  10.446 -1.8466 -1.2823 -0.5773
  190POPC   H3Y21944   3.868   4.312  10.526 -1.2126  2.3499  1.6087
  190POPC   C3421945   4.030   4.308  10.380  0.6634  0.2454  0.1078
  190POPC   H4X21946   4.068   4.210  10.417  0.3750 -0.1938 -0.7404
  190POPC   H4Y21947   4.120   4.368  10.357 -0.2261  0.9149 -1.8090
  190POPC   C3521948   3.952   4.285  10.250 -0.3921  0.4609  0.5470
  190POPC   H5X21949   3.914   4.389  10.240  0.6606  0.8431  0.3267
  190POPC   H5Y21950   3.868   4.213  10.256  0.4787 -0.7352 -0.9585
  190POPC   C3621951   4.049   4.249  10.138  0.7713  0.2491 -0.1457
  190POPC   H6X21952   4.120   4.166  10.155 -0.0275 -0.7489 -1.5498
  190POPC   H6Y21953   4.117   4.336  10.124  1.1776 -0.3303 -2.1745
  190POPC   C3721954   3.973   4.206  10.012 -0.2807  0.1266  0.3714
  190POPC   H7X21955   3.911   4.294   9.986 -1.7835 -0.6489  1.2099
  190POPC   H7Y21956   3.904   4.125  10.044 -0.6825 -1.0180 -3.0394
  190POPC   C3821957   4.057   4.162   9.886 -0.1663  0.0301 -1.1578
  190POPC   H8X21958   4.114   4.069   9.907  1.7672  1.7245  1.7914
  190POPC   H8Y21959   4.137   4.236   9.864  0.3629 -0.5716 -1.2956
  190POPC   C3921960   3.986   4.148   9.750 -0.0996 -0.0343 -0.1268
  190POPC   H9X21961   3.967   4.247   9.703  0.0379  0.7715  1.4454
  190POPC   H9Y21962   3.891   4.095   9.773 -1.4565  3.1801  2.5639
  190POPC  C31021963   4.087   4.080   9.654  0.2271  0.1430 -0.3372
  190POPC  H10X21964   4.124   3.980   9.684  1.6142  1.0555  1.1719
  190POPC  H10Y21965   4.178   4.145   9.651  1.9674 -1.8325  3.2021
  190POPC  C31121966   4.041   4.055   9.505  0.1052  0.4777 -0.0767
  190POPC  H11X21967   4.022   4.157   9.466 -0.1958  0.4693  0.0454
  190POPC  H11Y21968   3.942   4.005   9.511  0.6951 -0.5651  1.7260
  190POPC  C31221969   4.147   3.980   9.421  0.0800  0.2905 -1.5424
  190POPC  H12X21970   4.168   3.875   9.451 -1.3900  0.4373  0.1859
  190POPC  H12Y21971   4.248   4.026   9.430 -0.0143  0.9882 -3.5185
  190POPC  C31321972   4.102   3.976   9.276  0.4008 -0.2447  0.8123
  190POPC  H13X21973   4.064   4.078   9.252  1.5382 -0.1595 -0.7421
  190POPC  H13Y21974   4.009   3.916   9.266 -0.8565  1.5016  1.4542
  190POPC  C31421975   4.201   3.923   9.177 -0.4098  0.7563  0.3954
  190POPC  H14X21976   4.242   3.823   9.205 -3.0740 -0.1694  1.3032
  190POPC  H14Y21977   4.291   3.988   9.174 -0.9796  1.5969  1.2152
  190POPC  C31521978   4.157   3.915   9.032  0.1615  0.2861 -0.3175
  190POPC  H15X21979   4.122   4.019   9.015  0.9843  0.7462  0.6897
  190POPC  H15Y21980   4.067   3.849   9.026  0.1033  0.3255  0.1216
  190POPC  C31621981   4.266   3.882   8.927 -0.2658 -0.2098 -0.1610
  190POPC  H16X21982   4.218   3.888   8.827  0.5848  2.8888 -0.4694
  190POPC  H16Y21983   4.327   3.791   8.949  0.8510  0.9008  1.5309
  190POPC  H16Z21984   4.338   3.966   8.915 -1.8930  1.6480  2.1427
  191POPC     N21985   3.614   5.048   6.127 -0.3133  0.8095  0.3332
  191POPC   C1221986   3.524   5.169   6.110 -0.2033 -0.5790 -0.5286
  191POPC  H12A21987   3.453   5.114   6.050  0.5632 -2.3885  0.1401
  191POPC  H12B21988   3.576   5.248   6.059 -2.5840  0.9409 -0.7578
  191POPC   C1321989   3.682   5.039   5.992 -0.6596 -0.0416  0.0651
  191POPC  H13A21990   3.761   4.965   5.991 -0.8200 -0.2830  1.6828
  191POPC  H13B21991   3.613   5.025   5.910  1.8169 -1.2761 -1.9546
  191POPC  H13C21992   3.731   5.131   5.965 -0.2667 -0.0690  0.6489
  191POPC   C1421993   3.713   5.085   6.228 -0.0132  0.7700  1.1248
  191POPC  H14A21994   3.776   5.167   6.201  0.6163 -1.1809 -4.8060
  191POPC  H14B21995   3.671   5.102   6.326  0.2082 -1.4128  1.6558
  191POPC  H14C21996   3.780   5.001   6.242  0.5665  0.9021 -0.5583
  191POPC   C1521997   3.547   4.916   6.151  0.4306 -0.1197 -0.4258
  191POPC  H15A21998   3.497   4.882   6.062 -1.8016 -1.7629  1.3292
  191POPC  H15B21999   3.478   4.923   6.234  1.1897  0.0303  0.2091
  191POPC  H15C22000   3.619   4.839   6.178  2.3758  1.3753 -1.1026
  191POPC   C1122001   3.463   5.241   6.239 -0.3961 -0.2679  0.6647
  191POPC  H11A22002   3.395   5.325   6.217 -2.5925 -2.3283 -0.9067
  191POPC  H11B22003   3.547   5.289   6.294 -1.3825  1.1995  0.9388
  191POPC     P22004   3.382   5.096   6.461 -0.3895  0.0512 -0.1401
  191POPC   O1322005   3.315   4.961   6.464 -0.7271 -0.3917 -0.1933
  191POPC   O1422006   3.320   5.201   6.541  0.1178  0.8463  0.5568
  191POPC   O1222007   3.386   5.143   6.310  0.1884 -0.3390  0.7242
  191POPC   O1122008   3.532   5.085   6.507 -0.2299  0.1880  0.2027
  191POPC    C122009   3.606   5.201   6.551 -0.0571  0.3276 -0.3666
  191POPC    HA22010   3.551   5.297   6.535 -1.1060 -0.4442 -1.5861
  191POPC    HB22011   3.701   5.222   6.498  0.5498  0.7909  0.8576
  191POPC    C222012   3.631   5.191   6.706 -0.2832 -0.0115 -0.3762
  191POPC    HS22013   3.690   5.282   6.731 -1.0553 -0.3741  3.4952
  191POPC   O2122014   3.714   5.072   6.727  0.1212  0.0888  0.0188
  191POPC   C2122015   3.842   5.087   6.702  0.6274 -0.4013 -0.5259
  191POPC   O2222016   3.888   5.191   6.655 -0.1259 -0.0827 -0.0270
  191POPC   C2222017   3.914   4.957   6.735  0.6815  0.2458  0.4551
  191POPC   H2R22018   3.922   4.906   6.636 -0.2071  1.3728 -0.2371
  191POPC   H2S22019   3.853   4.888   6.797  0.4535 -0.5667 -0.6422
  191POPC    C322020   3.499   5.187   6.789  0.5423 -0.7123 -0.3750
  191POPC    HX22021   3.427   5.116   6.742 -0.4708 -0.2215  0.4059
  191POPC    HY22022   3.456   5.289   6.780  0.1080 -0.9404 -0.9772
  191POPC   O3122023   3.511   5.137   6.923 -0.0177  0.0989  0.1241
  191POPC   C3122024   3.555   5.219   7.015 -1.0020 -0.6622  0.5134
  191POPC   O3222025   3.600   5.331   6.996 -0.1736  0.0517 -0.1637
  191POPC   C3222026   3.566   5.137   7.144 -0.1783  0.3674  0.4090
  191POPC   H2X22027   3.666   5.087   7.140 -0.2640  0.2640 -2.1450
  191POPC   H2Y22028   3.491   5.055   7.133  0.6040 -0.2169 -0.8840
  191POPC   C2322029   4.054   4.982   6.783  0.5168  0.6126 -0.7081
  191POPC   H3R22030   4.123   5.046   6.724  1.1791 -0.4194 -1.0940
  191POPC   H3S22031   4.110   4.888   6.804 -0.0814  1.1665  4.9143
  191POPC   C2422032   4.051   5.051   6.921  0.6914  0.0791 -0.3968
  191POPC   H4R22033   4.008   5.153   6.918  0.2925  0.0661  2.4335
  191POPC   H4S22034   4.157   5.068   6.949 -0.2244  0.6718  3.1796
  191POPC   C2522035   3.981   4.974   7.036  0.0045 -0.2993 -0.6520
  191POPC   H5R22036   4.033   4.876   7.032  1.7379  0.5401  0.0729
  191POPC   H5S22037   3.872   4.958   7.024  0.3431 -1.2349 -2.9714
  191POPC   C2622038   4.014   5.027   7.176 -0.2482 -0.3995  0.1085
  191POPC   H6R22039   3.983   5.134   7.176 -2.1861 -0.9090 -0.6300
  191POPC   H6S22040   4.120   5.019   7.206  0.9442  4.4275 -1.7990
  191POPC   C2722041   3.929   4.951   7.277  0.0111 -0.8278 -0.3363
  191POPC   H7R22042   3.958   4.846   7.259  1.1842 -1.0771  2.4268
  191POPC   H7S22043   3.822   4.970   7.253  0.6114  2.0535 -1.1951
  191POPC   C2822044   3.960   4.984   7.421 -0.3013  0.7305 -0.7052
  191POPC   H8R22045   3.882   4.924   7.474  0.2973 -0.1734 -0.8163
  191POPC   H8S22046   3.948   5.093   7.439 -0.9278  0.7212 -1.0476
  191POPC   C2922047   4.103   4.942   7.453  0.2432 -0.7343 -0.0062
  191POPC   H9122048   4.187   4.998   7.408  1.0271 -2.1179 -0.3357
  191POPC  C21022049   4.141   4.851   7.539  0.5464 -0.5648 -0.4004
  191POPC  H10122050   4.247   4.846   7.569 -0.2515 -1.2384  2.6109
  191POPC  C21122051   4.055   4.764   7.631  0.0804  0.3081 -0.6198
  191POPC  H11R22052   4.105   4.665   7.636  0.1426  0.4022  1.5005
  191POPC  H11S22053   3.958   4.745   7.581 -0.8401 -1.3132  1.6106
  191POPC  C21222054   4.017   4.829   7.767  0.2297 -0.4327 -0.3074
  191POPC  H12R22055   3.955   4.763   7.832 -1.7370  1.1602 -0.4575
  191POPC  H12S22056   3.967   4.927   7.749 -0.4669 -0.6981  0.1311
  191POPC  C21322057   4.141   4.843   7.850  0.7120  0.3807 -0.2110
  191POPC  H13R22058   4.215   4.888   7.781 -1.7500  2.1433 -1.8683
  191POPC  H13S22059   4.189   4.750   7.887 -1.0852 -0.7687 -0.6199
  191POPC  C21422060   4.125   4.948   7.967  0.3337 -0.3171 -0.4769
  191POPC  H14R22061   4.070   5.038   7.931 -0.8651 -0.5329  0.7441
  191POPC  H14S22062   4.228   4.966   8.002  1.1466  0.7848 -3.1327
  191POPC  C21522063   4.029   4.899   8.076  0.2912  0.4028 -0.5500
  191POPC  H15R22064   4.082   4.830   8.145  2.3183  0.8588 -1.5613
  191POPC  H15S22065   3.944   4.848   8.024 -0.3342  1.6187 -0.7429
  191POPC  C21622066   3.962   5.017   8.158  0.4887  0.5493 -0.2043
  191POPC  H16R22067   3.891   5.064   8.087  0.0195 -0.0812 -0.1631
  191POPC  H16S22068   4.043   5.092   8.164  1.8509 -0.5383 -3.0141
  191POPC  C21722069   3.886   4.973   8.283 -0.1715 -0.5250 -0.0266
  191POPC  H17R22070   3.835   4.874   8.282  2.9628 -2.2551  0.1684
  191POPC  H17S22071   3.812   5.055   8.295 -2.8409 -2.6004 -1.1719
  191POPC  C21822072   3.976   4.978   8.404 -0.0379 -0.2171  0.1344
  191POPC  H18R22073   3.915   4.953   8.493  0.5173 -1.4964  0.1717
  191POPC  H18S22074   4.012   5.083   8.405 -0.7671  0.0413  1.6679
  191POPC  H18T22075   4.066   4.913   8.410  0.5637  0.6253  0.3465
  191POPC   C3322076   3.543   5.225   7.268  0.8260  0.9105  0.0409
  191POPC   H3X22077   3.439   5.263   7.264  1.1023  1.5460 -2.0620
  191POPC   H3Y22078   3.607   5.315   7.262  2.1566  0.1135  1.2395
  191POPC   C3422079   3.586   5.154   7.399  0.1443  0.0095 -0.5612
  191POPC   H4X22080   3.693   5.126   7.390  1.0875  3.1488 -0.2764
  191POPC   H4Y22081   3.520   5.066   7.419 -1.2312  1.3326  0.9399
  191POPC   C3522082   3.578   5.256   7.510  0.3293  0.4611 -0.3632
  191POPC   H5X22083   3.471   5.278   7.532  0.2800 -0.0701 -0.0506
  191POPC   H5Y22084   3.616   5.355   7.478 -0.2580  1.0603  0.7384
  191POPC   C3622085   3.649   5.217   7.637 -0.4371 -0.1483  0.9303
  191POPC   H6X22086   3.757   5.196   7.625 -0.1913 -0.0551  2.7432
  191POPC   H6Y22087   3.603   5.124   7.678 -3.1596  0.8811  0.3981
  191POPC   C3722088   3.642   5.319   7.751 -0.2547 -0.1019  0.0985
  191POPC   H7X22089   3.537   5.354   7.753 -0.8661 -1.8038  2.5318
  191POPC   H7Y22090   3.714   5.401   7.729 -2.1020  2.2452  2.1885
  191POPC   C3822091   3.686   5.256   7.885  1.0918 -0.4211 -0.0362
  191POPC   H8X22092   3.789   5.220   7.864  1.6961  1.9619 -1.6013
  191POPC   H8Y22093   3.619   5.167   7.888 -1.4222  1.3749  0.6573
  191POPC   C3922094   3.673   5.338   8.017 -0.2356  0.2179  0.0974
  191POPC   H9X22095   3.761   5.406   8.022  0.5916 -0.7799 -0.5513
  191POPC   H9Y22096   3.690   5.266   8.100  1.0679  0.3073 -0.0782
  191POPC  C31022097   3.535   5.408   8.037 -0.4394 -0.5385 -0.0813
  191POPC  H10X22098   3.454   5.332   8.034 -0.0432 -1.0889  1.7649
  191POPC  H10Y22099   3.515   5.487   7.961 -0.8516  1.5591  2.0860
  191POPC  C31122100   3.522   5.448   8.184  0.2055 -0.1557  0.5541
  191POPC  H11X22101   3.615   5.499   8.218 -0.0203 -1.2443  3.0199
  191POPC  H11Y22102   3.503   5.352   8.236 -0.5337 -0.1213  0.3580
  191POPC  C31222103   3.411   5.550   8.206  0.5424  0.2820  0.1579
  191POPC  H12X22104   3.322   5.498   8.248  1.5629 -1.2748  0.4964
  191POPC  H12Y22105   3.385   5.602   8.111  0.6124 -0.2839 -0.1770
  191POPC  C31322106   3.435   5.654   8.315 -1.1839  0.4500  0.0900
  191POPC  H13X22107   3.530   5.704   8.287 -0.3876  0.1771  2.1199
  191POPC  H13Y22108   3.447   5.599   8.411  1.7429  2.8047  1.2212
  191POPC  C31422109   3.322   5.756   8.330 -0.0790  0.0032 -0.3507
  191POPC  H14X22110   3.233   5.689   8.334  0.2294 -0.3542  1.4256
  191POPC  H14Y22111   3.321   5.835   8.252 -2.1791  0.3546 -0.0123
  191POPC  C31522112   3.337   5.831   8.465 -0.2506  0.3681  0.2409
  191POPC  H15X22113   3.434   5.885   8.465 -0.4256  0.6821  0.2967
  191POPC  H15Y22114   3.338   5.756   8.548 -3.2025  0.2186  0.2387
  191POPC  C31622115   3.228   5.926   8.512  0.2501  0.0029  0.0530
  191POPC  H16X22116   3.200   6.008   8.442 -1.8064 -0.9958 -0.3450
  191POPC  H16Y22117   3.267   5.962   8.610  1.4126 -1.2712  0.0863
  191POPC  H16Z22118   3.134   5.872   8.534 -0.4947  1.0171 -0.5496
  192POPC     N22119   5.203   0.642   5.895  1.1394 -0.1151 -0.0167
  192POPC   C1222120   5.076   0.725   5.933  0.1364  0.2059  0.1710
  192POPC  H12A22121   4.987   0.666   5.918 -1.3937  1.9810  1.8087
  192POPC  H12B22122   5.073   0.801   5.856  1.6910  0.5715  0.4439
  192POPC   C1322123   5.201   0.510   5.966 -0.2673  0.6711  0.3860
  192POPC  H13A22124   5.178   0.524   6.070  0.1013  0.9102  0.4333
  192POPC  H13B22125   5.127   0.436   5.937 -0.3788  0.4267  1.2781
  192POPC  H13C22126   5.297   0.462   5.954 -0.9109 -0.8852  1.1948
  192POPC   C1422127   5.211   0.615   5.747 -0.4018 -0.7064 -0.0352
  192POPC  H14A22128   5.309   0.577   5.722  0.0894 -0.2509  1.1591
  192POPC  H14B22129   5.126   0.554   5.718 -2.3906  1.8668 -0.0086
  192POPC  H14C22130   5.192   0.699   5.681 -0.8889 -0.9688 -0.2388
  192POPC   C1522131   5.331   0.715   5.937  0.6639  0.0708 -0.5234
  192POPC  H15A22132   5.353   0.805   5.881  1.3316  0.1276 -0.1729
  192POPC  H15B22133   5.412   0.645   5.952 -1.4107 -2.0449  1.6089
  192POPC  H15C22134   5.320   0.764   6.032  1.0013  1.2413 -1.0676
  192POPC   C1122135   5.070   0.808   6.059  0.3548  0.1892 -0.3832
  192POPC  H11A22136   5.113   0.740   6.135  1.5933  0.6342 -0.6687
  192POPC  H11B22137   4.960   0.820   6.076  0.2937  2.5388 -1.9377
  192POPC     P22138   5.239   0.977   6.154  0.0207  0.2369 -0.0923
  192POPC   O1322139   5.266   1.121   6.134 -0.5453  0.7233  0.2409
  192POPC   O1422140   5.360   0.892   6.148  0.2917 -0.2951 -0.2496
  192POPC   O1222141   5.126   0.935   6.053  0.6168 -0.3493  0.5052
  192POPC   O1122142   5.171   0.958   6.295  0.1634 -0.1997  0.4069
  192POPC    C122143   5.040   0.997   6.332  0.5513 -0.4604 -0.1745
  192POPC    HA22144   4.987   0.901   6.349  0.5600 -1.2316 -3.6892
  192POPC    HB22145   4.989   1.046   6.247 -1.2751 -0.5513  0.8188
  192POPC    C222146   5.050   1.084   6.457 -0.5017  0.2284  0.3564
  192POPC    HS22147   5.107   1.175   6.427 -4.1651  2.7661  0.4190
  192POPC   O2122148   5.097   1.010   6.568 -0.0383  0.2735 -0.4318
  192POPC   C2122149   5.210   1.053   6.623  0.9710  0.4852  0.4834
  192POPC   O2222150   5.294   1.120   6.566 -0.1182  0.2492 -0.2018
  192POPC   C2222151   5.213   1.018   6.767 -0.5267  0.3337 -0.5115
  192POPC   H2R22152   5.290   0.938   6.781  2.3893  3.1629  1.0854
  192POPC   H2S22153   5.117   0.985   6.812  0.0349 -2.8423 -1.3618
  192POPC    C322154   4.916   1.143   6.497 -0.2330  0.2400 -0.1671
  192POPC    HX22155   4.847   1.066   6.538  0.8465  0.5009  2.3220
  192POPC    HY22156   4.869   1.191   6.409  0.4882 -1.8532 -1.7693
  192POPC   O3122157   4.944   1.254   6.584 -0.3866  0.2013  0.2044
  192POPC   C3122158   4.843   1.280   6.668 -0.4349  0.0038  0.2765
  192POPC   O3222159   4.728   1.238   6.659 -0.9195 -0.1718 -0.7702
  192POPC   C3222160   4.901   1.345   6.793 -0.6205  0.0602 -0.0890
  192POPC   H2X22161   4.969   1.424   6.755  0.6789  0.0888  2.1321
  192POPC   H2Y22162   4.965   1.271   6.846  0.5838  2.2873  1.7405
  192POPC   C2322163   5.259   1.144   6.847  0.1807 -0.3148  0.5698
  192POPC   H3R22164   5.188   1.222   6.810  0.7796 -0.7492 -1.6734
  192POPC   H3S22165   5.363   1.178   6.830 -0.0911 -0.6759 -2.5213
  192POPC   C2422166   5.239   1.138   6.999  0.5663  0.3174  0.8538
  192POPC   H4R22167   5.135   1.152   7.036  0.6325  2.8515  0.2650
  192POPC   H4S22168   5.292   1.230   7.030  1.6317 -0.6339  1.9455
  192POPC   C2522169   5.290   1.007   7.070  0.4342  0.4149 -0.1755
  192POPC   H5R22170   5.395   0.982   7.042  0.9164  1.4950  0.6014
  192POPC   H5S22171   5.227   0.921   7.039 -0.0106  0.0528  1.6167
  192POPC   C2622172   5.286   1.013   7.226 -0.2104 -0.4419  0.1635
  192POPC   H6R22173   5.362   1.087   7.258 -1.1636  1.2151 -1.2050
  192POPC   H6S22174   5.302   0.911   7.266  1.8175  0.2683  1.3402
  192POPC   C2722175   5.155   1.072   7.281 -0.0828 -0.2429  0.5892
  192POPC   H7R22176   5.068   1.023   7.232  0.8009 -1.0389 -0.2224
  192POPC   H7S22177   5.146   1.179   7.251 -4.2290 -0.5031  0.2469
  192POPC   C2822178   5.152   1.055   7.437 -0.1728 -0.4406  0.2365
  192POPC   H8R22179   5.245   1.105   7.472  0.8036 -0.3195 -2.3279
  192POPC   H8S22180   5.150   0.947   7.463 -1.3579  0.1323  2.9077
  192POPC   C2922181   5.025   1.121   7.496 -0.6949  0.6917  0.2136
  192POPC   H9122182   4.968   1.189   7.430 -0.9134 -1.1148 -1.5556
  192POPC  C21022183   4.972   1.105   7.619  0.3865  0.0714 -0.1204
  192POPC  H10122184   4.884   1.163   7.650 -0.0937 -1.9640  2.6234
  192POPC  C21122185   5.019   1.009   7.727 -0.1399 -1.4099  0.5114
  192POPC  H11R22186   5.026   1.062   7.825  0.6443  0.3487 -0.4524
  192POPC  H11S22187   5.122   0.978   7.700 -0.0952  0.2093 -1.3706
  192POPC  C21222188   4.944   0.878   7.736 -0.4794  0.0811 -0.1245
  192POPC  H12R22189   4.835   0.898   7.739 -0.2479  2.0079 -2.3211
  192POPC  H12S22190   4.979   0.817   7.823 -1.7806  1.7336  1.6491
  192POPC  C21322191   4.978   0.797   7.609  0.6805 -0.8841 -0.2810
  192POPC  H13R22192   5.086   0.768   7.610  0.7058 -0.7904 -0.2944
  192POPC  H13S22193   4.946   0.862   7.525 -3.1858  1.0413  2.4265
  192POPC  C21422194   4.903   0.667   7.576  0.7984  0.1144 -0.1196
  192POPC  H14R22195   4.957   0.617   7.493  2.5228  2.8245 -0.7579
  192POPC  H14S22196   4.798   0.690   7.547  1.5153  0.9892 -2.2241
  192POPC  C21522197   4.898   0.557   7.689 -0.3025  0.1127  0.2920
  192POPC  H15R22198   4.853   0.587   7.786 -0.4592 -1.1044  0.6076
  192POPC  H15S22199   5.003   0.532   7.718 -0.5065 -1.0158  0.0703
  192POPC  C21622200   4.829   0.422   7.644  0.0872 -0.4754 -0.0082
  192POPC  H16R22201   4.872   0.352   7.719  0.4069  0.6501  0.8907
  192POPC  H16S22202   4.867   0.382   7.547  0.3579  1.8792 -0.9509
  192POPC  C21722203   4.675   0.417   7.648  0.1785 -0.6469 -0.2738
  192POPC  H17R22204   4.623   0.327   7.610 -2.4677  0.7842 -0.3045
  192POPC  H17S22205   4.641   0.490   7.571  0.3355  0.7551  0.9316
  192POPC  C21822206   4.614   0.466   7.780  0.0165 -0.2635 -0.7202
  192POPC  H18R22207   4.505   0.449   7.767  0.4432 -6.7280  0.9970
  192POPC  H18S22208   4.630   0.574   7.801  0.1499 -0.5202  0.6079
  192POPC  H18T22209   4.643   0.396   7.861  0.9092 -3.8207 -3.8084
  192POPC   C3322210   4.804   1.402   6.897 -0.2555  0.4856 -0.0488
  192POPC   H3X22211   4.774   1.311   6.953 -0.5310  0.5054 -0.1639
  192POPC   H3Y22212   4.714   1.441   6.845 -0.3479  0.0955 -0.1850
  192POPC   C3422213   4.867   1.496   7.003 -0.6332 -0.0926  0.5536
  192POPC   H4X22214   4.845   1.601   6.972  0.0964  0.3557  1.5142
  192POPC   H4Y22215   4.977   1.485   7.012 -0.5063 -1.3245 -1.8418
  192POPC   C3522216   4.815   1.470   7.146 -0.1290 -0.4882  0.3871
  192POPC   H5X22217   4.847   1.366   7.165 -0.3514 -0.8848 -1.2334
  192POPC   H5Y22218   4.704   1.464   7.151 -0.2262 -0.6247 -1.2459
  192POPC   C3622219   4.863   1.568   7.262  0.0983 -0.3037 -0.5774
  192POPC   H6X22220   4.807   1.664   7.260  0.3012 -0.1733 -0.1223
  192POPC   H6Y22221   4.972   1.582   7.242 -0.0485  0.1689 -1.0751
  192POPC   C3722222   4.844   1.504   7.403 -0.5446 -0.1443 -0.0168
  192POPC   H7X22223   4.860   1.394   7.412  1.8786  0.2243  0.9975
  192POPC   H7Y22224   4.740   1.529   7.432 -0.3937 -1.8962  2.3032
  192POPC   C3822225   4.939   1.556   7.518  0.3246  0.3649 -0.0098
  192POPC   H8X22226   4.941   1.667   7.514 -1.6110  0.4163 -0.6521
  192POPC   H8Y22227   5.043   1.524   7.499  0.8886  2.0930 -0.0001
  192POPC   C3922228   4.915   1.507   7.659 -0.0264  0.5494  0.3885
  192POPC   H9X22229   4.926   1.397   7.672 -5.4737 -0.3848 -0.1456
  192POPC   H9Y22230   4.808   1.530   7.680 -0.7239 -1.2064 -0.9685
  192POPC  C31022231   5.007   1.577   7.760 -0.2823 -0.1979 -0.3798
  192POPC  H10X22232   4.989   1.687   7.759 -0.3638 -0.0930  2.6752
  192POPC  H10Y22233   5.114   1.550   7.743  0.3596  0.9167  1.5052
  192POPC  C31122234   4.994   1.520   7.902 -0.2876 -0.2757  0.1814
  192POPC  H11X22235   5.025   1.413   7.900  0.5088 -0.0396 -0.6886
  192POPC  H11Y22236   4.885   1.515   7.925  0.0276  0.3462  1.9642
  192POPC  C31222237   5.083   1.575   8.012 -0.0408 -0.4687 -0.2962
  192POPC  H12X22238   5.029   1.661   8.057 -1.6849 -1.2899 -0.6448
  192POPC  H12Y22239   5.180   1.615   7.974 -1.2140  1.0368 -1.8367
  192POPC  C31322240   5.102   1.473   8.128 -0.3626 -0.3545  0.1020
  192POPC  H13X22241   5.181   1.398   8.106  0.0856  0.0949  0.1522
  192POPC  H13Y22242   5.002   1.427   8.143 -0.6315  0.5422  1.2041
  192POPC  C31422243   5.151   1.538   8.263  0.2716 -0.2368  0.6347
  192POPC  H14X22244   5.104   1.637   8.284  1.3005  0.1172  1.4230
  192POPC  H14Y22245   5.257   1.570   8.261 -0.0624  0.9310  0.7930
  192POPC  C31522246   5.129   1.453   8.384 -0.4525  0.3552 -0.0631
  192POPC  H15X22247   5.156   1.348   8.358  1.3373  1.1451 -1.6282
  192POPC  H15Y22248   5.021   1.446   8.409 -0.3031 -4.3705  0.1307
  192POPC  C31622249   5.211   1.508   8.498 -0.0955 -0.0014 -0.6006
  192POPC  H16X22250   5.189   1.612   8.531 -0.0783 -0.2573  0.2355
  192POPC  H16Y22251   5.317   1.500   8.467  0.2803 -2.1558  1.0065
  192POPC  H16Z22252   5.193   1.452   8.592 -1.5456  0.6194 -0.4814
  193SOD    SOD22253   5.624   4.422  10.831 -0.1286  0.3632  0.1861
  194SOD    SOD22254   0.701   4.146   6.303 -0.1259 -0.1855  0.1162
  195SOD    SOD22255   5.117   1.113  14.483 -0.1733 -0.6694 -0.3534
  196SOD    SOD22256   3.393   2.198   2.133  0.1921 -0.0792  0.0913
  197SOD    SOD22257   2.328   4.310   6.315 -0.7465 -0.1899 -0.1857
  198SOD    SOD22258   3.293   0.723  17.308  0.1414 -0.0781  0.1461
  199SOD    SOD22259   6.037   4.564   6.101 -0.2240 -0.3705  0.0989
  200SOD    SOD22260   3.340   6.139  11.326 -0.0314 -0.2052  0.4997
  201SOD    SOD22261   2.730   5.336  13.826 -0.2158  0.5897  0.0912
  202SOD    SOD22262   6.163   2.683   1.426  0.2583  0.1470  0.0133
  203SOD    SOD22263   1.763   5.155   3.955  0.3965  0.2725 -0.0076
  204SOD    SOD22264   5.977   4.973   4.967  0.3353 -0.3615  0.1047
  205SOD    SOD22265   4.033   2.854  12.959  0.3120 -0.1240 -0.1895
  206SOD    SOD22266   2.426   4.761  10.945 -0.3478  0.1618 -0.4493
  207SOD    SOD22267   0.155   5.138  14.126  0.0056 -0.1769  0.7049
  208SOD    SOD22268   5.433   4.108  11.973 -0.2190  0.2672 -0.0597
  209SOD    SOD22269   5.851   0.775  12.482  0.5259 -0.4319  0.3869
  210SOD    SOD22270   2.956   1.445  10.710 -0.3589  0.8603 -0.2730
  211SOD    SOD22271   6.467   1.143  14.289  0.4804  0.3920  0.1521
  212SOD    SOD22272   5.534   4.163   5.628 -0.4273  0.4588 -0.4432
  213SOD    SOD22273   3.769   5.421  10.843  0.1583 -0.3776  0.4433
  214SOD    SOD22274   1.106   5.695  14.618  0.2195  0.1491  0.0856
  215SOD    SOD22275   3.993   1.922  15.509 -0.6763 -0.2196 -0.0919
  216SOD    SOD22276   0.022   5.372   5.875  0.7147 -0.4702  0.1646
  217SOD    SOD22277   0.686   0.442   0.888 -0.1941  0.2112  0.1964
  218SOD    SOD22278   3.024   5.970  14.231  0.4092  0.2633 -0.3940
  219SOD    SOD22279   0.137   1.174  10.942 -0.0385  0.3791  0.3556
  220SOD    SOD22280   3.917   0.695  15.144 -0.4343 -0.2002 -0.4752
  221SOD    SOD22281   1.896   2.905   2.734 -0.1540 -0.1917 -0.2310
  222SOD    SOD22282   2.101   6.519  11.655 -0.4586 -0.4633 -0.0749
  223SOD    SOD22283   5.702   5.614   4.755 -0.6002  0.1194  0.4503
  224SOD    SOD22284   3.130   4.489   1.402 -0.4185  0.7234 -0.2250
  225SOD    SOD22285   2.360   0.865  13.524  0.1857 -0.1420 -0.8232
  226SOD    SOD22286   1.290   2.853   4.895 -0.1584  0.0159  0.1354
  227SOD    SOD22287   5.974   1.658   5.874  0.2432  0.5356  0.1287
  228SOD    SOD22288   1.673   2.768  10.818 -0.0977  0.7217  0.7067
  229SOD    SOD22289   1.196   4.816  16.412  0.0178  0.3018 -0.1170
  230SOD    SOD22290   6.513   0.969   1.083  0.0729 -0.4108  0.3283
  231SOD    SOD22291   5.234   5.981  15.604 -0.1191  0.3876  0.1296
  232SOD    SOD22292   2.200   2.560  11.066  0.0508  0.2442  0.0052
  233SOD    SOD22293   5.261   3.597  17.074  0.0231 -0.6729 -0.0300
  234SOD    SOD22294   4.455   6.097  12.724 -0.0355 -0.2819  0.2958
  235SOD    SOD22295   5.565   1.357   4.452  0.0755  0.3667 -0.1700
  236SOD    SOD22296   5.890   5.078  13.354  0.7157  0.3086  0.1795
  237SOD    SOD22297   0.992   3.750   0.452  0.1165  0.1837 -0.2847
  238SOD    SOD22298   6.311   5.795  12.364 -0.3936 -0.1481 -0.0244
  239SOD    SOD22299   4.495   5.754   5.256  0.1683 -0.0678 -0.1301
  240SOD    SOD22300   5.180   6.153  11.585 -0.1790  0.0816  0.4458
  241SOD    SOD22301   2.765   5.076   3.994  0.9078  0.3131  0.2498
  242SOD    SOD22302   3.519   3.488  12.123 -0.0755 -0.0221 -0.0933
  243SOD    SOD22303   5.605   1.230   3.505 -0.2465 -0.0736  0.1000
  244SOD    SOD22304   5.556   6.130  12.923 -0.1876 -0.4949  0.1478
  245SOD    SOD22305   6.468   1.103  16.829  0.3276  0.1090  1.0669
  246SOD    SOD22306   3.221   6.092   4.023  0.1972  0.1116  0.0319
  247SOD    SOD22307   2.159   5.342   1.817 -0.2862 -0.4176  0.5140
  248SOD    SOD22308   1.783   4.208  13.100  0.2142  0.5495 -0.2061
  249SOD    SOD22309   6.314   3.619  15.266 -0.8131 -0.0394  0.2591
  250SOD    SOD22310   3.785   3.350  14.434  0.2092 -0.0738  0.2119
  251SOD    SOD22311   4.713   6.128  15.988  0.1081  0.4999  0.1967
  252SOD    SOD22312   0.528   2.033   4.487 -0.0869  0.1846 -0.2706
  253SOD    SOD22313   2.588   0.243   6.546 -0.2226  0.0181  0.1633
  254SOD    SOD22314   6.150   6.607   6.360 -0.1610 -0.3555  0.1402
  255SOD    SOD22315   2.997   5.324   3.313  0.0955 -0.1130  0.4741
  256SOD    SOD22316   0.212   4.720  15.421  0.2889  0.3010  0.1395
  257SOD    SOD22317   1.233   6.620  16.977 -0.0903 -0.2407  0.0320
  258SOD    SOD22318   1.829   4.011  12.273 -0.4784  0.2653 -0.1470
  259SOD    SOD22319   3.024   0.008   5.562 -0.1427 -0.2352 -0.0172
  260SOD    SOD22320   0.764   2.660   4.920  0.4727 -0.2721  0.1159
  261SOD    SOD22321   1.922   1.999  14.244  0.1196 -0.1176  0.0407
  262SOD    SOD22322   5.975   4.098  15.232  0.2355  0.1300 -0.0690
  263SOD    SOD22323   5.596   3.932   3.022  0.0104  0.4492 -0.5491
  264SOD    SOD22324   2.168   0.670   3.228  0.5269 -0.4638  0.2451
  265SOD    SOD22325   3.321   3.024   2.652  0.0478  0.0322  0.0622
  266SOD    SOD22326   6.593   2.009  10.960  0.6900 -0.0561 -0.2150
  267SOD    SOD22327   6.583   6.094  11.027 -0.3702 -0.7495 -0.3124
  268SOD    SOD22328   3.081   6.727   1.160 -0.8241 -0.7234  0.0720
  269SOD    SOD22329   3.446   4.768  14.666 -0.0343 -0.3172  0.6199
  270CLA    CLA22330   2.507   0.384   5.216 -0.0163 -0.3632  0.3546
  271CLA    CLA22331   0.327   0.643  16.896  0.1929  0.0085 -0.3405
  272CLA    CLA22332   3.261   2.231   1.390 -0.0100 -0.0718  0.2547
  273CLA    CLA22333   4.724   0.641  15.964 -0.5848 -0.5627 -0.0995
  274CLA    CLA22334   3.773   1.788  15.063 -0.4845 -0.1629  0.1519
  275CLA    CLA22335   0.459   6.124  17.293  0.3836  0.2506 -0.2589
  276CLA    CLA22336   1.003   0.034  11.674 -0.0569  0.2814 -0.0705
  277CLA    CLA22337   0.860   3.662  15.745 -0.1925  0.4551 -0.2077
  278CLA    CLA22338   2.013   3.443  13.987  0.4183 -0.1616  0.1545
  279CLA    CLA22339   2.158   0.488   0.373  0.0955 -0.2879 -0.1645
  280CLA    CLA22340   6.544   3.957   2.678  0.0667  0.1519  0.3421
  281CLA    CLA22341   6.533   6.388  12.659 -0.1417 -0.0796 -0.5941
  282CLA    CLA22342   3.084   5.744   3.673  0.4144  0.2680  0.2181
  283CLA    CLA22343   0.295   6.359   5.084 -0.1667 -0.1245  0.0839
  284CLA    CLA22344   5.225   2.809  16.933 -0.3775 -0.0693 -0.0270
  285CLA    CLA22345   4.433   0.173   1.457  0.4440 -0.6098 -0.0425
  286CLA    CLA22346   4.664   4.461  14.661  0.2279 -0.3202 -0.2413
  287CLA    CLA22347   3.778   2.896   1.489 -0.1475  0.4030 -0.5462
  288CLA    CLA22348   2.548   2.850  11.348 -0.0641  0.2508 -0.3735
  289CLA    CLA22349   6.497   4.412   3.634  0.2629 -0.0747 -0.1424
  290CLA    CLA22350   3.833   5.539  16.402  0.3400  0.5693  0.1171
  291CLA    CLA22351   5.186   5.749   5.327  0.0935  0.2933  0.2240
  292CLA    CLA22352   0.583   1.053   2.650  0.1866  0.2041 -0.6250
  293CLA    CLA22353   3.681   3.795  17.093 -0.2606  0.3289  0.1795
  294CLA    CLA22354   0.159   5.396  14.159  0.3975 -0.2446 -0.2685
  295CLA    CLA22355   3.394   3.705   1.460 -0.2669 -0.0029 -0.1314
  296CLA    CLA22356   4.610   3.218  13.284  0.0047  0.0374 -0.3461
  297CLA    CLA22357   3.582   2.318   2.765 -0.1803  0.4752 -0.2698
  298CLA    CLA22358   1.473   1.380  13.298  0.1136 -0.3731  0.0802
  299CLA    CLA22359   6.460   4.126  15.295 -0.3040  0.2144 -0.1542
  300CLA    CLA22360   2.856   6.049   1.369  0.3606  0.6622 -0.0041
  301CLA    CLA22361   6.283   1.793  14.696  0.4979 -0.1295 -0.0373
  302CLA    CLA22362   3.781   4.684   2.801  0.0114  0.1561 -0.1263
  303CLA    CLA22363   2.742   1.772  15.914 -0.1401 -0.3511  0.1204
  304CLA    CLA22364   5.281   0.487   1.456 -0.5541  0.1068  0.4655
  305CLA    CLA22365   0.591   1.056  13.588 -0.2052 -0.2000  0.0023
  306CLA    CLA22366   5.851   6.277  11.588 -0.1531 -0.1086 -0.2054
  307CLA    CLA22367   2.651   5.474  14.506 -0.7129 -0.0356 -0.0990
  308CLA    CLA22368   4.238   4.376  12.968  0.4396  0.4273 -0.1540
  309CLA    CLA22369   2.305   0.004  13.804 -0.7312  0.4808  0.5848
  310CLA    CLA22370   2.836   4.931   2.700  0.2294 -0.0855  0.2182
  311CLA    CLA22371   5.184   4.112  12.040 -0.0038  0.1809 -0.1852
  312CLA    CLA22372   1.803   3.821  13.342  0.1023 -0.0957 -0.0388
  313CLA    CLA22373   1.513   6.303   4.824  0.2681 -0.0778 -0.2496
  314CLA    CLA22374   6.118   4.705  16.238 -0.0931  0.1135  0.0059
  315CLA    CLA22375   1.694   3.547  12.719  0.0600  0.3427  0.1310
  316CLA    CLA22376   6.671   4.329  11.901  0.1743  0.0228 -0.5543
  317CLA    CLA22377   1.677   3.389  14.861  0.1814  0.2756 -0.0064
  318CLA    CLA22378   6.006   6.182  13.568 -0.1651  0.1904 -0.0767
  319CLA    CLA22379   2.100   1.556   4.005 -0.2844 -0.2935 -0.4954
  320CLA    CLA22380   0.626   5.821  16.878  0.3427  0.5602 -0.1115
  321CLA    CLA22381   6.680   6.159  17.236  0.0040 -0.1239  0.0920
  322CLA    CLA22382   4.475   2.206  12.948  0.0293  0.7388  0.1625
  323TIP3   OH222383   3.935   4.140  14.538  0.1506  0.4631  0.1885
  323TIP3    H122384   3.906   4.049  14.548  1.2834  0.1902  1.1737
  323TIP3    H222385   3.972   4.143  14.450  1.2028 -0.3668  0.5819
  324TIP3   OH222386   3.677   1.367   3.782 -0.2850 -0.3147 -0.0305
  324TIP3    H122387   3.677   1.459   3.755  0.3816 -0.1340  0.5597
  324TIP3    H222388   3.620   1.365   3.859  1.3621  0.0093  1.2332
  325TIP3   OH222389   4.928   1.799  11.686  0.0664 -0.4396  0.1776
  325TIP3    H122390   4.976   1.805  11.604  0.8215  1.6904  0.7147
  325TIP3    H222391   4.980   1.738  11.740 -1.1185 -2.8810 -1.2748
  326TIP3   OH222392   5.935   1.882   2.633 -0.1473  0.4925  0.3989
  326TIP3    H122393   6.028   1.859   2.635 -0.1831  0.3515  0.5270
  326TIP3    H222394   5.892   1.805   2.596  0.0737  1.6212 -2.4363
  327TIP3   OH222395   1.133   5.057   5.441  0.3458 -0.2355 -0.1006
  327TIP3    H122396   1.129   4.979   5.386  0.1583 -0.0764 -0.3111
  327TIP3    H222397   1.221   5.093   5.426  0.2829 -0.1730 -0.3247
  328TIP3   OH222398   6.581   1.736   5.659 -0.2760  0.3787  0.2061
  328TIP3    H122399   6.573   1.786   5.578  2.7426 -1.1259 -1.1959
  328TIP3    H222400   6.642   1.786   5.713  1.0954 -0.6700 -0.3183
  329TIP3   OH222401   6.148   5.317   4.074  0.6917  0.1525 -0.3736
  329TIP3    H122402   6.079   5.383   4.078  1.0944  0.5034  1.9231
  329TIP3    H222403   6.101   5.234   4.082  0.4660  0.3598  0.5859
  330TIP3   OH222404   5.808   3.637   5.980  0.3568 -0.1688  0.1434
  330TIP3    H122405   5.786   3.548   5.952  0.7497 -0.0302 -0.6186
  330TIP3    H222406   5.843   3.679   5.902  0.8680  0.4312  0.6862
  331TIP3   OH222407   0.254   3.226   2.515 -0.5728  0.1769 -0.4762
  331TIP3    H122408   0.161   3.238   2.535 -0.3577  0.0637  0.6621
  331TIP3    H222409   0.293   3.201   2.598  0.5351  0.5179 -0.8780
  332TIP3   OH222410   4.385   1.275  17.031  0.5045  0.4047  0.1268
  332TIP3    H122411   4.417   1.323  16.955  0.3556  0.8662  0.3571
  332TIP3    H222412   4.363   1.188  16.996  0.9323  0.4440 -0.2514
  333TIP3   OH222413   6.071   1.622   3.422 -0.7343 -0.4131  0.1176
  333TIP3    H122414   6.073   1.592   3.513 -2.2059 -1.4046 -0.1445
  333TIP3    H222415   6.134   1.565   3.377 -1.1690 -1.0041  0.2364
  334TIP3   OH222416   0.293   4.631   5.917  0.2770 -0.4813  0.3865
  334TIP3    H122417   0.307   4.538   5.930  1.1030 -0.5348 -0.7493
  334TIP3    H222418   0.238   4.637   5.839  0.7915 -0.0167  0.0485
  335TIP3   OH222419   4.594   6.231  11.950 -0.1150  0.1338  0.1780
  335TIP3    H122420   4.548   6.277  11.880  1.9163 -0.3385 -1.5847
  335TIP3    H222421   4.596   6.140  11.923  1.3229  0.0511  0.4538
  336TIP3   OH222422   5.958   3.466   4.790 -0.0035 -0.5687 -0.1064
  336TIP3    H122423   5.950   3.483   4.696  0.0272 -0.1831 -0.0390
  336TIP3    H222424   5.898   3.528   4.831 -0.7183 -1.3608  0.0797
  337TIP3   OH222425   0.835   3.791   3.175  0.1260 -0.0520 -0.3602
  337TIP3    H122426   0.859   3.746   3.256 -0.7049  0.8327  0.3987
  337TIP3    H222427   0.759   3.743   3.142  0.3147 -0.2623 -0.4937
  338TIP3   OH222428   2.497   3.380   3.125  0.2260  0.4120  0.1795
  338TIP3    H122429   2.482   3.468   3.091  1.9826  0.7009  0.0465
  338TIP3    H222430   2.570   3.390   3.187  0.3314 -0.9131  0.3022
  339TIP3   OH222431   3.689   1.543  14.031 -0.6820 -0.1882 -0.8180
  339TIP3    H122432   3.604   1.529  13.989 -1.4942  0.5776  0.4859
  339TIP3    H222433   3.692   1.477  14.101 -1.1814  1.1184  0.4966
  340TIP3   OH222434   1.448   3.727   0.375  0.1978  0.3422  0.1138
  340TIP3    H122435   1.449   3.822   0.362 -2.0910  0.2761 -1.0454
  340TIP3    H222436   1.446   3.690   0.286  0.1367 -0.7482  0.5507
  341TIP3   OH222437   5.439   2.547   3.397  0.0497 -0.4970  0.9108
  341TIP3    H122438   5.479   2.589   3.321  0.4393  0.2073  1.4955
  341TIP3    H222439   5.475   2.594   3.473 -0.1850 -1.3113  1.5424
  342TIP3   OH222440   2.882   5.261   1.162  0.1540  0.1025 -0.3882
  342TIP3    H122441   2.974   5.236   1.165 -0.6134 -3.1616 -0.2809
  342TIP3    H222442   2.847   5.233   1.247 -1.1985  0.0477 -0.9392
  343TIP3   OH222443   1.098   6.729   0.909  0.3933 -0.4965 -0.0613
  343TIP3    H122444   1.136   6.653   0.953 -0.1303  0.9298  3.1612
  343TIP3    H222445   1.165   6.759   0.848  1.4366 -2.2920  0.1502
  344TIP3   OH222446   1.168   3.768   2.280 -0.1389  0.1221 -0.1681
  344TIP3    H122447   1.140   3.720   2.358 -1.1482 -0.3593 -0.8028
  344TIP3    H222448   1.212   3.846   2.314  0.5023 -0.6739  0.8771
  345TIP3   OH222449   4.420   0.708  15.889 -0.2814  0.0035  0.0140
  345TIP3    H122450   4.488   0.691  15.954 -1.6184 -3.0966  0.7734
  345TIP3    H222451   4.338   0.711  15.940 -1.0293  0.9847 -1.1761
  346TIP3   OH222452   1.497   1.015   4.254  0.0607 -0.0533 -0.6417
  346TIP3    H122453   1.565   1.079   4.272 -2.9181  3.8553 -1.7805
  346TIP3    H222454   1.525   0.971   4.174  1.6050  0.8717 -0.6409
  347TIP3   OH222455   5.843   3.261  15.544 -0.3716  0.2927 -0.2931
  347TIP3    H122456   5.866   3.181  15.591 -0.7324  1.4672  2.0246
  347TIP3    H222457   5.759   3.241  15.502 -0.6069 -0.4418  0.5022
  348TIP3   OH222458   2.810   3.886   4.440  0.2409  0.6854 -0.0302
  348TIP3    H122459   2.750   3.867   4.513  2.1357  1.1343  1.7330
  348TIP3    H222460   2.775   3.967   4.402 -1.0226  0.2174  0.0619
  349TIP3   OH222461   0.159   3.928   4.140 -0.2254 -0.2735 -0.2546
  349TIP3    H122462   0.160   4.017   4.175  1.6809 -0.0154 -0.8383
  349TIP3    H222463   0.100   3.880   4.198 -1.2677  1.3407  0.0871
  350TIP3   OH222464   4.662   2.319  12.299  0.0471 -0.2741  0.2767
  350TIP3    H122465   4.714   2.362  12.230  0.4540 -0.4711  0.4569
  350TIP3    H222466   4.575   2.310  12.261 -0.0992  0.8650  0.2962
  351TIP3   OH222467   1.093   4.458   4.700 -0.0543 -0.5055  0.8527
  351TIP3    H122468   1.167   4.496   4.746 -0.7632  3.0837 -0.6757
  351TIP3    H222469   1.106   4.484   4.608 -2.0583 -1.7210  0.1656
  352TIP3   OH222470   3.579   5.191  13.364  0.1052  0.7898 -0.6812
  352TIP3    H122471   3.579   5.112  13.418  1.0890  1.3716  0.2071
  352TIP3    H222472   3.490   5.196  13.328 -1.1598  1.2631  2.2275
  353TIP3   OH222473   4.682   0.206   1.668 -0.1812 -0.1613 -0.0972
  353TIP3    H122474   4.628   0.163   1.734 -1.2680  1.7443  0.3214
  353TIP3    H222475   4.626   0.211   1.591 -0.4078  1.2494  0.1349
  354TIP3   OH222476   5.416   0.352   4.589  0.4532 -0.0638 -0.3799
  354TIP3    H122477   5.496   0.309   4.620 -0.0831 -0.3942  0.5646
  354TIP3    H222478   5.439   0.385   4.502  1.7565  0.2448  0.0700
  355TIP3   OH222479   6.337   4.847  16.933 -0.0455  0.3673 -0.1703
  355TIP3    H122480   6.251   4.886  16.917 -0.1162  0.2657 -0.0422
  355TIP3    H222481   6.357   4.869  17.024 -0.7681 -1.1642  0.3979
  356TIP3   OH222482   5.445   5.551  15.457  0.0412 -0.3948  0.1603
  356TIP3    H122483   5.509   5.534  15.527  0.1523  0.1282  0.1863
  356TIP3    H222484   5.361   5.557  15.503  0.5277  3.8863  0.8624
  357TIP3   OH222485   2.154   6.342   3.639  0.1752  0.0384 -0.2564
  357TIP3    H122486   2.223   6.338   3.707 -1.0054 -0.9283  0.9361
  357TIP3    H222487   2.126   6.433   3.640  0.0386 -0.0040  0.7121
  358TIP3   OH222488   6.151   2.806  13.044  0.2199 -0.1698 -0.0151
  358TIP3    H122489   6.174   2.795  12.952  1.1704  0.6476  0.1005
  358TIP3    H222490   6.193   2.732  13.088  0.8185  0.1120 -0.0954
  359TIP3   OH222491   6.665   6.345   5.060  0.2550 -0.0354 -0.3207
  359TIP3    H122492   6.683   6.373   4.970 -1.8949  0.2793 -0.7288
  359TIP3    H222493   6.716   6.265   5.072 -0.9908 -1.2904 -2.6144
  360TIP3   OH222494   3.713   3.486  14.251  0.3788 -1.0865 -0.1989
  360TIP3    H122495   3.670   3.566  14.221  0.5096 -0.4622  1.1909
  360TIP3    H222496   3.703   3.425  14.179 -3.1237 -1.0924  0.1145
  361TIP3   OH222497   6.650   0.784   5.400 -0.0497 -0.0594  0.0690
  361TIP3    H122498   6.734   0.751   5.434  0.2992  0.9503  0.2362
  361TIP3    H222499   6.615   0.836   5.472 -1.6623 -1.8229  0.6286
  362TIP3   OH222500   3.058   0.021  14.926 -0.0921 -0.1146 -0.0294
  362TIP3    H122501   3.027   0.044  15.014  1.4018  0.3973  0.3904
  362TIP3    H222502   3.054   0.104  14.878  0.8300  0.0220  0.1096
  363TIP3   OH222503   0.329   2.830   1.941 -0.0950 -0.6458 -0.0945
  363TIP3    H122504   0.423   2.823   1.927 -0.1950  0.4390 -1.5604
  363TIP3    H222505   0.320   2.848   2.035  1.2306  0.3252 -0.1230
  364TIP3   OH222506   6.566   4.752   1.246  0.2661  0.4022 -0.6530
  364TIP3    H122507   6.658   4.767   1.225  1.1875 -1.1345  1.8195
  364TIP3    H222508   6.557   4.657   1.247 -0.8591  0.4766  0.8750
  365TIP3   OH222509   3.068   1.917   3.261 -0.7346  0.3500  0.1801
  365TIP3    H122510   3.122   1.982   3.218  0.1536 -0.5804 -0.1442
  365TIP3    H222511   3.113   1.898   3.343 -0.3706 -0.6615 -0.2366
  366TIP3   OH222512   4.392   6.294  12.350  0.1220  0.1673  0.7286
  366TIP3    H122513   4.480   6.255  12.341 -0.5743 -1.0904 -1.2440
  366TIP3    H222514   4.332   6.220  12.338 -1.2595  1.5832 -1.9321
  367TIP3   OH222515   0.546   3.008   5.575  0.1591 -0.4057 -0.2207
  367TIP3    H122516   0.590   3.093   5.571 -0.1275 -0.2143 -4.9846
  367TIP3    H222517   0.453   3.029   5.576  0.0968 -0.7000  0.2416
  368TIP3   OH222518   1.610   5.213  13.922  0.5198 -0.0240 -0.2116
  368TIP3    H122519   1.535   5.241  13.870  0.6930 -1.5816 -1.3686
  368TIP3    H222520   1.650   5.295  13.952 -1.4101  0.8477  0.1557
  369TIP3   OH222521   4.895   2.174   2.062  0.6279  0.0131 -0.9615
  369TIP3    H122522   4.959   2.122   2.013  0.6422  0.5314 -1.5022
  369TIP3    H222523   4.844   2.219   1.994  0.9063  1.0504 -0.5003
  370TIP3   OH222524   5.801   6.018   3.422  0.1822  0.0254 -0.1960
  370TIP3    H122525   5.873   5.965   3.386 -1.2234 -2.1486 -0.0181
  370TIP3    H222526   5.781   6.081   3.353  1.8251  0.2655 -0.4985
  371TIP3   OH222527   3.283   2.846  14.558 -0.0004 -0.1262  0.0075
  371TIP3    H122528   3.261   2.795  14.637 -1.5989  3.8731  2.4392
  371TIP3    H222529   3.378   2.838  14.551  0.0986 -1.3435  1.8174
  372TIP3   OH222530   4.693   2.159  14.059 -0.2838  0.0328  0.2510
  372TIP3    H122531   4.682   2.073  14.019 -0.9718 -1.4322  3.2475
  372TIP3    H222532   4.788   2.172  14.061 -0.1508 -0.8162  0.0372
  373TIP3   OH222533   4.130   0.860  15.841 -0.1827 -0.5993 -0.5008
  373TIP3    H122534   4.141   0.908  15.922 -0.8663 -0.6160 -0.3870
  373TIP3    H222535   4.172   0.914  15.774  0.4350 -0.6183 -0.1307
  374TIP3   OH222536   6.648   6.239   2.502 -0.4714  0.0515 -0.2440
  374TIP3    H122537   6.618   6.155   2.468  3.3395 -1.5318 -0.2675
  374TIP3    H222538   6.659   6.293   2.424 -0.3691 -0.4106 -0.5578
  375TIP3   OH222539   4.819   4.509  17.053 -0.0873 -0.0145  0.2154
  375TIP3    H122540   4.887   4.449  17.082  0.8168  0.6655 -0.4726
  375TIP3    H222541   4.861   4.566  16.989 -1.1275  0.8457  0.2555
  376TIP3   OH222542   2.684   0.964  17.203 -0.6628  0.3099  0.7620
  376TIP3    H122543   2.723   0.992  17.285  0.6523  2.6705 -0.5693
  376TIP3    H222544   2.611   1.024  17.189 -0.2888  0.5467 -0.2365
  377TIP3   OH222545   5.620   1.788   2.292 -0.0625 -0.0486 -0.1782
  377TIP3    H122546   5.531   1.757   2.274 -1.2075  2.9555 -0.1864
  377TIP3    H222547   5.609   1.856   2.358  2.1586  0.9227 -0.7138
  378TIP3   OH222548   4.507   5.018  14.537  0.1110 -0.0775  0.3493
  378TIP3    H122549   4.550   5.015  14.452 -1.9351  0.7579 -0.8008
  378TIP3    H222550   4.494   4.926  14.561 -1.1538 -0.3694 -1.2942
  379TIP3   OH222551   6.598   3.287  17.303 -0.1934  0.0262  0.1358
  379TIP3    H122552   6.612   3.198  17.334 -2.5762 -0.0130  1.2886
  379TIP3    H222553   6.517   3.283  17.252  2.1817  0.6208 -4.2249
  380TIP3   OH222554   4.537   3.621   3.236 -0.4574  0.0062 -0.2291
  380TIP3    H122555   4.598   3.591   3.168 -0.2015  1.5891 -0.7198
  380TIP3    H222556   4.496   3.699   3.199 -1.9065 -0.3292  0.5960
  381TIP3   OH222557   3.804   0.831   5.596 -0.2400 -0.4492 -0.3855
  381TIP3    H122558   3.896   0.804   5.602  0.0831  0.8411  1.7236
  381TIP3    H222559   3.793   0.858   5.505  1.3418 -1.0670 -0.8008
  382TIP3   OH222560   4.670   2.908  15.484  0.2485  0.0849  0.0016
  382TIP3    H122561   4.723   2.917  15.563  0.1363 -0.3590  0.1313
  382TIP3    H222562   4.630   2.994  15.472  1.6097  0.6862 -0.5491
  383TIP3   OH222563   4.718   4.466   0.170 -0.2960 -0.1104 -0.6226
  383TIP3    H122564   4.774   4.416   0.111  0.8347 -0.8451  1.0186
  383TIP3    H222565   4.639   4.412   0.179 -0.1684 -0.3399 -0.8566
  384TIP3   OH222566   1.863   5.551   1.438  0.1762 -0.2413  0.2443
  384TIP3    H122567   1.829   5.539   1.527 -0.4656  1.9241  0.3473
  384TIP3    H222568   1.796   5.512   1.382 -0.6327  0.5612  0.6262
  385TIP3   OH222569   1.635   1.752  16.084  0.0906  0.4571  0.3960
  385TIP3    H122570   1.562   1.728  16.026  0.7594  0.2394 -0.3766
  385TIP3    H222571   1.707   1.773  16.024  1.2199 -1.0740  1.1371
  386TIP3   OH222572   5.164   0.344  11.502 -1.1801 -0.0729  0.4431
  386TIP3    H122573   5.186   0.425  11.456 -1.3050  1.5435  3.0441
  386TIP3    H222574   5.248   0.309  11.532 -1.2705  0.0732  0.8689
  387TIP3   OH222575   2.886   0.905   4.100  0.3377 -0.1385  0.0134
  387TIP3    H122576   2.977   0.932   4.094  0.4928 -0.6685 -0.0168
  387TIP3    H222577   2.850   0.958   4.172  1.2629 -1.5309  1.5739
  388TIP3   OH222578   6.079   4.405  15.516  0.0953  0.1691 -0.0379
  388TIP3    H122579   6.113   4.490  15.488 -0.7495 -0.2025 -2.3678
  388TIP3    H222580   6.039   4.423  15.601  0.8688  1.8519  0.0210
  389TIP3   OH222581   5.509   5.929   5.613 -0.4461  0.7832  0.0823
  389TIP3    H122582   5.551   5.844   5.597  2.2071  2.0596 -0.3267
  389TIP3    H222583   5.521   5.944   5.706 -1.7520  0.3265  0.3373
  390TIP3   OH222584   1.354   3.732   0.872  0.5989  0.0095 -0.5922
  390TIP3    H122585   1.361   3.646   0.915 -3.2919  0.6576  1.7572
  390TIP3    H222586   1.352   3.711   0.779  2.5089 -2.1326 -0.2467
  391TIP3   OH222587   5.184   5.751   3.934 -0.1202 -0.1647 -0.3544
  391TIP3    H122588   5.163   5.839   3.904 -1.6333 -0.1094  0.7336
  391TIP3    H222589   5.274   5.736   3.904 -0.1572  1.3752 -1.3578
  392TIP3   OH222590   3.846   1.652  13.673  0.0453 -0.4938  1.0343
  392TIP3    H122591   3.781   1.583  13.686 -0.5383 -0.2611 -0.4435
  392TIP3    H222592   3.843   1.670  13.579  0.7562  0.9987  1.2739
  393TIP3   OH222593   1.065   3.450  11.432 -0.2057 -0.0702  0.1976
  393TIP3    H122594   1.149   3.455  11.385  0.9424 -0.9458  2.0433
  393TIP3    H222595   1.058   3.534  11.477 -0.8519  0.4007 -0.7415
  394TIP3   OH222596   0.036   0.606   4.197  0.3100 -0.2644 -0.2248
  394TIP3    H122597  -0.014   0.687   4.212 -0.8322 -1.1012  0.6994
  394TIP3    H222598  -0.018   0.556   4.135 -0.0406 -1.2004  0.8133
  395TIP3   OH222599   1.879   4.898   0.555  0.2339 -0.4713 -0.4738
  395TIP3    H122600   1.890   4.832   0.486 -1.7491 -0.1970 -1.0939
  395TIP3    H222601   1.870   4.981   0.507 -1.4938 -0.3169  0.0588
  396TIP3   OH222602   4.017   1.923   4.020 -0.5623  0.6360  0.4093
  396TIP3    H122603   3.963   1.888   4.092  0.7328  0.3791  1.2985
  396TIP3    H222604   4.075   1.985   4.063 -0.1327  0.8878 -0.5267
  397TIP3   OH222605   0.369   0.967  12.428 -0.0823 -0.4918 -0.0922
  397TIP3    H122606   0.381   0.965  12.333  0.7522  0.0841 -0.0026
  397TIP3    H222607   0.414   1.046  12.457  0.0269 -0.8766  0.8306
  398TIP3   OH222608   1.258   4.188   2.496  0.4547  0.0652 -0.3067
  398TIP3    H122609   1.333   4.230   2.537 -0.0501 -0.1434  0.8808
  398TIP3    H222610   1.183   4.220   2.546 -0.0888 -0.9037 -0.4780
  399TIP3   OH222611   1.455   3.253   1.254  0.4817  0.3129  0.3068
  399TIP3    H122612   1.526   3.198   1.287  0.0721 -0.4370 -0.0423
  399TIP3    H222613   1.416   3.291   1.333  0.1353 -0.6938  0.6345
  400TIP3   OH222614   6.596   2.702  13.452  0.2248  0.2649  0.3575
  400TIP3    H122615   6.634   2.690  13.365  1.6511  0.0086  0.9926
  400TIP3    H222616   6.596   2.797  13.465 -0.7384  0.3603 -0.2213
  401TIP3   OH222617   1.853   1.974   5.499  0.0261 -0.6000  0.3135
  401TIP3    H122618   1.800   2.038   5.451 -1.2357 -1.5674  0.3433
  401TIP3    H222619   1.925   2.025   5.536 -0.4276  0.6265 -0.4244
  402TIP3   OH222620   6.572   1.446  16.287  0.4156 -0.2486  1.1488
  402TIP3    H122621   6.514   1.399  16.347 -1.4621  0.5510  0.0416
  402TIP3    H222622   6.550   1.414  16.200  0.7045  1.0086  0.5794
  403TIP3   OH222623   6.087   6.462   0.112 -0.3486  0.8828 -0.3615
  403TIP3    H122624   6.078   6.391   0.049 -1.2923  0.9635 -0.3196
  403TIP3    H222625   6.020   6.445   0.178  0.6717  0.7549  0.6740
  404TIP3   OH222626   5.864   6.720   4.762 -0.0808  0.2896 -0.7415
  404TIP3    H122627   5.855   6.667   4.841 -1.8160  1.1536 -0.3073
  404TIP3    H222628   5.958   6.731   4.751  0.2046 -0.0997  1.0298
  405TIP3   OH222629   2.138   1.680  15.979  0.6341  0.1832 -0.8591
  405TIP3    H122630   2.125   1.743  16.049  0.7621 -0.4691 -0.2446
  405TIP3    H222631   2.195   1.613  16.016 -0.6304 -1.0498 -1.0166
  406TIP3   OH222632   1.915   6.630  11.693  0.2071  0.5345  0.2779
  406TIP3    H122633   1.856   6.638  11.768 -1.4352 -1.9149 -0.6054
  406TIP3    H222634   1.871   6.678  11.623 -0.5561 -0.8603 -0.2417
  407TIP3   OH222635   6.114   5.400   3.641 -0.0237 -0.2590  0.2660
  407TIP3    H122636   6.095   5.486   3.605  0.7309 -0.4785 -0.7109
  407TIP3    H222637   6.038   5.378   3.693 -0.0548  1.1629  0.8478
  408TIP3   OH222638   3.192   1.025  15.525 -0.2264  0.7214  0.4882
  408TIP3    H122639   3.201   0.935  15.494 -0.4240  0.3816  1.3846
  408TIP3    H222640   3.114   1.058  15.479  0.0631  0.5641 -0.1261
  409TIP3   OH222641   0.982   4.149   3.782 -0.4282  0.7079  0.3386
  409TIP3    H122642   0.999   4.055   3.776 -1.9842  0.3198  1.3638
  409TIP3    H222643   0.889   4.158   3.759 -0.7441  1.7627  1.8412
  410TIP3   OH222644   2.630   4.904  12.252 -0.5609  0.0128 -0.3497
  410TIP3    H122645   2.550   4.929  12.206 -1.9198 -1.7037  0.9297
  410TIP3    H222646   2.654   4.981  12.303  0.8260  1.8774 -3.5120
  411TIP3   OH222647   0.294   0.241   2.543  0.4503 -0.3063 -0.3521
  411TIP3    H122648   0.363   0.215   2.482  1.8982 -0.6910  1.3496
  411TIP3    H222649   0.309   0.334   2.558 -0.0415 -0.1620 -0.7591
  412TIP3   OH222650   1.309   0.056  17.170  0.1283 -0.2941  0.5077
  412TIP3    H122651   1.231   0.045  17.224 -2.5782  0.2121 -2.8877
  412TIP3    H222652   1.304   0.147  17.139  1.9788 -0.3059  0.0309
  413TIP3   OH222653   0.035   6.707  15.131 -0.5725 -0.1373  0.0108
  413TIP3    H122654   0.109   6.739  15.183  0.3808 -1.0814 -0.7034
  413TIP3    H222655  -0.039   6.707  15.192  0.3840 -0.7175  1.2402
  414TIP3   OH222656   4.843   0.852  12.451  0.0779  0.3549 -0.0522
  414TIP3    H122657   4.748   0.844  12.443 -0.2646  0.2786  2.9341
  414TIP3    H222658   4.875   0.762  12.446 -0.0904  0.3039 -0.2189
  415TIP3   OH222659   4.442   4.162   0.785 -0.8277  0.1460  0.0145
  415TIP3    H122660   4.363   4.109   0.775 -1.5453  1.4199 -1.7339
  415TIP3    H222661   4.512   4.099   0.799 -1.9094 -1.1197 -0.0364
  416TIP3   OH222662   4.633   6.714  13.429 -0.2240  0.4190 -0.1911
  416TIP3    H122663   4.579   6.635  13.437  0.2101  0.0708 -0.6502
  416TIP3    H222664   4.618   6.743  13.339 -0.4314  0.8979 -0.0018
  417TIP3   OH222665   4.240   3.263   1.047  0.0682  0.4425 -0.4271
  417TIP3    H122666   4.194   3.217   0.976 -0.6235 -0.3716  0.5223
  417TIP3    H222667   4.268   3.194   1.106  0.2034  1.1409  0.3432
  418TIP3   OH222668   3.079   6.094  12.590  0.8498 -0.2428  0.5185
  418TIP3    H122669   3.074   6.105  12.685  1.4790 -0.2855  0.5584
  418TIP3    H222670   2.988   6.081  12.563  0.3521  2.2771  0.7940
  419TIP3   OH222671   4.805   6.651   0.520 -0.0429 -0.2981 -0.2166
  419TIP3    H122672   4.827   6.715   0.452  0.2430  0.4739  0.5924
  419TIP3    H222673   4.726   6.608   0.486  0.9720 -1.0394 -1.7632
  420TIP3   OH222674   6.483   4.730  14.584 -0.4444 -0.1146 -0.3203
  420TIP3    H122675   6.485   4.687  14.670  0.4770 -0.9952 -0.7663
  420TIP3    H222676   6.561   4.786  14.584 -1.9432  2.1039  0.4893
  421TIP3   OH222677   0.770   0.828  16.915  0.6161 -0.3187 -0.3547
  421TIP3    H122678   0.812   0.902  16.872  1.6595 -1.1037 -0.7261
  421TIP3    H222679   0.800   0.833  17.006 -1.7763  1.4776  0.4248
  422TIP3   OH222680   1.560   5.693   0.160 -0.5567 -0.5777 -0.7783
  422TIP3    H122681   1.466   5.678   0.176 -0.6038 -0.5903 -1.0669
  422TIP3    H222682   1.569   5.691   0.065 -0.3889  0.1900 -0.7855
  423TIP3   OH222683   3.244   3.366  12.048 -0.6299  0.2364  0.3966
  423TIP3    H122684   3.220   3.341  11.959  0.0366 -1.2403  0.6033
  423TIP3    H222685   3.166   3.408  12.084 -0.3709  2.4929 -1.4418
  424TIP3   OH222686   1.749   4.552   1.490  0.5883  0.1348 -0.6767
  424TIP3    H122687   1.686   4.622   1.509 -2.3239 -2.1272 -1.2665
  424TIP3    H222688   1.784   4.574   1.404 -1.8843 -0.0617 -1.8327
  425TIP3   OH222689   4.431   5.671  11.566  0.1295 -0.0445  0.2496
  425TIP3    H122690   4.491   5.620  11.512  0.5041  2.2326 -1.6798
  425TIP3    H222691   4.343   5.642  11.538  0.3324  0.0386 -0.5149
  426TIP3   OH222692   4.931   5.875   3.545 -0.6202  0.2256 -0.1947
  426TIP3    H122693   4.884   5.955   3.568 -0.2672  0.3932 -0.0373
  426TIP3    H222694   4.992   5.902   3.476 -0.9833 -0.0595 -0.6304
  427TIP3   OH222695   0.234   5.979   5.427 -0.1955  0.0035 -0.0704
  427TIP3    H122696   0.225   5.965   5.521  1.5623 -0.7040  0.0337
  427TIP3    H222697   0.241   6.074   5.417 -0.1817  0.0685  0.5272
  428TIP3   OH222698   2.874   6.277   0.007  0.1516 -0.3199  0.0074
  428TIP3    H122699   2.874   6.222   0.085 -1.2057 -1.8466 -1.0074
  428TIP3    H222700   2.919   6.225  -0.059 -1.2319 -0.3036 -0.9994
  429TIP3   OH222701   4.698   2.707   5.384  0.1877 -0.2028 -0.5252
  429TIP3    H122702   4.789   2.735   5.378  0.1359  0.4680  1.2984
  429TIP3    H222703   4.696   2.648   5.459 -0.8808 -0.2298 -0.5580
  430TIP3   OH222704   2.484   1.184  17.115 -0.2296  0.0612  0.1974
  430TIP3    H122705   2.459   1.194  17.023 -1.3538  1.2530  0.5909
  430TIP3    H222706   2.400   1.176  17.162  0.3400 -1.5356  1.0446
  431TIP3   OH222707   3.028   2.609   5.334 -0.8632 -0.2375 -0.5664
  431TIP3    H122708   2.947   2.650   5.303 -0.5594  0.5220 -0.4010
  431TIP3    H222709   3.098   2.655   5.286 -0.5717 -1.8438 -1.7647
  432TIP3   OH222710   3.467   6.097  12.759  1.1140  0.0723 -0.0498
  432TIP3    H122711   3.484   6.015  12.713  1.6842 -0.8583  1.7463
  432TIP3    H222712   3.389   6.133  12.715 -1.4377 -3.2347  1.3302
  433TIP3   OH222713   6.521   3.575  12.267  0.2269 -0.4212  0.1543
  433TIP3    H122714   6.525   3.596  12.174 -0.9548 -0.8747 -0.0220
  433TIP3    H222715   6.486   3.654  12.308 -0.5000 -0.6724  0.0272
  434TIP3   OH222716   1.287   5.249  16.567 -0.2645  0.0929 -0.2396
  434TIP3    H122717   1.228   5.324  16.565  2.1286  2.1274 -1.4687
  434TIP3    H222718   1.332   5.257  16.651  2.1229  1.9926 -1.5655
  435TIP3   OH222719   0.489   2.551   4.164 -0.3802  0.3686  0.2821
  435TIP3    H122720   0.493   2.559   4.260 -0.2839 -1.3902  0.4545
  435TIP3    H222721   0.547   2.620   4.132 -0.2625  0.8646  1.4958
  436TIP3   OH222722   2.955   6.655   5.372  0.4843 -0.2614  0.8181
  436TIP3    H122723   2.867   6.622   5.355  0.1702 -0.3459  2.4219
  436TIP3    H222724   2.985   6.689   5.288 -0.3974 -1.7905 -0.1611
  437TIP3   OH222725   3.863   5.857  12.786 -0.9236  0.1252  0.3572
  437TIP3    H122726   3.773   5.876  12.812 -0.7399 -0.6940  1.6970
  437TIP3    H222727   3.916   5.920  12.836 -0.7435  0.5755 -0.3898
  438TIP3   OH222728   1.216   0.031  12.558  0.2177  0.0692  0.2986
  438TIP3    H122729   1.179   0.117  12.578  1.3411  1.3012 -2.4740
  438TIP3    H222730   1.142  -0.019  12.523 -0.0396  0.5517  0.1387
  439TIP3   OH222731   2.661   4.096  11.973 -0.0007  0.5816  0.5730
  439TIP3    H122732   2.636   4.101  11.881 -0.2186 -0.6692  0.5470
  439TIP3    H222733   2.736   4.155  11.980 -0.8965  1.8517 -0.0643
  440TIP3   OH222734   2.465   5.411  13.393 -0.5598 -0.0219  0.0263
  440TIP3    H122735   2.468   5.498  13.433 -2.5773  0.3465 -0.5168
  440TIP3    H222736   2.499   5.352  13.461 -0.6510  0.9973  0.9794
  441TIP3   OH222737   1.688   5.718   4.693 -0.2075 -0.3741  0.1141
  441TIP3    H122738   1.715   5.810   4.694  1.2215 -0.7551  2.0565
  441TIP3    H222739   1.596   5.719   4.720 -0.1299  0.4654  0.3644
  442TIP3   OH222740   1.270   4.249   0.319  0.7138 -0.1851  0.1260
  442TIP3    H122741   1.338   4.253   0.386  0.3730  0.6367  0.4254
  442TIP3    H222742   1.263   4.338   0.286 -0.2741 -0.2503  0.1485
  443TIP3   OH222743   4.692   4.854  15.611 -0.3111  0.3543  0.4212
  443TIP3    H122744   4.661   4.778  15.562  0.3597  1.5497 -1.9748
  443TIP3    H222745   4.621   4.918  15.604  0.0735  0.7896  0.4263
  444TIP3   OH222746   3.866   3.943   4.804 -0.1094  0.0862 -0.2520
  444TIP3    H122747   3.944   3.929   4.751 -0.5972  0.5962 -1.1350
  444TIP3    H222748   3.862   3.866   4.862  0.8937 -0.0652 -0.3641
  445TIP3   OH222749   4.816   2.157   3.201 -0.6783 -0.0836 -0.5550
  445TIP3    H122750   4.721   2.148   3.212 -0.9304  1.3814 -1.3127
  445TIP3    H222751   4.830   2.250   3.184  0.7413 -0.5176 -2.0128
  446TIP3   OH222752   3.199   1.139   5.564  0.2993 -0.1773  0.5690
  446TIP3    H122753   3.251   1.206   5.520  1.5047 -0.3703  1.6340
  446TIP3    H222754   3.111   1.147   5.526  0.9523  0.5553 -0.8477
  447TIP3   OH222755   5.874   5.619   4.385 -0.0978  0.1831  0.3695
  447TIP3    H122756   5.905   5.624   4.294  0.0194 -1.1552  0.3095
  447TIP3    H222757   5.780   5.637   4.379 -0.1901 -0.4122 -0.0982
  448TIP3   OH222758   4.763   2.329  12.755 -0.2297  0.3224 -0.1676
  448TIP3    H122759   4.690   2.287  12.801  1.2283 -1.9391  0.2567
  448TIP3    H222760   4.722   2.389  12.693 -2.3877  0.0582  0.9294
  449TIP3   OH222761   2.090   4.906   1.746  0.2558  0.0062  0.3312
  449TIP3    H122762   2.159   4.930   1.685 -0.1339  1.9618  0.5820
  449TIP3    H222763   2.121   4.826   1.788  1.3301 -0.3838 -1.1339
  450TIP3   OH222764   1.032   6.376  15.925  0.0166 -0.5880 -0.0042
  450TIP3    H122765   0.942   6.358  15.951 -0.6595  0.7620 -1.2496
  450TIP3    H222766   1.065   6.437  15.991  0.4471 -1.9964  1.1173
  451TIP3   OH222767   6.701   6.222   0.158 -0.2434 -0.3188  0.1288
  451TIP3    H122768   6.729   6.208   0.068  0.7700  0.6865  0.2613
  451TIP3    H222769   6.770   6.180   0.211 -0.5044 -0.3662  0.4357
  452TIP3   OH222770   6.099   0.516   4.329  0.1242  0.2664  0.2288
  452TIP3    H122771   6.114   0.521   4.423 -0.3864  1.7126  0.2540
  452TIP3    H222772   6.014   0.557   4.316  0.9521  1.6710 -1.0361
  453TIP3   OH222773   0.528   4.283   5.592 -0.5915 -0.2934 -0.5823
  453TIP3    H122774   0.517   4.258   5.684 -0.2095  2.3228  0.2695
  453TIP3    H222775   0.601   4.346   5.593  0.3542 -1.2439 -2.9058
  454TIP3   OH222776   2.925   0.819   5.249  0.2894 -0.2251 -0.0957
  454TIP3    H122777   2.950   0.730   5.225 -1.9707 -1.5548  1.9916
  454TIP3    H222778   2.992   0.847   5.312 -0.4172 -1.6072  1.3423
  455TIP3   OH222779   5.579   2.429   5.953  0.4172 -0.3167 -0.0458
  455TIP3    H122780   5.528   2.417   6.033 -1.7033  0.4001 -1.2308
  455TIP3    H222781   5.635   2.505   5.972 -0.8037  0.4993  0.4353
  456TIP3   OH222782   3.121   5.462  13.953  0.1988  0.3264  0.7962
  456TIP3    H122783   3.137   5.556  13.961  1.6683  0.3284 -1.3266
  456TIP3    H222784   3.041   5.455  13.902  0.8084  0.4530 -0.1893
  457TIP3   OH222785   4.922   5.538   5.377  0.1689 -0.0624  0.4397
  457TIP3    H122786   4.995   5.600   5.368  0.4126 -0.4493 -0.3592
  457TIP3    H222787   4.960   5.454   5.353 -0.2985 -0.4354  0.9957
  458TIP3   OH222788   0.351   4.480   0.597  0.8255 -0.1502 -0.2566
  458TIP3    H122789   0.362   4.574   0.579  0.1603 -0.0805 -0.3080
  458TIP3    H222790   0.293   4.477   0.672  0.6531 -0.5297 -0.4054
  459TIP3   OH222791   5.290   5.941  15.821 -0.2132  0.5638  0.4727
  459TIP3    H122792   5.300   5.886  15.898 -1.8568  0.3541  0.5786
  459TIP3    H222793   5.352   6.013  15.834 -0.3712  0.4604  1.9331
  460TIP3   OH222794   4.654   0.484  12.224  0.2450 -0.3210 -0.0662
  460TIP3    H122795   4.650   0.437  12.141 -1.1832 -0.7339  0.2019
  460TIP3    H222796   4.564   0.513  12.239  0.6019  0.2582  1.0445
  461TIP3   OH222797   2.430   2.379  16.161 -1.0527  0.5370 -0.0782
  461TIP3    H122798   2.473   2.416  16.239 -0.3370  2.2905 -1.2377
  461TIP3    H222799   2.490   2.399  16.089 -0.4953 -3.1655 -0.8491
  462TIP3   OH222800   5.114   0.889  13.306  0.0358 -0.1920  0.1110
  462TIP3    H122801   5.204   0.903  13.336  0.1370  1.1731 -0.7443
  462TIP3    H222802   5.069   0.855  13.383  1.6043 -2.4332  0.1541
  463TIP3   OH222803   6.641   1.285  12.894  0.1301  0.0252  0.4427
  463TIP3    H122804   6.588   1.296  12.815  0.3209  1.2796  0.4718
  463TIP3    H222805   6.609   1.203  12.933  0.2679 -0.7831 -1.0920
  464TIP3   OH222806   2.040   1.337  16.242  0.1889 -0.9982  0.3928
  464TIP3    H122807   1.963   1.281  16.251  1.3404 -2.5380  1.1192
  464TIP3    H222808   2.035   1.370  16.152 -0.3238 -2.6057 -0.2064
  465TIP3   OH222809   4.344   2.592  14.092 -0.2560  0.3674 -0.0431
  465TIP3    H122810   4.267   2.550  14.054  1.1861 -1.9463 -0.5787
  465TIP3    H222811   4.309   2.663  14.146 -2.6258  0.6416 -1.8205
  466TIP3   OH222812   2.446   2.771  15.447  0.8337  0.0180 -0.0631
  466TIP3    H122813   2.534   2.774  15.484  1.0020 -0.1515 -0.4366
  466TIP3    H222814   2.459   2.788  15.353  0.4793 -0.0922 -0.1337
  467TIP3   OH222815   0.242   6.365  11.216 -0.1406  0.0521  0.0651
  467TIP3    H122816   0.298   6.394  11.143  0.0453 -2.3160 -0.8249
  467TIP3    H222817   0.153   6.381  11.185 -0.0592 -0.8099 -0.6739
  468TIP3   OH222818   0.495   4.702  17.266  0.3603 -0.0539 -0.0721
  468TIP3    H122819   0.584   4.695  17.299 -0.4309  0.6934  2.4646
  468TIP3    H222820   0.493   4.784  17.217  0.7725  0.5588  0.9201
  469TIP3   OH222821   5.905   0.927  16.560  0.1738 -0.2012  0.8214
  469TIP3    H122822   5.970   0.883  16.506 -0.3437 -0.0250  0.0360
  469TIP3    H222823   5.901   1.016  16.525  0.7279  0.2960  1.9571
  470TIP3   OH222824   6.217   3.872  12.979  0.8053  0.3143 -0.0416
  470TIP3    H122825   6.278   3.848  12.909 -1.1762 -0.8807 -1.4465
  470TIP3    H222826   6.132   3.841  12.948 -0.3634  0.9845  2.3182
  471TIP3   OH222827   6.272   6.656  17.157  0.2728 -0.2122 -0.0876
  471TIP3    H122828   6.309   6.672  17.245  2.1124 -0.9590 -0.6713
  471TIP3    H222829   6.224   6.736  17.137 -0.7300 -0.2703  1.8495
  472TIP3   OH222830   6.018   0.051  11.954 -0.3885 -0.2627 -0.1490
  472TIP3    H122831   6.104   0.055  11.997 -0.7318 -0.1839  0.5384
  472TIP3    H222832   6.006  -0.043  11.936  0.0225 -0.2292 -0.6359
  473TIP3   OH222833   0.850   3.414  11.860 -0.5473 -0.4129  0.0574
  473TIP3    H122834   0.839   3.405  11.955  1.2452 -2.6942  0.1479
  473TIP3    H222835   0.780   3.361  11.822  0.6414 -2.1902  0.2411
  474TIP3   OH222836   5.514   5.265  11.079 -0.4401  0.2052  0.0231
  474TIP3    H122837   5.563   5.284  10.999  1.1143 -0.0450  0.8884
  474TIP3    H222838   5.431   5.311  11.067 -0.2261  0.2175 -1.7042
  475TIP3   OH222839   5.273   3.429  13.588 -0.0024  0.3834  0.1612
  475TIP3    H122840   5.307   3.490  13.654 -0.0993 -1.9051  2.4717
  475TIP3    H222841   5.180   3.423  13.607  0.1067 -0.8942  0.3590
  476TIP3   OH222842   0.968   0.807   1.180 -0.0868  0.1886  0.1059
  476TIP3    H122843   0.914   0.809   1.259 -1.1524 -0.1070 -0.5861
  476TIP3    H222844   1.045   0.860   1.202  0.5598 -1.4118  1.9741
  477TIP3   OH222845   0.814   0.864  12.672  0.0090  0.3565 -0.2957
  477TIP3    H122846   0.784   0.794  12.729  0.7498 -0.3386 -0.7458
  477TIP3    H222847   0.816   0.941  12.729  1.2926 -0.4372  0.7974
  478TIP3   OH222848   6.411   0.813  11.020  0.1013  0.3836 -0.2416
  478TIP3    H122849   6.334   0.756  11.022 -1.7122  2.6897  1.8901
  478TIP3    H222850   6.451   0.801  11.106  0.4588  1.3332 -0.2732
  479TIP3   OH222851   2.695   0.102   1.051  0.3967  0.2762 -0.3784
  479TIP3    H122852   2.623   0.056   1.007  0.0441  0.0605  0.3944
  479TIP3    H222853   2.656   0.183   1.082 -0.2600 -0.9444  2.2764
  480TIP3   OH222854   0.856   3.514   2.719 -0.3703  0.3147 -0.3301
  480TIP3    H122855   0.768   3.516   2.683 -0.0845 -0.0772 -1.0637
  480TIP3    H222856   0.845   3.472   2.805 -0.9549  0.6480 -0.2386
  481TIP3   OH222857   0.888   4.486   5.823  0.1392  0.1381 -0.7819
  481TIP3    H122858   0.983   4.489   5.819  0.1579 -0.5945 -1.1416
  481TIP3    H222859   0.866   4.509   5.913  0.7770 -1.7161 -0.0889
  482TIP3   OH222860   0.897   4.556  12.286  0.1273 -0.2670 -0.7786
  482TIP3    H122861   0.935   4.470  12.271  1.2902 -0.1030  0.8538
  482TIP3    H222862   0.907   4.570  12.380  0.2206  1.7697 -1.0486
  483TIP3   OH222863   2.583   3.139  12.204  0.1548  0.3974 -0.2009
  483TIP3    H122864   2.664   3.188  12.216 -0.4725  1.6271 -0.8332
  483TIP3    H222865   2.565   3.143  12.110 -1.1067  0.9512  0.0326
  484TIP3   OH222866   0.521   3.305  15.467 -0.0761 -0.4129  0.0730
  484TIP3    H122867   0.435   3.276  15.435 -0.0523 -1.6283  1.0485
  484TIP3    H222868   0.561   3.227  15.504  1.0305  0.3607  0.5735
  485TIP3   OH222869   6.149   2.272   2.655  0.3941 -0.6810 -0.3100
  485TIP3    H122870   6.197   2.212   2.597 -0.8016 -0.0574 -2.0115
  485TIP3    H222871   6.059   2.271   2.622 -0.1853  0.1918  1.1624
  486TIP3   OH222872   3.797   0.453  16.267  0.1484 -0.1976 -0.0758
  486TIP3    H122873   3.762   0.464  16.355  0.3724 -0.4571  0.0488
  486TIP3    H222874   3.890   0.475  16.275  0.0666  0.2743 -0.3567
  487TIP3   OH222875   2.205   3.403   2.356  0.0837  0.0702  0.5188
  487TIP3    H122876   2.250   3.341   2.299 -0.6673  1.2935 -1.5263
  487TIP3    H222877   2.238   3.489   2.329  1.4660  0.6589  3.5872
  488TIP3   OH222878   2.612   1.652   1.089  0.5707 -0.0166 -0.1758
  488TIP3    H122879   2.650   1.714   1.150 -0.9973 -0.6579  1.5423
  488TIP3    H222880   2.548   1.703   1.039  0.1063  0.0072  0.4368
  489TIP3   OH222881   3.242   6.057   2.429  0.1163 -0.2661 -0.4003
  489TIP3    H122882   3.279   6.048   2.341 -1.5072  0.3264 -1.2008
  489TIP3    H222883   3.148   6.068   2.414 -0.3835 -1.4176  1.4959
  490TIP3   OH222884   0.451   4.903   2.509  0.3751  0.2591 -0.4853
  490TIP3    H122885   0.361   4.921   2.482  0.7427 -0.2307 -2.1474
  490TIP3    H222886   0.443   4.839   2.579 -0.5183 -2.0896 -2.6000
  491TIP3   OH222887   2.021   5.445   6.839  0.4090  0.2138  0.3559
  491TIP3    H122888   1.933   5.415   6.861  0.4250 -0.8156 -0.8748
  491TIP3    H222889   2.080   5.384   6.884  0.4711 -0.1695 -0.2425
  492TIP3   OH222890   5.283   0.838  16.088  0.1451 -0.3720 -0.8399
  492TIP3    H122891   5.196   0.801  16.095 -0.2073  0.5476 -0.2355
  492TIP3    H222892   5.321   0.795  16.011 -0.5039 -1.4232 -0.5936
  493TIP3   OH222893   2.999   5.915  16.299 -0.2824 -0.0321 -0.0223
  493TIP3    H122894   3.057   5.854  16.345 -0.8282 -1.9724 -1.7326
  493TIP3    H222895   2.939   5.946  16.366  0.3049 -1.0414  1.0092
  494TIP3   OH222896   5.645   1.161  14.345 -0.2898  0.0027  0.2729
  494TIP3    H122897   5.558   1.200  14.332 -0.0330  0.4140 -0.2509
  494TIP3    H222898   5.640   1.118  14.431 -1.4454 -1.1560 -0.3398
  495TIP3   OH222899   4.789   3.562   4.042  0.0693  0.0914  0.1300
  495TIP3    H122900   4.727   3.492   4.062 -0.2128  0.5415  0.8619
  495TIP3    H222901   4.798   3.610   4.124 -0.4207  1.4272 -0.5720
  496TIP3   OH222902   4.543   3.579  14.195  0.1290 -0.1864 -0.2799
  496TIP3    H122903   4.621   3.590  14.140  1.2280  0.7800  1.3744
  496TIP3    H222904   4.525   3.666  14.229  0.4350 -0.9481  2.0605
  497TIP3   OH222905   5.791   1.282  14.949  0.1094  0.2218  0.1988
  497TIP3    H122906   5.731   1.217  14.915  0.4081 -0.6242  1.2181
  497TIP3    H222907   5.741   1.363  14.951 -0.6006 -0.2050 -0.1269
  498TIP3   OH222908   5.004   4.104  12.535 -0.0883 -0.6755 -0.4505
  498TIP3    H122909   4.962   4.093  12.620  1.8920  0.3908  0.7463
  498TIP3    H222910   4.976   4.191  12.506  0.7815 -0.1983  0.0874
  499TIP3   OH222911   6.458   5.619   5.922  0.5943 -0.1325  0.0654
  499TIP3    H122912   6.386   5.570   5.960  2.5832 -0.7809  3.3309
  499TIP3    H222913   6.475   5.690   5.984  2.7059  0.0300 -0.5889
  500TIP3   OH222914   6.254   2.603  10.549  0.7820  0.0523  0.2122
  500TIP3    H122915   6.276   2.511  10.564 -2.5594 -0.8583  0.4632
  500TIP3    H222916   6.264   2.615  10.455  1.8116 -0.3628  0.2535
  501TIP3   OH222917   1.617   4.902  14.412 -0.5793 -0.8868 -0.4322
  501TIP3    H122918   1.629   4.961  14.486  0.4155 -1.5151 -0.0682
  501TIP3    H222919   1.604   4.816  14.451  0.6825 -1.3557 -0.9626
  502TIP3   OH222920   4.415   3.420  14.698 -0.2622  0.8114  0.2529
  502TIP3    H122921   4.401   3.477  14.623 -0.3845  0.6366  0.1419
  502TIP3    H222922   4.427   3.333  14.660 -1.4799  0.5263  0.4933
  503TIP3   OH222923   0.552   5.282   2.635 -0.0185  0.0921  0.1003
  503TIP3    H122924   0.491   5.263   2.564  0.6313 -1.4153 -0.0921
  503TIP3    H222925   0.513   5.241   2.712  0.9119 -1.2478 -0.1075
  504TIP3   OH222926   4.988   5.434  11.164  0.4288  0.4083 -0.9598
  504TIP3    H122927   4.936   5.512  11.142 -1.2663 -0.4426 -0.2123
  504TIP3    H222928   4.951   5.364  11.110 -0.2861 -0.5427  0.6596
  505TIP3   OH222929   3.616   5.703   5.771  1.0385 -0.5728 -0.3509
  505TIP3    H122930   3.665   5.623   5.789  1.4264 -0.9587 -2.7924
  505TIP3    H222931   3.561   5.715   5.849  1.4942 -2.7924  0.3908
  506TIP3   OH222932   1.014   1.166   3.429 -0.0635  0.3114 -0.1051
  506TIP3    H122933   1.078   1.095   3.435 -0.5752 -0.1232  0.2214
  506TIP3    H222934   1.065   1.241   3.397  0.6207 -0.0157  0.1956
  507TIP3   OH222935   2.790   0.990   6.440 -0.7795 -0.8055  0.4737
  507TIP3    H122936   2.777   0.945   6.356  1.0099  0.1724 -0.3794
  507TIP3    H222937   2.884   1.005   6.445 -0.9715  0.0085  2.2253
  508TIP3   OH222938   1.036   1.013  15.485  0.6358  0.5772  0.4811
  508TIP3    H122939   1.035   0.987  15.393  2.5255  1.5159  0.1361
  508TIP3    H222940   1.087   0.945  15.529 -0.8540 -0.2486  1.0155
  509TIP3   OH222941   5.082   3.667   2.407  0.5167 -0.1894 -0.3879
  509TIP3    H122942   4.988   3.671   2.391  0.0040 -0.3061  2.1988
  509TIP3    H222943   5.103   3.574   2.406  0.5070 -0.1910 -0.4487
  510TIP3   OH222944   1.356   3.613  13.444  0.2504  0.3311 -0.6556
  510TIP3    H122945   1.445   3.647  13.434  0.4999 -0.0390  0.2318
  510TIP3    H222946   1.361   3.554  13.519 -1.2149  1.9630  0.8168
  511TIP3   OH222947   4.846   5.028  15.759 -0.0400 -0.2633 -0.0833
  511TIP3    H122948   4.917   4.988  15.808  0.2310 -0.2816 -0.4828
  511TIP3    H222949   4.826   4.965  15.689 -0.6390 -0.3864  0.1918
  512TIP3   OH222950   5.075   5.669   6.774 -0.0506 -0.4468  0.2190
  512TIP3    H122951   5.072   5.590   6.720  1.0152 -1.8749  2.1434
  512TIP3    H222952   5.134   5.728   6.727  0.8042 -1.6283 -0.2188
  513TIP3   OH222953   3.807   3.244   5.360 -0.1466 -0.1295  0.6030
  513TIP3    H122954   3.863   3.249   5.283 -1.0023 -0.8292 -0.0807
  513TIP3    H222955   3.812   3.332   5.398  1.1873 -0.1009  0.4206
  514TIP3   OH222956   0.117   6.026  12.028  0.3371  0.2853 -0.1351
  514TIP3    H122957   0.082   5.965  12.093  0.1699  0.9412  0.3931
  514TIP3    H222958   0.192   5.980  11.989 -0.9327 -1.0745 -1.1285
  515TIP3   OH222959   1.974   2.272  14.629  0.3433 -0.0445 -0.0765
  515TIP3    H122960   1.985   2.328  14.553  1.1113  0.5180  0.4350
  515TIP3    H222961   2.063   2.254  14.659  0.0375  0.1591  0.9884
  516TIP3   OH222962   6.504   5.988   4.936 -0.3128  0.5108 -0.7657
  516TIP3    H122963   6.461   5.903   4.938  0.5025  0.1017  0.0932
  516TIP3    H222964   6.554   5.988   4.854 -1.4834  0.7806 -1.5075
  517TIP3   OH222965   6.057   4.627   4.659  0.1986  0.2045 -0.0561
  517TIP3    H122966   6.038   4.568   4.585 -0.8297  0.1747  0.2221
  517TIP3    H222967   6.055   4.570   4.736  1.7385  0.1446 -0.0166
  518TIP3   OH222968   2.134   2.596   2.633 -0.1476 -0.1384  0.4925
  518TIP3    H122969   2.203   2.600   2.567 -0.5631 -1.0170 -0.0175
  518TIP3    H222970   2.173   2.549   2.706  0.0418  0.0732  0.5287
  519TIP3   OH222971   3.078   0.696  11.760 -0.3341  0.4841 -0.2303
  519TIP3    H122972   3.040   0.734  11.840 -1.9656 -1.2696 -0.1093
  519TIP3    H222973   3.159   0.745  11.747 -0.9492  2.0752  1.4492
  520TIP3   OH222974   4.066   6.683   3.612  0.2723 -0.0499  0.1725
  520TIP3    H122975   4.052   6.595   3.647 -0.0219  0.1775  0.6423
  520TIP3    H222976   3.980   6.709   3.578  0.5547 -0.2680 -0.7315
  521TIP3   OH222977   3.384   3.669  12.090 -0.6612  0.3770  0.1649
  521TIP3    H122978   3.308   3.683  12.034  0.6384 -0.5967 -1.9600
  521TIP3    H222979   3.402   3.755  12.129 -1.0932  1.3095 -1.6119
  522TIP3   OH222980   5.585   0.037  11.227 -0.1234 -0.0301 -0.1265
  522TIP3    H122981   5.516   0.071  11.285 -0.7488  0.4898 -1.1571
  522TIP3    H222982   5.621   0.115  11.185 -2.1067 -0.5599 -3.1232
  523TIP3   OH222983   0.089   4.464   1.770  0.3929 -0.2745 -0.1469
  523TIP3    H122984   0.120   4.401   1.705 -0.8258  0.6572 -1.6989
  523TIP3    H222985   0.005   4.427   1.800  0.3208 -0.0511 -0.0733
  524TIP3   OH222986   5.165   5.186   0.436  0.2075  0.1619 -0.1756
  524TIP3    H122987   5.077   5.223   0.437 -0.0953 -0.4765  2.2244
  524TIP3    H222988   5.222   5.260   0.417 -0.7898  0.6320 -1.4858
  525TIP3   OH222989   6.481   5.172   0.597 -0.2500  0.1406 -0.0588
  525TIP3    H122990   6.443   5.138   0.678 -0.5537  0.9720  0.1567
  525TIP3    H222991   6.452   5.111   0.530 -1.4418  0.3892  0.2037
  526TIP3   OH222992   0.902   0.399   3.788  0.3693 -0.1128 -0.3837
  526TIP3    H122993   0.967   0.448   3.738 -0.5186  0.1288 -1.3336
  526TIP3    H222994   0.934   0.309   3.789  0.1909 -0.2072 -1.7792
  527TIP3   OH222995   1.399   2.847   6.056 -0.3279 -0.1759 -0.7028
  527TIP3    H122996   1.374   2.778   6.116 -1.0184 -0.9919 -1.8787
  527TIP3    H222997   1.491   2.865   6.076 -0.7966  0.3087  1.2494
  528TIP3   OH222998   0.681   2.716  10.610  0.2826  0.1424  0.2232
  528TIP3    H122999   0.748   2.748  10.550 -0.5892  1.4721 -0.0789
  528TIP3    H223000   0.717   2.634  10.645  1.8753  0.6274 -0.2198
  529TIP3   OH223001   0.648   0.046   1.527  0.6165  0.4595  0.4346
  529TIP3    H123002   0.700  -0.016   1.475  1.8495  1.6949  0.1296
  529TIP3    H223003   0.696   0.129   1.520 -2.2661  2.1401 -1.1977
  530TIP3   OH223004   5.254   0.671   0.934 -0.3033  0.1111  0.4957
  530TIP3    H123005   5.267   0.582   0.969  1.4105 -0.2460 -0.9071
  530TIP3    H223006   5.205   0.658   0.853 -3.2651  0.8329  2.0587
  531TIP3   OH223007   5.209   5.245  14.595 -0.2023  0.1538 -0.2801
  531TIP3    H123008   5.190   5.189  14.671  1.8186  1.2271  1.1033
  531TIP3    H223009   5.207   5.334  14.629 -0.4517  0.7604 -1.7923
  532TIP3   OH223010   1.828   1.689   6.274  0.2010  0.2110 -0.5852
  532TIP3    H123011   1.818   1.756   6.342 -0.6677 -0.0533 -0.4444
  532TIP3    H223012   1.923   1.678   6.266  0.3935  1.8785 -1.0287
  533TIP3   OH223013   3.831   4.944  12.244 -0.0409  0.5528  0.3987
  533TIP3    H123014   3.925   4.954  12.232 -0.0403  0.9745  0.7163
  533TIP3    H223015   3.811   4.998  12.321 -0.6599  1.1266 -0.1474
  534TIP3   OH223016   0.578   6.159  11.436 -0.1997  0.2588 -0.2816
  534TIP3    H123017   0.558   6.067  11.420  1.1592 -0.4525  1.6389
  534TIP3    H223018   0.661   6.173  11.391 -0.5958  0.6784 -0.8951
  535TIP3   OH223019   0.139   5.586  15.747  0.0952  0.4367 -0.5545
  535TIP3    H123020   0.171   5.664  15.701 -0.2567  0.8660 -0.0914
  535TIP3    H223021   0.047   5.606  15.766  0.3824  0.5208  0.8288
  536TIP3   OH223022   5.441   4.205   3.380  0.5805 -0.9057 -0.0010
  536TIP3    H123023   5.377   4.253   3.433 -1.4881 -1.4953 -1.8500
  536TIP3    H223024   5.413   4.114   3.385  0.6523 -1.0415 -1.6677
  537TIP3   OH223025   0.873   0.438   1.347 -0.7060  0.2032 -0.7204
  537TIP3    H123026   0.838   0.401   1.266 -1.8782 -0.6940  0.1588
  537TIP3    H223027   0.813   0.409   1.415  0.3914  0.7216  0.5270
  538TIP3   OH223028   4.524   6.067  15.856  0.5900  0.6409  0.8852
  538TIP3    H123029   4.548   5.979  15.827 -0.9237  0.0975  1.1796
  538TIP3    H223030   4.430   6.074  15.836  0.6553  2.1269  1.0121
  539TIP3   OH223031   5.602   6.147  14.407 -0.1840 -0.5895  0.0334
  539TIP3    H123032   5.681   6.196  14.384 -0.6394 -0.6669 -1.8461
  539TIP3    H223033   5.627   6.055  14.393 -0.5455 -0.6231 -0.4131
  540TIP3   OH223034   1.402   5.744   2.791  0.9243 -0.3187 -0.0640
  540TIP3    H123035   1.353   5.662   2.791  0.4490 -0.0435  0.5151
  540TIP3    H223036   1.440   5.749   2.879  0.3656  0.4090  0.1522
  541TIP3   OH223037   2.238   5.556   4.348 -0.1009 -0.1671 -0.4057
  541TIP3    H123038   2.315   5.607   4.324  1.3209 -2.0555 -0.1262
  541TIP3    H223039   2.228   5.570   4.442  0.1554 -0.2416 -0.3679
  542TIP3   OH223040   2.819   3.767   3.222  0.1335 -0.0838  0.0110
  542TIP3    H123041   2.837   3.679   3.190 -1.1463  0.2836 -1.8638
  542TIP3    H223042   2.771   3.754   3.303  1.6475 -1.0650  0.7971
  543TIP3   OH223043   4.216   4.463  13.419 -0.4130 -0.3003  0.1907
  543TIP3    H123044   4.251   4.552  13.413  0.0191 -0.3560  1.4659
  543TIP3    H223045   4.213   4.445  13.513 -1.0336 -1.4284 -0.0252
  544TIP3   OH223046   6.162   6.731   2.978 -0.2528  0.2111 -0.2137
  544TIP3    H123047   6.116   6.648   2.988 -0.3604  0.2322 -0.5181
  544TIP3    H223048   6.214   6.721   2.897  2.5640 -0.8708  1.5805
  545TIP3   OH223049   0.030   2.296  11.143  0.1455 -0.1325 -0.5495
  545TIP3    H123050   0.080   2.302  11.225 -1.6279  2.0015  0.4848
  545TIP3    H223051  -0.015   2.212  11.149  2.5905 -1.5551 -0.9670
  546TIP3   OH223052   0.530   2.086  13.750  0.4721 -0.0881  0.1938
  546TIP3    H123053   0.506   2.107  13.660 -0.0535  1.6337  0.6936
  546TIP3    H223054   0.551   2.171  13.790  1.2075 -0.8708  1.5541
  547TIP3   OH223055   2.524   6.093   5.723  0.6591 -0.0952 -0.2110
  547TIP3    H123056   2.546   6.000   5.719  2.3968  0.1699  1.5480
  547TIP3    H223057   2.568   6.132   5.648  0.1989 -0.6154 -0.7659
  548TIP3   OH223058   0.834   1.480  17.015  0.3321 -0.0687  0.2307
  548TIP3    H123059   0.750   1.468  17.059 -0.4958 -1.6380 -1.6209
  548TIP3    H223060   0.870   1.391  17.007  0.9630  0.2807 -1.1783
  549TIP3   OH223061   5.786   0.609  17.273 -0.5218 -0.0066 -0.4157
  549TIP3    H123062   5.759   0.559  17.349 -0.2719  0.6217  0.0983
  549TIP3    H223063   5.706   0.618  17.220 -0.3971 -1.5751 -0.8971
  550TIP3   OH223064   1.240   2.078   2.210  0.5808  0.1178 -0.1953
  550TIP3    H123065   1.266   2.061   2.300  1.3783  0.3469 -0.3774
  550TIP3    H223066   1.276   2.004   2.160 -3.3782 -2.3922  0.1746
  551TIP3   OH223067   5.766   2.310   1.772  0.1463 -0.2485  0.1108
  551TIP3    H123068   5.748   2.349   1.858 -1.1180 -0.8598  0.1518
  551TIP3    H223069   5.763   2.383   1.711  0.5139  0.1106  0.5206
  552TIP3   OH223070   1.705   6.366   0.200  0.2705 -0.0332 -0.8706
  552TIP3    H123071   1.774   6.300   0.199 -0.1834 -0.5103 -1.9908
  552TIP3    H223072   1.730   6.426   0.270  1.0036 -1.0596 -0.2288
  553TIP3   OH223073   2.504   1.936  12.678  0.6098  0.5855  0.2167
  553TIP3    H123074   2.467   1.879  12.610  0.5912  0.1466  0.5887
  553TIP3    H223075   2.525   2.017  12.632  0.0420  0.5091 -0.1900
  554TIP3   OH223076   5.630   5.550  17.171 -0.6818  0.0186  0.2233
  554TIP3    H123077   5.692   5.584  17.106  1.4698 -1.3184  1.4298
  554TIP3    H223078   5.590   5.474  17.128 -1.5428  0.8870 -0.5625
  555TIP3   OH223079   2.477   2.477   0.228  0.6310 -0.1407 -0.4965
  555TIP3    H123080   2.497   2.466   0.321  1.2815  1.5553 -0.4063
  555TIP3    H223081   2.382   2.488   0.225  0.4838 -1.2162 -0.1608
  556TIP3   OH223082   5.773   4.953   5.901 -0.2650  0.0139 -0.0689
  556TIP3    H123083   5.728   5.028   5.938 -0.3130  0.8229 -1.6810
  556TIP3    H223084   5.809   4.907   5.977 -0.9534  1.1788  1.0086
  557TIP3   OH223085   2.154   4.485  15.381 -0.2726  0.0444 -0.0199
  557TIP3    H123086   2.245   4.502  15.356 -0.0551  0.6395  1.1021
  557TIP3    H223087   2.143   4.391  15.370  1.0985 -0.3808  1.6706
  558TIP3   OH223088   6.448   3.998   3.198  0.3042  0.4993  0.1049
  558TIP3    H123089   6.396   4.021   3.276 -0.8954 -0.4615 -0.3736
  558TIP3    H223090   6.500   4.076   3.180  0.6576  0.7237  1.9030
  559TIP3   OH223091   1.247   1.157  12.245 -0.1807  0.2710  0.0112
  559TIP3    H123092   1.339   1.133  12.246 -0.3637 -0.5812  1.9627
  559TIP3    H223093   1.200   1.074  12.256 -1.1643  0.7501 -0.4223
  560TIP3   OH223094   4.499   0.543   5.488 -0.1514 -0.0956 -0.1567
  560TIP3    H123095   4.544   0.605   5.431 -1.0151 -0.0776 -0.8660
  560TIP3    H223096   4.508   0.459   5.443 -2.0112  0.1402 -1.1140
  561TIP3   OH223097   2.257   6.027  16.993  0.5280  0.2544  0.4557
  561TIP3    H123098   2.325   5.991  16.935  0.6330  1.3084 -0.0911
  561TIP3    H223099   2.197   5.953  17.007  0.5163 -0.0388 -0.9790
  562TIP3   OH223100   5.662   6.420  11.851 -0.5262 -0.6673  0.5826
  562TIP3    H123101   5.714   6.344  11.824  1.3884  0.8005 -0.1220
  562TIP3    H223102   5.634   6.460  11.768  1.4134  1.2573  0.7639
  563TIP3   OH223103   6.185   3.619  11.241  0.6904  0.5303  0.1076
  563TIP3    H123104   6.153   3.687  11.300  0.0204  0.0668  0.2891
  563TIP3    H223105   6.281   3.626  11.245  0.6712  2.7739 -1.4069
  564TIP3   OH223106   3.995   6.745  11.020  0.0007 -0.4102 -0.3440
  564TIP3    H123107   4.068   6.807  11.022 -0.7383  0.5923 -1.8039
  564TIP3    H223108   3.977   6.733  10.927 -3.1012  1.1637 -0.0804
  565TIP3   OH223109   3.514   6.342   1.269  0.2217 -0.1920 -0.3742
  565TIP3    H123110   3.470   6.313   1.190 -0.6284  1.5493 -0.5735
  565TIP3    H223111   3.445   6.379   1.323  1.2635  1.7802 -0.3016
  566TIP3   OH223112   6.240   2.904  16.759  0.2076 -0.0912 -0.0557
  566TIP3    H123113   6.277   2.899  16.847  1.8450 -0.4845 -0.7453
  566TIP3    H223114   6.264   2.991  16.728 -1.7375  0.6728  0.4353
  567TIP3   OH223115   1.080   5.345  12.117  0.0311  0.0718 -0.4120
  567TIP3    H123116   1.075   5.253  12.093  0.6347  0.1935 -1.0364
  567TIP3    H223117   1.171   5.369  12.099 -0.3568  1.0294 -1.1519
  568TIP3   OH223118   5.880   5.939   2.970 -0.0708  0.6549 -0.4837
  568TIP3    H123119   5.808   5.906   2.916 -1.1474  0.0407  1.2734
  568TIP3    H223120   5.892   5.874   3.038  2.0916  0.8168 -0.6249
  569TIP3   OH223121   6.760   3.333  14.257 -0.1052  0.4980  0.4905
  569TIP3    H123122   6.814   3.322  14.179 -0.4941 -1.3054  0.4395
  569TIP3    H223123   6.801   3.405  14.304  1.8286 -0.2430  0.0207
  570TIP3   OH223124   1.499   5.855  13.937  0.5361 -0.0240 -0.6645
  570TIP3    H123125   1.530   5.925  13.879 -0.5962  0.8551 -0.2571
  570TIP3    H223126   1.530   5.774  13.896  3.9097  0.7435  0.0636
  571TIP3   OH223127   5.929   1.880  12.154  0.1959 -0.1578 -0.2569
  571TIP3    H123128   6.004   1.938  12.167  0.4453  0.0133 -2.2800
  571TIP3    H223129   5.914   1.879  12.060 -1.4826 -1.3022 -0.0305
  572TIP3   OH223130   3.035   6.315  16.423 -0.0011  0.7398  0.4500
  572TIP3    H123131   3.090   6.393  16.427 -1.3831  1.9318 -1.6128
  572TIP3    H223132   2.952   6.342  16.462 -0.3260  0.1555  0.1861
  573TIP3   OH223133   3.750   2.065  14.150  0.3372 -0.3893 -0.5217
  573TIP3    H123134   3.740   1.988  14.095 -0.3870 -0.3508 -0.4615
  573TIP3    H223135   3.827   2.048  14.204  0.8412 -0.5812 -1.2941
  574TIP3   OH223136   4.394   6.281  13.318 -0.3247 -0.4180  0.3828
  574TIP3    H123137   4.331   6.290  13.390  0.2346 -1.1969  0.9824
  574TIP3    H223138   4.445   6.204  13.340  0.3671 -0.2214 -0.4721
  575TIP3   OH223139   0.460   3.906  13.175  0.3278  0.3940 -0.6893
  575TIP3    H123140   0.425   3.902  13.264  0.8114  3.0156 -0.3096
  575TIP3    H223141   0.413   3.837  13.127 -2.4030  1.1417  0.7624
  576TIP3   OH223142   3.433   1.920   3.690  0.6383  0.4094 -0.4257
  576TIP3    H123143   3.412   1.902   3.781  1.0333 -0.9864 -0.5833
  576TIP3    H223144   3.527   1.938   3.691  0.6595  0.3087 -0.5579
  577TIP3   OH223145   2.745   4.882  13.573 -0.0956  0.6820 -0.1010
  577TIP3    H123146   2.750   4.867  13.667 -0.2003  0.1172 -0.1852
  577TIP3    H223147   2.757   4.977  13.563 -0.1197  0.7467  0.4800
  578TIP3   OH223148   1.465   4.873   3.399  0.5902  0.2257  0.4224
  578TIP3    H123149   1.408   4.947   3.378 -0.1453  0.0371  1.6394
  578TIP3    H223150   1.544   4.887   3.346 -0.7454  0.2540 -1.6423
  579TIP3   OH223151   3.091   4.762  16.899 -1.2922 -0.0600 -0.1766
  579TIP3    H123152   3.165   4.751  16.959  0.4815 -0.5285 -2.3348
  579TIP3    H223153   3.045   4.678  16.902 -2.4060  0.5600  1.9227
  580TIP3   OH223154   0.185   3.163   0.063 -0.3491 -0.4205 -0.8503
  580TIP3    H123155   0.194   3.255   0.087  1.3398 -1.1199  1.5573
  580TIP3    H223156   0.252   3.150  -0.004  0.7703 -0.2920  0.2119
  581TIP3   OH223157   0.991   4.380  11.924  0.5713 -0.5077  0.5441
  581TIP3    H123158   0.942   4.460  11.907 -1.6367 -1.7245  0.7661
  581TIP3    H223159   0.967   4.355  12.013  0.5497 -1.8596  0.1832
  582TIP3   OH223160   3.318   4.008  12.667  0.1662  0.0217 -0.3291
  582TIP3    H123161   3.351   3.972  12.750  1.0585  1.1067 -0.1894
  582TIP3    H223162   3.394   4.052  12.628 -1.0950  2.9212  0.1687
  583TIP3   OH223163   2.982   6.461   2.864 -0.7626 -0.0681  0.4785
  583TIP3    H123164   2.968   6.398   2.793  2.5342  0.8505 -1.1911
  583TIP3    H223165   3.034   6.414   2.928 -1.5096 -0.1046  1.0744
  584TIP3   OH223166   1.164   4.000  11.849 -0.0682  0.2892 -0.6306
  584TIP3    H123167   1.072   3.984  11.828  0.6498 -3.1779 -1.6982
  584TIP3    H223168   1.183   4.085  11.810 -2.7184  0.9996 -0.5600
  585TIP3   OH223169   1.782   6.564   4.502 -0.0306 -0.0606  0.4622
  585TIP3    H123170   1.703   6.559   4.556 -0.8135 -1.1589 -0.7245
  585TIP3    H223171   1.811   6.655   4.509 -1.4439  0.3791  0.8541
  586TIP3   OH223172   4.802   0.703   0.746  0.0189  0.3870 -0.0301
  586TIP3    H123173   4.831   0.653   0.670 -0.7097 -0.2875  0.1228
  586TIP3    H223174   4.720   0.744   0.719 -1.0867 -1.1333  0.8539
  587TIP3   OH223175   1.523   0.418   5.499 -0.6693 -0.4279 -0.0125
  587TIP3    H123176   1.480   0.387   5.578 -2.6451 -0.3886 -1.0061
  587TIP3    H223177   1.452   0.458   5.447  1.0587  2.3674 -0.4551
  588TIP3   OH223178   2.522   2.193   4.749  0.1843 -0.0109  0.1615
  588TIP3    H123179   2.603   2.148   4.726  0.2073  0.6828 -1.2502
  588TIP3    H223180   2.550   2.275   4.790  0.1695 -0.3593  0.8779
  589TIP3   OH223181   0.136   0.550  14.771 -0.3889  0.2056 -0.5536
  589TIP3    H123182   0.228   0.560  14.748 -0.2282  1.6985  0.5849
  589TIP3    H223183   0.113   0.462  14.741  1.9017 -0.9650  0.8583
  590TIP3   OH223184   4.568   1.724   1.818 -0.3042  0.1947  0.0146
  590TIP3    H123185   4.556   1.685   1.731 -1.6852  1.3331 -0.3408
  590TIP3    H223186   4.662   1.743   1.823 -0.1181 -0.3736 -1.0053
  591TIP3   OH223187   6.189   4.173  15.598  0.2574 -0.3325 -0.0799
  591TIP3    H123188   6.161   4.260  15.568  0.6229  0.5588  1.9931
  591TIP3    H223189   6.141   4.159  15.680  1.7355 -1.1631  0.6909
  592TIP3   OH223190   3.044   5.879   4.522  0.3508  0.5221 -0.6721
  592TIP3    H123191   3.040   5.819   4.447 -0.5445  1.0733 -1.0846
  592TIP3    H223192   3.133   5.914   4.520  0.8262 -0.6104 -0.5527
  593TIP3   OH223193   0.604   0.405   4.169  0.2387  0.4559  0.0660
  593TIP3    H123194   0.597   0.415   4.263 -0.3581 -0.8935  0.1928
  593TIP3    H223195   0.696   0.384   4.153  0.4827  1.3354  0.2568
  594TIP3   OH223196   4.274   4.354   5.004  0.3132  0.6182 -0.7988
  594TIP3    H123197   4.276   4.440   5.046  0.3331  0.6586 -0.8817
  594TIP3    H223198   4.181   4.333   4.995  0.3055  0.7489 -1.0196
  595TIP3   OH223199   6.760   2.697   1.275  0.6915  0.2709 -0.1192
  595TIP3    H123200   6.852   2.683   1.252  0.6562 -0.3257  0.0854
  595TIP3    H223201   6.732   2.613   1.311  0.6101  1.0533  1.6964
  596TIP3   OH223202   4.561   1.682   0.190 -0.3620  0.0863  0.0029
  596TIP3    H123203   4.556   1.777   0.196 -0.2959  0.0015  2.9074
  596TIP3    H223204   4.651   1.661   0.214 -0.1190 -0.7032 -1.4935
  597TIP3   OH223205   2.609   1.259  15.008 -0.3853  0.1538  0.5246
  597TIP3    H123206   2.681   1.289  15.064  1.2715 -2.3413 -0.1124
  597TIP3    H223207   2.645   1.258  14.920 -2.0975  1.3926 -0.2367
  598TIP3   OH223208   4.127   6.031   3.145  0.5473 -0.0854  0.7375
  598TIP3    H123209   4.082   5.953   3.115  0.5550 -0.6967  2.2265
  598TIP3    H223210   4.217   6.003   3.163  1.5513  1.0704 -1.9975
  599TIP3   OH223211   4.148   0.469   4.972 -0.9678 -0.3440  0.3117
  599TIP3    H123212   4.055   0.447   4.971 -0.9191 -0.6743 -1.3923
  599TIP3    H223213   4.154   0.546   5.028 -2.4289  0.2675 -0.3171
  600TIP3   OH223214   4.223   0.498  13.347  0.0151  0.1512  0.6940
  600TIP3    H123215   4.288   0.468  13.284 -2.1517  0.2368 -1.7480
  600TIP3    H223216   4.158   0.427  13.349 -1.7507  1.6750  0.0198
  601TIP3   OH223217   1.632   4.483  17.132  0.3626  0.2204 -0.2125
  601TIP3    H123218   1.603   4.426  17.203  0.3860 -0.3895 -0.6920
  601TIP3    H223219   1.725   4.496  17.147  0.4396 -0.1985 -0.3396
  602TIP3   OH223220   6.120   6.074   1.827 -0.2064 -0.2402 -0.0705
  602TIP3    H123221   6.094   6.056   1.917 -0.4864 -2.6840 -0.5778
  602TIP3    H223222   6.108   5.991   1.781  1.3698  0.5363 -2.0370
  603TIP3   OH223223   0.229   6.432  11.604  0.4760 -0.8435  0.1357
  603TIP3    H123224   0.220   6.526  11.584  1.7619 -1.1187 -2.0233
  603TIP3    H223225   0.141   6.396  11.588  0.6823 -0.4745 -2.0567
  604TIP3   OH223226   1.305   1.534   3.582 -0.1124 -0.0843 -0.5332
  604TIP3    H123227   1.376   1.470   3.588  0.1430  0.3526  3.8743
  604TIP3    H223228   1.238   1.502   3.642 -0.4265  3.1683  1.0452
  605TIP3   OH223229   0.726   0.314   3.022 -0.2477 -0.3615 -0.0705
  605TIP3    H123230   0.690   0.400   3.040 -1.1478 -0.2780 -2.0656
  605TIP3    H223231   0.699   0.260   3.097 -0.0955  0.9321  0.9412
  606TIP3   OH223232   2.338   1.481   1.086  0.2526 -0.4059 -0.1901
  606TIP3    H123233   2.337   1.390   1.116  1.0465  0.4551  2.7882
  606TIP3    H223234   2.431   1.505   1.088 -0.0242  0.6790 -0.2168
  607TIP3   OH223235   4.545   5.933   0.901 -0.2489  0.2424  0.1686
  607TIP3    H123236   4.535   6.019   0.942 -0.0507 -0.0208  0.7697
  607TIP3    H223237   4.506   5.872   0.963 -0.6334 -0.0797 -0.3778
  608TIP3   OH223238   5.587   1.951  13.263 -0.0393  0.0637 -0.1176
  608TIP3    H123239   5.580   1.888  13.191  0.2431  3.0242 -3.0112
  608TIP3    H223240   5.497   1.977  13.281 -0.0370  0.0458 -0.0782
  609TIP3   OH223241   4.329   0.292  15.523 -0.0809  0.0612  0.8459
  609TIP3    H123242   4.299   0.225  15.585  3.2283 -0.5561  1.9746
  609TIP3    H223243   4.319   0.375  15.569  0.9752 -0.2613  1.7097
  610TIP3   OH223244   2.980   6.122  15.155  0.0549 -0.1716  0.1537
  610TIP3    H123245   2.887   6.143  15.146  0.1584  0.8660  1.2700
  610TIP3    H223246   3.010   6.111  15.065 -0.8090  1.0247 -0.3054
  611TIP3   OH223247   2.871   4.723  14.145 -0.0238 -0.4084  0.1216
  611TIP3    H123248   2.799   4.786  14.143  0.0507 -0.3217 -1.1250
  611TIP3    H223249   2.829   4.638  14.146 -0.1332 -0.3478  0.7480
  612TIP3   OH223250   6.189   6.007  16.020  0.4257 -0.3981  0.3426
  612TIP3    H123251   6.235   6.030  15.939  1.0076  0.2935  0.8486
  612TIP3    H223252   6.231   5.926  16.049 -0.0002 -0.8188 -0.2083
  613TIP3   OH223253   5.740   0.588  16.215  0.3084 -0.0053  0.5877
  613TIP3    H123254   5.769   0.577  16.124  0.1569 -0.5323  0.5990
  613TIP3    H223255   5.661   0.642  16.209  0.8194  0.7503  0.4905
  614TIP3   OH223256   3.080   6.396  12.407  0.0688  0.4156  0.3045
  614TIP3    H123257   3.055   6.412  12.498 -1.1846  2.5589 -0.3419
  614TIP3    H223258   3.049   6.473  12.360 -0.7526 -1.3341 -2.2194
  615TIP3   OH223259   1.937   2.977   1.900 -0.6158 -0.1560 -0.0743
  615TIP3    H123260   2.014   3.019   1.939 -0.0905 -1.3736  0.2345
  615TIP3    H223261   1.864   3.034   1.924  0.1731  1.0194 -0.3686
  616TIP3   OH223262   5.685   1.836   0.599 -0.2667  0.3979 -0.1023
  616TIP3    H123263   5.718   1.902   0.538  2.8777 -1.8820 -1.0942
  616TIP3    H223264   5.717   1.753   0.565  1.1123 -1.1240  4.2283
  617TIP3   OH223265   4.770   1.624  11.035 -0.0867  0.0030 -0.4365
  617TIP3    H123266   4.846   1.596  11.086 -0.1620  0.4568 -0.0698
  617TIP3    H223267   4.808   1.673  10.961 -0.0407  0.9183  0.1751
  618TIP3   OH223268   5.529   0.355  16.544  0.2086 -0.2186  0.1999
  618TIP3    H123269   5.610   0.337  16.497  0.2916 -0.3797  0.4015
  618TIP3    H223270   5.506   0.444  16.519  2.2952  1.2009  2.7177
  619TIP3   OH223271   2.938   3.771  12.470 -0.0778  0.1673  0.3850
  619TIP3    H123272   2.969   3.681  12.473 -1.3152 -0.2761  0.2616
  619TIP3    H223273   2.936   3.793  12.377 -0.4597  0.0815  0.3740
  620TIP3   OH223274   0.799   5.936  11.449 -0.3552 -1.0320 -0.0834
  620TIP3    H123275   0.842   6.021  11.456 -0.1955 -1.1678  0.6703
  620TIP3    H223276   0.842   5.882  11.515 -1.0831 -1.4333  0.0736
  621TIP3   OH223277   2.901   4.935  17.041 -0.8560 -0.0716 -0.1022
  621TIP3    H123278   2.951   4.863  17.001  0.1604 -0.1379  1.2043
  621TIP3    H223279   2.811   4.903  17.043 -0.5660 -0.9446 -0.3394
  622TIP3   OH223280   1.245   3.183  16.408 -0.2871  0.3542 -0.1380
  622TIP3    H123281   1.285   3.266  16.383 -1.2010  0.8073 -0.1355
  622TIP3    H223282   1.188   3.161  16.334 -0.2415 -0.1540 -0.0286
  623TIP3   OH223283   2.379   0.963  12.681 -0.1081 -0.8993  0.0218
  623TIP3    H123284   2.427   0.902  12.626 -1.3954 -1.0388 -1.0146
  623TIP3    H223285   2.348   0.910  12.754  1.1104 -0.8468  0.6014
  624TIP3   OH223286   2.994   2.618   4.155 -0.3783  0.3356  0.5135
  624TIP3    H123287   2.982   2.705   4.194  0.0838 -0.2239  1.9908
  624TIP3    H223288   2.929   2.563   4.199  1.7216 -0.8415  2.3843
  625TIP3   OH223289   2.908   5.104   0.584 -0.4861 -0.2277 -0.4923
  625TIP3    H123290   2.968   5.106   0.658  2.4548 -0.1549 -2.7103
  625TIP3    H223291   2.829   5.147   0.617  1.0752  0.8396  2.2421
  626TIP3   OH223292   5.752   5.688  16.928 -0.3425 -0.4070 -0.7059
  626TIP3    H123293   5.755   5.643  16.844 -0.2740  2.7206 -2.5101
  626TIP3    H223294   5.844   5.705  16.950 -0.4216  1.5239 -1.6712
  627TIP3   OH223295   0.264   4.474   1.007  0.3928 -0.2404 -0.3612
  627TIP3    H123296   0.285   4.382   1.021 -0.8381 -0.2450  1.8246
  627TIP3    H223297   0.215   4.475   0.925 -0.5005 -1.7035  0.1114
  628TIP3   OH223298   6.454   6.564  12.094  0.1016 -0.7620 -0.1515
  628TIP3    H123299   6.450   6.542  12.187  1.3625 -0.8824 -0.1103
  628TIP3    H223300   6.547   6.562  12.072  0.0054  1.1789 -0.9584
  629TIP3   OH223301   1.619   5.923   3.952 -0.2333  0.0090 -0.1767
  629TIP3    H123302   1.574   5.924   4.037  0.7657 -2.7706  0.4778
  629TIP3    H223303   1.557   5.879   3.893  0.9444 -2.6684  0.4255
  630TIP3   OH223304   1.632   2.109  13.054 -0.4476 -0.4620 -0.2074
  630TIP3    H123305   1.577   2.182  13.083  2.9296  1.9067  0.8498
  630TIP3    H223306   1.635   2.049  13.129  0.3347  0.6724  0.7033
  631TIP3   OH223307   1.009   5.371   1.777  0.8391  0.0244 -0.0561
  631TIP3    H123308   1.066   5.440   1.743  0.1101  0.7723  0.2012
  631TIP3    H223309   0.930   5.417   1.805 -0.8938 -1.2221 -2.5177
  632TIP3   OH223310   1.048   2.734   3.598 -0.1172  0.5114  0.0778
  632TIP3    H123311   0.953   2.735   3.591 -0.3406 -0.3301  2.1880
  632TIP3    H223312   1.065   2.697   3.684  2.1319  0.8441 -0.1633
  633TIP3   OH223313   0.875   0.493  12.571  0.2074  0.1021 -0.4919
  633TIP3    H123314   0.944   0.522  12.512  0.2653 -0.0187 -0.4845
  633TIP3    H223315   0.920   0.474  12.653  0.3764 -1.2214 -0.8634
  634TIP3   OH223316   5.191   0.596   2.392 -0.3149  0.0857 -0.2093
  634TIP3    H123317   5.234   0.582   2.308  0.7437 -0.1194  0.3517
  634TIP3    H223318   5.100   0.574   2.376  0.1649 -1.5529 -0.8973
  635TIP3   OH223319   5.564   5.874   3.540  0.0754  0.5370 -0.6262
  635TIP3    H123320   5.643   5.929   3.537  1.0136 -0.5435  1.4784
  635TIP3    H223321   5.497   5.931   3.578  0.6758  0.6325  0.3208
  636TIP3   OH223322   0.930   1.111   1.604  0.6423  0.2476 -0.2514
  636TIP3    H123323   0.980   1.042   1.562  1.1928  0.3350  0.2573
  636TIP3    H223324   0.883   1.067   1.675  1.1453  0.4311  0.1954
  637TIP3   OH223325   0.935   3.458  13.829  0.2793  0.3317 -0.0157
  637TIP3    H123326   0.951   3.511  13.907  1.0552  0.7652 -0.4615
  637TIP3    H223327   1.020   3.424  13.804 -0.1085 -0.5710 -0.1371
  638TIP3   OH223328   2.793   2.423   4.226 -0.1469 -0.3764 -0.4319
  638TIP3    H123329   2.765   2.486   4.292  0.2699 -0.3859 -0.2417
  638TIP3    H223330   2.832   2.352   4.276  0.4413 -0.2483 -0.7016
  639TIP3   OH223331   0.732   5.867  16.431 -0.1778  0.4755  0.9678
  639TIP3    H123332   0.676   5.941  16.407  0.3743  0.8202  0.7245
  639TIP3    H223333   0.787   5.901  16.502  0.0037  0.2685  0.9248
  640TIP3   OH223334   3.458   1.152  13.665  0.3136  0.4431 -0.1534
  640TIP3    H123335   3.513   1.191  13.598 -0.4022  0.4692 -0.7407
  640TIP3    H223336   3.369   1.160  13.631 -0.3088  2.2906  1.6905
  641TIP3   OH223337   5.020   4.862   1.830  0.3016  0.2036  0.2637
  641TIP3    H123338   4.992   4.889   1.918  0.7888  1.7254 -0.0211
  641TIP3    H223339   4.996   4.936   1.774  1.7187  0.0509 -0.5696
  642TIP3   OH223340   2.969   4.004  17.171  0.1041 -0.2891  0.3228
  642TIP3    H123341   3.000   3.917  17.197  0.1749 -0.3840 -0.0787
  642TIP3    H223342   2.967   4.002  17.076  0.2147  0.1899  0.3059
  643TIP3   OH223343   3.029   5.319   0.067  0.2043  0.8484  0.7041
  643TIP3    H123344   3.084   5.384   0.110  3.6024 -0.8270 -0.7092
  643TIP3    H223345   3.074   5.236   0.082 -1.6632 -0.5952 -1.0743
  644TIP3   OH223346   3.975   3.096   1.308 -0.4709 -0.0212 -0.5676
  644TIP3    H123347   3.915   3.171   1.306 -0.1462  0.4062  2.2506
  644TIP3    H223348   3.942   3.040   1.378  1.2220 -0.8280 -0.3556
  645TIP3   OH223349   3.730   1.779  15.843 -0.6662 -0.1536  0.1507
  645TIP3    H123350   3.774   1.698  15.867 -0.3533 -0.3091 -0.8964
  645TIP3    H223351   3.686   1.758  15.760  0.7299  1.1775 -0.9828
  646TIP3   OH223352   4.482   6.512  16.014 -0.2451 -0.3153 -0.1455
  646TIP3    H123353   4.505   6.605  16.008 -1.6608 -0.0274 -3.2610
  646TIP3    H223354   4.395   6.512  16.054 -0.3211 -0.2660 -0.3096
  647TIP3   OH223355   2.372   2.021   1.722  0.6026  0.5119 -0.3752
  647TIP3    H123356   2.363   2.105   1.767 -1.1805  0.2031 -0.0855
  647TIP3    H223357   2.425   1.967   1.781  3.0710  1.8386 -1.2309
  648TIP3   OH223358   4.716   2.646  11.747 -0.2179  0.1939 -0.4441
  648TIP3    H123359   4.811   2.633  11.747 -0.4254 -1.7602  0.9431
  648TIP3    H223360   4.691   2.645  11.654  1.2369  2.2626 -0.9295
  649TIP3   OH223361   3.090   0.245  17.024  0.0468  0.3668 -0.1773
  649TIP3    H123362   3.010   0.272  17.069 -0.2638  1.8960 -1.5494
  649TIP3    H223363   3.087   0.149  17.026 -1.9843  0.3728 -0.4571
  650TIP3   OH223364   6.385   3.643  16.104 -0.4400 -0.0665  0.0728
  650TIP3    H123365   6.388   3.548  16.094 -0.7279 -0.1108  0.3766
  650TIP3    H223366   6.403   3.658  16.197  1.6710  0.2995 -0.3290
  651TIP3   OH223367   5.592   4.463  16.071  0.4238  0.0421  0.7650
  651TIP3    H123368   5.576   4.433  15.981 -2.1778  0.9576  0.8274
  651TIP3    H223369   5.687   4.464  16.080  0.8396  1.2632 -2.4697
  652TIP3   OH223370   1.347   4.001  15.334  0.2424  0.4266  0.0350
  652TIP3    H123371   1.400   4.050  15.272 -0.2400  0.1515 -0.6144
  652TIP3    H223372   1.266   4.052  15.341  0.2459  0.3888  0.3373
  653TIP3   OH223373   6.215   1.028  14.711 -0.1209 -0.3853  0.0776
  653TIP3    H123374   6.262   0.951  14.680  0.6655  0.0312  0.1989
  653TIP3    H223375   6.258   1.050  14.794 -1.6125 -0.9608  1.0289
  654TIP3   OH223376   3.378   0.279  14.611  0.4445 -0.7353 -0.9707
  654TIP3    H123377   3.463   0.322  14.610  1.1852 -2.0310  0.9890
  654TIP3    H223378   3.354   0.274  14.704 -2.4209  0.7371 -1.4948
  655TIP3   OH223379   3.002   4.302  12.417 -0.1285  0.0637 -0.2782
  655TIP3    H123380   3.019   4.218  12.460  0.2754 -0.5859 -1.6644
  655TIP3    H223381   3.078   4.356  12.437  0.4095 -0.4965 -0.7953
  656TIP3   OH223382   1.375   3.218   0.982  0.1363  0.1065 -0.6006
  656TIP3    H123383   1.425   3.251   1.057 -0.6472  2.5452 -1.0381
  656TIP3    H223384   1.439   3.171   0.930  1.5257  1.3503 -0.1055
  657TIP3   OH223385   1.979   3.393   5.525  0.1931 -0.4327 -0.8417
  657TIP3    H123386   2.020   3.342   5.595  1.1539  0.6589 -0.5700
  657TIP3    H223387   1.894   3.351   5.510 -0.0611 -0.6577  1.0322
  658TIP3   OH223388   3.153   6.711  16.944 -0.4844 -0.0239  0.2128
  658TIP3    H123389   3.140   6.681  17.034  0.3485  1.3447  0.8249
  658TIP3    H223390   3.072   6.687  16.899 -0.4991 -1.6815  1.0309
  659TIP3   OH223391   5.291   1.689  13.097 -0.4436 -0.4721 -0.7765
  659TIP3    H123392   5.302   1.594  13.104  2.3613 -0.1727  0.9114
  659TIP3    H223393   5.223   1.710  13.161 -0.1275 -1.2413 -0.1723
  660TIP3   OH223394   4.938   3.327  17.094 -0.9121 -0.3689 -0.3916
  660TIP3    H123395   4.966   3.244  17.055  0.5275  1.5571 -3.9307
  660TIP3    H223396   4.842   3.326  17.084 -0.9002 -1.4955 -0.5710
  661TIP3   OH223397   5.388   6.345  15.356 -0.7699 -0.1494 -0.4215
  661TIP3    H123398   5.422   6.340  15.267  0.2409  1.7430 -0.1873
  661TIP3    H223399   5.466   6.355  15.411 -1.4781  0.5564  0.4933
  662TIP3   OH223400   3.522   0.290   3.339 -0.2320  0.3684  0.5082
  662TIP3    H123401   3.500   0.275   3.432  1.9153 -0.4735  0.9447
  662TIP3    H223402   3.480   0.217   3.293  0.1135 -0.1814  1.0506
  663TIP3   OH223403   0.868   5.931   1.219 -0.0292  0.8008  0.0502
  663TIP3    H123404   0.960   5.956   1.233 -0.0039  0.3008  0.8392
  663TIP3    H223405   0.823   5.961   1.298 -0.5773  1.1596 -0.3893
  664TIP3   OH223406   3.160   4.743   5.236  0.2145  0.4967 -0.4100
  664TIP3    H123407   3.094   4.739   5.304  0.5458  1.4384 -0.0120
  664TIP3    H223408   3.184   4.652   5.219  0.3469  0.2669  0.9502
  665TIP3   OH223409   0.895   1.771   1.049 -0.9048 -0.1432  0.6095
  665TIP3    H123410   0.813   1.809   1.019 -1.2130 -1.0097  0.3463
  665TIP3    H223411   0.877   1.741   1.138 -0.3411  1.3040  1.2530
  666TIP3   OH223412   4.903   4.617   0.039 -0.4517 -0.2475 -0.6611
  666TIP3    H123413   4.839   4.584   0.102  0.0703  2.1746  1.2657
  666TIP3    H223414   4.849   4.655  -0.030 -1.0500 -0.4857 -0.3375
  667TIP3   OH223415   6.388   4.455   0.457  0.3223  0.1429 -0.5428
  667TIP3    H123416   6.339   4.455   0.375 -1.6163  0.3159  0.5652
  667TIP3    H223417   6.458   4.519   0.443 -0.1179  0.3542 -1.9544
  668TIP3   OH223418   0.293   0.022   0.658  0.4541 -0.1493 -0.3421
  668TIP3    H123419   0.262  -0.068   0.665  0.6972 -0.1445  1.2168
  668TIP3    H223420   0.369   0.026   0.716 -0.6878  1.5142  1.1524
  669TIP3   OH223421   6.522   4.459   2.957  0.6130 -0.0536 -0.3628
  669TIP3    H123422   6.515   4.368   2.929 -1.4381 -0.4599  1.1817
  669TIP3    H223423   6.477   4.461   3.041  2.9036  1.8910  0.9287
  670TIP3   OH223424   0.096   1.155  11.922  0.7740  0.4296  0.1677
  670TIP3    H123425   0.058   1.108  11.848 -0.8392  2.6492 -0.5243
  670TIP3    H223426   0.058   1.114  11.999 -1.4712  1.2120 -0.4588
  671TIP3   OH223427   3.443   5.681   1.008  1.0157  0.4166  0.7645
  671TIP3    H123428   3.522   5.698   1.060  1.1543 -0.6151  0.9073
  671TIP3    H223429   3.434   5.586   1.009  0.1941  0.4810  0.1086
  672TIP3   OH223430   2.769   1.693   5.910 -0.8960  0.2322 -0.2500
  672TIP3    H123431   2.709   1.742   5.966 -0.1899  1.3467 -0.4478
  672TIP3    H223432   2.713   1.655   5.842 -1.8721 -1.6865  1.4954
  673TIP3   OH223433   0.029   6.231   2.745 -0.0129 -0.2023 -0.7497
  673TIP3    H123434   0.123   6.239   2.732  0.0526  2.4506  0.6871
  673TIP3    H223435  -0.008   6.237   2.656  1.0913  1.3284 -1.1522
  674TIP3   OH223436   3.265   3.890   5.680 -0.5482  0.4940 -0.1594
  674TIP3    H123437   3.179   3.883   5.639 -0.7297 -0.4660  0.3511
  674TIP3    H223438   3.246   3.924   5.768 -0.5601 -0.8705  0.3935
  675TIP3   OH223439   1.649   6.049  11.724 -0.1262  0.7393 -0.1477
  675TIP3    H123440   1.620   6.134  11.692  0.6853  0.3583 -2.0575
  675TIP3    H223441   1.619   5.987  11.658  0.7568 -0.2432  0.3477
  676TIP3   OH223442   2.543   2.246   3.893 -0.0181 -0.0501 -0.7872
  676TIP3    H123443   2.486   2.286   3.959  2.1028  1.1777  0.4115
  676TIP3    H223444   2.546   2.154   3.916  1.9710  0.5880  1.9769
  677TIP3   OH223445   4.520   0.850  11.464 -0.2205  0.1555  0.6773
  677TIP3    H123446   4.550   0.940  11.474 -4.0299  1.6430  0.4722
  677TIP3    H223447   4.527   0.813  11.552 -0.2384  1.2696  1.1703
  678TIP3   OH223448   5.516   6.057  13.813  0.9710  0.8706  0.1473
  678TIP3    H123449   5.598   6.028  13.773 -0.0633 -0.1742 -1.2802
  678TIP3    H223450   5.470   6.104  13.744 -0.4301 -0.1312  0.3579
  679TIP3   OH223451   0.934   0.331  11.874 -0.2498 -0.3831  0.8482
  679TIP3    H123452   0.923   0.306  11.783  3.3457 -0.5107  0.3113
  679TIP3    H223453   0.877   0.407  11.885  0.0668  0.3402 -1.8578
  680TIP3   OH223454   0.770   0.628  14.085 -0.2134  0.3493  0.0133
  680TIP3    H123455   0.752   0.611  13.993 -1.0626  0.8085  0.0814
  680TIP3    H223456   0.785   0.723  14.089 -0.4057  0.3654  0.3812
  681TIP3   OH223457   0.049   2.496  13.548  0.0299  0.1891 -0.4360
  681TIP3    H123458   0.123   2.484  13.488 -1.1889 -2.7331 -1.5629
  681TIP3    H223459  -0.012   2.551  13.499  0.3572  0.4160 -0.5943
  682TIP3   OH223460   1.996   4.566   3.038 -0.0135  0.2609 -0.1218
  682TIP3    H123461   2.076   4.578   2.986  0.6288 -2.2054  0.1509
  682TIP3    H223462   1.973   4.474   3.023  0.1019 -0.5602  3.7731
  683TIP3   OH223463   4.714   3.907  15.862  0.1814  0.2798 -0.1213
  683TIP3    H123464   4.714   3.846  15.936 -0.4993  1.1004  0.5761
  683TIP3    H223465   4.626   3.943  15.861 -0.0841 -0.3182 -1.8675
  684TIP3   OH223466   0.480   5.880   4.679  0.7768 -0.8604  0.4330
  684TIP3    H123467   0.554   5.828   4.648 -0.4123 -2.8931  0.8129
  684TIP3    H223468   0.518   5.965   4.701  2.9334 -1.7380  0.3582
  685TIP3   OH223469   6.726   0.889   2.306  0.3034 -0.6684  0.2226
  685TIP3    H123470   6.811   0.874   2.347 -0.1504 -0.1486  1.3942
  685TIP3    H223471   6.710   0.810   2.255  2.4625  0.1026 -1.8206
  686TIP3   OH223472   0.410   1.470  11.289  0.1807  0.2405 -0.2647
  686TIP3    H123473   0.488   1.509  11.250  0.5667  0.4263  0.6875
  686TIP3    H223474   0.396   1.517  11.370 -1.3848  0.7252 -0.7743
  687TIP3   OH223475   3.568   6.534   1.958  0.1138 -0.0048  0.2765
  687TIP3    H123476   3.655   6.574   1.947 -0.0134  0.3002  0.3789
  687TIP3    H223477   3.573   6.487   2.041 -0.0195  0.5359  0.5921
  688TIP3   OH223478   4.379   0.692  15.117  0.5760 -0.2998 -0.1081
  688TIP3    H123479   4.358   0.601  15.096  1.3658 -0.6191  0.4081
  688TIP3    H223480   4.317   0.716  15.185  0.8497 -0.7094  0.2936
  689TIP3   OH223481   4.032   1.547   3.343  0.0417 -0.1115 -0.0389
  689TIP3    H123482   3.980   1.472   3.371 -0.7260  0.4115 -0.0274
  689TIP3    H223483   4.027   1.609   3.416 -0.2428  0.3974 -0.4754
  690TIP3   OH223484   5.485   6.468  15.679 -0.2586  0.0235 -0.4721
  690TIP3    H123485   5.504   6.535  15.744  1.1721 -0.7458 -0.0600
  690TIP3    H223486   5.570   6.432  15.655 -1.0445 -2.4651  0.1919
  691TIP3   OH223487   4.296   5.732   4.387  0.0967  0.1251 -0.0316
  691TIP3    H123488   4.380   5.744   4.431 -0.0167  0.6651  0.0441
  691TIP3    H223489   4.319   5.722   4.294  0.1992  0.9493 -0.0974
  692TIP3   OH223490   5.214   2.587   2.622 -0.1116 -0.1402  0.4526
  692TIP3    H123491   5.305   2.576   2.594 -0.7344 -0.5423 -1.6230
  692TIP3    H223492   5.215   2.570   2.716  2.2549  1.7238  0.8465
  693TIP3   OH223493   1.521   5.597   6.556 -0.5304 -0.5002  1.0357
  693TIP3    H123494   1.490   5.507   6.546 -0.1328 -0.5172 -0.2255
  693TIP3    H223495   1.468   5.647   6.494  1.7355 -0.5135 -1.0713
  694TIP3   OH223496   4.885   6.126  14.949 -0.3373  0.5373  0.7033
  694TIP3    H123497   4.857   6.076  14.873  1.6331  0.9690 -0.3906
  694TIP3    H223498   4.808   6.177  14.975 -1.4828 -0.7558 -0.0324
  695TIP3   OH223499   1.859   2.364  15.988  0.3900 -0.3496  0.0649
  695TIP3    H123500   1.927   2.333  15.928  1.5210 -1.9256  2.0138
  695TIP3    H223501   1.787   2.302  15.976  1.4962 -2.0903  1.8365
  696TIP3   OH223502   0.532   5.959  13.435  0.2663  0.4998  0.3605
  696TIP3    H123503   0.611   6.002  13.404  0.3513  0.1340  0.0645
  696TIP3    H223504   0.489   6.025  13.490 -1.2607  2.2562 -2.6158
  697TIP3   OH223505   1.486   3.408   4.780 -0.9414  0.3631  1.0296
  697TIP3    H123506   1.488   3.404   4.684 -0.3240 -1.4308  1.0877
  697TIP3    H223507   1.483   3.502   4.799 -1.4909  0.7534 -0.7449
  698TIP3   OH223508   4.984   5.982  10.846 -0.3942  0.1942 -0.2394
  698TIP3    H123509   5.069   5.945  10.824 -0.4570 -0.5678  0.7351
  698TIP3    H223510   5.001   6.035  10.924 -0.9118 -0.4371  0.3141
  699TIP3   OH223511   3.775   1.999  15.526  0.0765 -0.4722 -0.2814
  699TIP3    H123512   3.716   2.046  15.467 -1.5901 -1.6500  0.3825
  699TIP3    H223513   3.721   1.930  15.565  1.4515 -0.5292  1.6817
  700TIP3   OH223514   4.274   0.813   3.628  0.3552 -0.4792  0.2644
  700TIP3    H123515   4.331   0.795   3.553 -0.1140  4.6629 -1.7509
  700TIP3    H223516   4.189   0.776   3.603  0.9670 -1.6073 -0.2170
  701TIP3   OH223517   2.773   2.158  12.637  0.1746  0.4044 -0.4479
  701TIP3    H123518   2.708   2.134  12.571  0.4214  1.3613 -1.0618
  701TIP3    H223519   2.826   2.078  12.648 -2.0006 -0.9079  1.2253
  702TIP3   OH223520   3.469   4.081   0.373 -0.0723 -0.0534 -0.5881
  702TIP3    H123521   3.381   4.046   0.391  0.6425 -1.0276  1.2557
  702TIP3    H223522   3.453   4.172   0.348 -1.5171  0.5896  2.1960
  703TIP3   OH223523   6.612   2.453   1.553 -0.1242 -0.4530  0.1377
  703TIP3    H123524   6.655   2.373   1.581  1.5289  0.2424 -0.3164
  703TIP3    H223525   6.565   2.428   1.473  0.2087 -1.0196  0.1149
  704TIP3   OH223526   1.147   1.227  11.947  0.3245 -0.6046  0.3685
  704TIP3    H123527   1.129   1.265  11.861  0.1414  0.7482  0.9864
  704TIP3    H223528   1.198   1.148  11.927 -0.0889 -0.5603 -0.9978
  705TIP3   OH223529   2.388   0.915   0.021  0.7638  0.4138  0.2554
  705TIP3    H123530   2.390   0.990  -0.040  2.5450  0.2906  0.1010
  705TIP3    H223531   2.458   0.858  -0.010 -0.6760 -1.4402  0.2755
  706TIP3   OH223532   0.605   0.037  12.479 -0.3791 -0.2257  0.6226
  706TIP3    H123533   0.562   0.123  12.478 -1.5498 -0.7822  1.6049
  706TIP3    H223534   0.587  -0.000  12.393  1.6925  1.2115 -0.5394
  707TIP3   OH223535   1.224   6.592  11.128  0.3570 -0.2207  0.7904
  707TIP3    H123536   1.132   6.567  11.124  0.5529 -0.8039 -0.7536
  707TIP3    H223537   1.227   6.680  11.090  0.6847 -1.0846 -1.3327
  708TIP3   OH223538   6.376   3.626  15.768  0.0180  0.5224  0.0548
  708TIP3    H123539   6.469   3.644  15.752  0.4979 -1.6154  0.1177
  708TIP3    H223540   6.366   3.638  15.863  0.3760  0.2373  0.1336
  709TIP3   OH223541   3.012   0.728   6.335 -0.5731  0.4454  0.6378
  709TIP3    H123542   3.036   0.808   6.288 -1.6516  0.6723  0.4430
  709TIP3    H223543   2.988   0.757   6.423  0.9934  0.0748  1.2129
  710TIP3   OH223544   1.646   3.227  16.803 -0.3718 -0.1365  0.4227
  710TIP3    H123545   1.699   3.201  16.728  0.7950  1.8189  0.4997
  710TIP3    H223546   1.709   3.261  16.866 -1.5542  0.3545  1.3801
  711TIP3   OH223547   5.542   4.689  14.855  0.3066 -0.1076 -0.2381
  711TIP3    H123548   5.548   4.646  14.941  0.0542 -0.0218 -0.1781
  711TIP3    H223549   5.449   4.709  14.845  0.5411  1.2767  0.1510
  712TIP3   OH223550   5.035   6.033  16.918  0.2685 -0.0942 -0.0286
  712TIP3    H123551   5.008   6.125  16.911 -1.6250 -0.6823 -1.0167
  712TIP3    H223552   4.988   6.000  16.995  1.0879 -0.2235  0.4342
  713TIP3   OH223553   0.263   5.468   6.610  0.2682 -0.0905  0.1281
  713TIP3    H123554   0.170   5.480   6.592  0.0840  0.6913  1.4390
  713TIP3    H223555   0.300   5.555   6.602  0.2350  0.2538  2.8672
  714TIP3   OH223556   2.892   2.193   0.144 -0.2707  0.4010 -0.1760
  714TIP3    H123557   2.871   2.274   0.191  2.4806  1.9410 -1.3522
  714TIP3    H223558   2.954   2.148   0.202  1.2197  1.1036 -1.1659
  715TIP3   OH223559   5.970   1.817  16.098 -0.2124 -0.1591 -0.4249
  715TIP3    H123560   5.888   1.858  16.070 -0.8881 -0.6889  0.7180
  715TIP3    H223561   6.006   1.878  16.163 -0.9121 -1.0438  0.8253
  716TIP3   OH223562   5.109   6.105   2.644  0.2049 -0.2433  0.3183
  716TIP3    H123563   5.077   6.023   2.683  0.7283  0.1615  1.6792
  716TIP3    H223564   5.058   6.173   2.689  0.2266  0.2113 -0.3394
  717TIP3   OH223565   1.953   6.539  14.180 -0.3956  0.6043  0.0990
  717TIP3    H123566   1.881   6.532  14.117  0.2672  2.4748 -0.9525
  717TIP3    H223567   2.022   6.584  14.131  2.1403 -2.4707  0.5300
  718TIP3   OH223568   5.637   6.520  10.300  0.3624  0.1270 -0.5549
  718TIP3    H123569   5.628   6.472  10.382 -1.2685  1.3044  0.0199
  718TIP3    H223570   5.712   6.578  10.314  0.6390 -0.3017 -0.2399
  719TIP3   OH223571   1.455   3.453   0.263  0.7845 -0.2282 -0.0074
  719TIP3    H123572   1.422   3.460   0.353 -0.3593 -0.0859 -0.4321
  719TIP3    H223573   1.386   3.489   0.209  2.1838  1.3216 -0.8407
  720TIP3   OH223574   2.313   4.693   1.241 -0.1642 -0.1781 -0.6910
  720TIP3    H123575   2.336   4.645   1.161 -1.1699 -1.9044 -0.0009
  720TIP3    H223576   2.339   4.635   1.312 -2.3387 -0.2169  0.1658
  721TIP3   OH223577   2.556   0.802  17.015  0.1766  0.1352 -0.5892
  721TIP3    H123578   2.469   0.815  17.053  0.6859  0.1180  0.5939
  721TIP3    H223579   2.611   0.868  17.057  1.0248 -0.6858 -0.3720
  722TIP3   OH223580   1.403   4.838  12.462  0.5415 -0.1121  0.1276
  722TIP3    H123581   1.334   4.804  12.405 -0.0793  1.5549 -0.1735
  722TIP3    H223582   1.483   4.796  12.430 -0.0630 -0.6513 -0.7393
  723TIP3   OH223583   1.630   5.801   5.539 -0.4041  0.7121  0.1115
  723TIP3    H123584   1.624   5.897   5.539  0.5901  0.8828 -2.8223
  723TIP3    H223585   1.711   5.783   5.492 -1.5279 -1.5643 -1.1007
  724TIP3   OH223586   6.269   6.172   4.955 -0.1771 -0.5442  0.4480
  724TIP3    H123587   6.355   6.135   4.972 -0.4351 -1.0526  0.6681
  724TIP3    H223588   6.255   6.158   4.861  0.6368  0.9601  0.0746
  725TIP3   OH223589   6.228   4.594  13.726  0.4144  0.0893 -0.0798
  725TIP3    H123590   6.233   4.499  13.737  0.2373  0.0582 -0.2507
  725TIP3    H223591   6.191   4.626  13.808 -1.1300 -0.1604 -0.6349
  726TIP3   OH223592   3.010   3.722  16.423  0.3378 -0.1700 -0.6570
  726TIP3    H123593   2.979   3.788  16.362  1.9070  0.6045 -0.6591
  726TIP3    H223594   2.974   3.640  16.390 -1.3833  0.6092 -0.8284
  727TIP3   OH223595   3.306   3.888  12.961 -0.3319  0.2097 -0.4111
  727TIP3    H123596   3.257   3.968  12.978  0.6755  0.7711 -0.0779
  727TIP3    H223597   3.354   3.872  13.042  0.5558  0.0571 -0.9514
  728TIP3   OH223598   4.456   0.881   1.869 -0.0702  0.3869  0.1018
  728TIP3    H123599   4.413   0.798   1.891  0.1207  0.3323  0.2718
  728TIP3    H223600   4.546   0.871   1.901 -0.1730  0.8383  0.5449
  729TIP3   OH223601   3.283   4.624   0.720 -1.0685  0.1323 -0.1675
  729TIP3    H123602   3.226   4.574   0.662 -0.1191  0.5509 -1.5314
  729TIP3    H223603   3.367   4.627   0.674 -1.1122  3.0716 -0.2562
  730TIP3   OH223604   6.651   0.904   2.676 -0.3082  0.6627 -0.0701
  730TIP3    H123605   6.572   0.936   2.633 -0.4726  0.4324  0.0616
  730TIP3    H223606   6.712   0.887   2.605 -0.9521 -0.7807 -0.3062
  731TIP3   OH223607   6.020   5.178   2.845 -0.7629  0.0143  0.3585
  731TIP3    H123608   6.089   5.115   2.866 -0.1644  0.7304  0.5829
  731TIP3    H223609   6.023   5.184   2.749 -0.5276  0.0330  0.3663
  732TIP3   OH223610   4.041   3.987   0.589 -0.1483  0.2623  0.1122
  732TIP3    H123611   4.116   4.034   0.551  0.1536  0.4356  0.9014
  732TIP3    H223612   3.994   3.953   0.513  0.4853  0.5279 -0.4181
  733TIP3   OH223613   5.883   1.125   3.058  0.1728  0.5969  0.4283
  733TIP3    H123614   5.909   1.043   3.098 -2.8090 -0.1617  1.0566
  733TIP3    H223615   5.951   1.144   2.994  2.3640 -0.8740  2.1925
  734TIP3   OH223616   1.438   0.132  15.413  0.5459  0.2956 -0.0837
  734TIP3    H123617   1.463   0.114  15.322 -1.3246  0.9102 -0.7720
  734TIP3    H223618   1.362   0.189  15.406 -0.8010 -1.1359  1.8466
  735TIP3   OH223619   1.061   1.132   2.491 -0.0252 -0.2872  0.5855
  735TIP3    H123620   1.116   1.146   2.414 -1.2538 -1.7686 -0.6637
  735TIP3    H223621   1.118   1.089   2.554  1.4071  2.2869  1.1519
  736TIP3   OH223622   4.212   1.754  13.585  0.0756 -0.0741 -0.2704
  736TIP3    H123623   4.255   1.786  13.664 -0.0554  1.0329 -0.6331
  736TIP3    H223624   4.176   1.832  13.543 -0.0428 -0.6606 -1.3145
  737TIP3   OH223625   1.226   4.121  10.610  0.5667 -0.2406  0.1767
  737TIP3    H123626   1.134   4.118  10.636  0.3549  0.2200 -0.4903
  737TIP3    H223627   1.233   4.198  10.553  1.2691 -0.5335 -0.1501
  738TIP3   OH223628   4.260   2.682   3.540 -0.2946  0.0371 -0.0876
  738TIP3    H123629   4.209   2.606   3.511  1.0274 -0.5301 -1.0471
  738TIP3    H223630   4.313   2.649   3.612  0.6990 -0.1423 -0.8703
  739TIP3   OH223631   2.712   3.656  13.908  0.0231 -0.3306 -0.3693
  739TIP3    H123632   2.789   3.640  13.852  0.6395 -1.0331  0.6338
  739TIP3    H223633   2.663   3.574  13.904  1.1461 -1.1937  1.6935
  740TIP3   OH223634   3.758   1.132  16.591  0.0421 -0.0608 -0.0166
  740TIP3    H123635   3.771   1.144  16.685 -0.1686 -0.3812  0.0559
  740TIP3    H223636   3.796   1.046  16.572 -1.6068 -0.8729  0.1397
  741TIP3   OH223637   2.672   2.335   1.110  0.0116  0.0777 -0.0145
  741TIP3    H123638   2.632   2.279   1.044 -1.3675  1.1505 -0.1318
  741TIP3    H223639   2.624   2.315   1.191 -0.3791  0.9215 -0.0194
  742TIP3   OH223640   6.389   6.586   6.357 -0.0399 -0.1002  0.0152
  742TIP3    H123641   6.436   6.649   6.412  1.4992 -0.0074 -1.3197
  742TIP3    H223642   6.413   6.500   6.392  1.0199 -0.0448 -0.5490
  743TIP3   OH223643   6.149   6.367  14.485  0.2092 -0.1211  0.3699
  743TIP3    H123644   6.133   6.364  14.391 -0.6710  2.0959  0.3815
  743TIP3    H223645   6.187   6.282  14.506  0.5342 -0.6333 -1.9982
  744TIP3   OH223646   4.772   0.209  10.996  0.1315 -0.1111  0.3802
  744TIP3    H123647   4.679   0.206  10.971 -0.1711 -1.6168  1.5518
  744TIP3    H223648   4.772   0.191  11.090  1.3288  4.1865  1.3889
  745TIP3   OH223649   5.455   3.548   2.768 -0.2071  0.0901 -0.4927
  745TIP3    H123650   5.372   3.590   2.792 -0.7186 -0.4789 -1.1887
  745TIP3    H223651   5.454   3.464   2.814 -0.5455 -0.3941 -1.3502
  746TIP3   OH223652   2.867   3.560   2.631  0.3407  0.2665  0.3452
  746TIP3    H123653   2.822   3.634   2.589  1.8700  0.8800 -0.2992
  746TIP3    H223654   2.805   3.528   2.696 -1.2496  0.6856 -0.8919
  747TIP3   OH223655   5.540   5.998   5.126 -0.5471 -0.1576  0.3321
  747TIP3    H123656   5.610   6.016   5.065 -1.1449  1.1305  0.0006
  747TIP3    H223657   5.575   5.930   5.184  1.4973  1.4555  1.0795
  748TIP3   OH223658   6.612   3.518  12.918 -0.8742  0.0261 -0.0633
  748TIP3    H123659   6.576   3.430  12.933 -0.3288 -0.5674 -1.9307
  748TIP3    H223660   6.691   3.521  12.972 -2.0379  0.2329  1.7302
  749TIP3   OH223661   1.381   4.946  17.170  0.0323  0.0820 -0.3983
  749TIP3    H123662   1.406   4.974  17.259  2.6035 -2.6430 -0.1215
  749TIP3    H223663   1.353   5.027  17.127  2.2936  2.1980  1.7801
  750TIP3   OH223664   2.910   0.159  15.619  0.0104  0.0040  0.4894
  750TIP3    H123665   2.931   0.070  15.590  2.4789  0.5231  0.4825
  750TIP3    H223666   2.889   0.149  15.712 -0.2441 -0.6520  0.3671
  751TIP3   OH223667   4.004   5.370  14.322  0.5166 -0.2189  0.2552
  751TIP3    H123668   4.011   5.308  14.249  0.0841 -0.3872  0.3576
  751TIP3    H223669   3.947   5.439  14.288 -0.0251 -0.5041  0.5752
  752TIP3   OH223670   2.990   1.749   4.464  0.3769  0.4070 -0.4623
  752TIP3    H123671   2.990   1.653   4.464 -1.1517  0.3737  0.9157
  752TIP3    H223672   2.939   1.772   4.386  0.8979  0.1079 -0.8972
  753TIP3   OH223673   2.884   4.310  14.749  0.2308  0.4761  0.3716
  753TIP3    H123674   2.811   4.371  14.759 -0.8076 -0.6930  0.0762
  753TIP3    H223675   2.927   4.309  14.834 -0.1851  1.0437  0.5939
  754TIP3   OH223676   4.304   1.612  15.683  0.1623 -0.8981 -0.5450
  754TIP3    H123677   4.398   1.622  15.666  0.5377 -1.5121  0.9311
  754TIP3    H223678   4.267   1.697  15.662  1.2132 -0.3539 -0.3085
  755TIP3   OH223679   4.978   4.782   3.506  0.2519  0.4870  0.1981
  755TIP3    H123680   4.897   4.769   3.555 -1.0806 -0.1403 -2.0336
  755TIP3    H223681   4.958   4.853   3.444  1.1907 -0.0586 -0.7720
  756TIP3   OH223682   3.566   5.722   5.507 -0.0097 -0.2039 -0.7210
  756TIP3    H123683   3.548   5.715   5.601  2.7986 -0.0352 -0.0558
  756TIP3    H223684   3.521   5.647   5.468 -0.4421 -0.8370  0.9179
  757TIP3   OH223685   6.501   0.079  13.319  0.6962 -0.2987  0.0368
  757TIP3    H123686   6.561   0.009  13.346  0.4159  0.2990  2.4447
  757TIP3    H223687   6.429   0.033  13.275  1.2604 -1.3675  0.1969
  758TIP3   OH223688   0.143   1.118   5.070  0.4305 -0.0755 -0.2911
  758TIP3    H123689   0.110   1.049   5.127 -1.9674 -1.0473 -2.6680
  758TIP3    H223690   0.187   1.072   4.999  3.2495  1.1004  0.5340
  759TIP3   OH223691   2.458   3.704  15.025 -0.3432  0.3664 -0.0866
  759TIP3    H123692   2.427   3.694  14.935 -2.1986 -3.0362  0.7469
  759TIP3    H223693   2.552   3.721  15.016  0.0326 -2.3023 -2.7325
  760TIP3   OH223694   1.397   4.702  14.272  0.5692 -0.2769 -0.5044
  760TIP3    H123695   1.454   4.772  14.305  2.8245 -1.5655 -1.4419
  760TIP3    H223696   1.448   4.622  14.286 -2.2353 -1.9216  1.2843
  761TIP3   OH223697   1.101   0.969   1.832 -0.2217  0.1384 -0.2086
  761TIP3    H123698   1.132   0.916   1.758  1.9724  0.6938  0.2498
  761TIP3    H223699   1.097   1.058   1.797 -0.3864  0.2135  0.0011
  762TIP3   OH223700   2.539   2.892  14.235  0.9752  0.6815  0.5237
  762TIP3    H123701   2.574   2.810  14.201 -1.8603 -0.9275  1.1424
  762TIP3    H223702   2.518   2.943  14.156  0.2917 -0.3581  0.0063
  763TIP3   OH223703   4.084   5.847  15.033  0.1364  0.1727 -0.4627
  763TIP3    H123704   4.172   5.828  15.000  0.2064  0.3200 -0.3620
  763TIP3    H223705   4.051   5.762  15.062  0.5546  0.2450  0.2398
  764TIP3   OH223706   6.707   1.314   2.655 -0.4428 -0.4345 -0.1898
  764TIP3    H123707   6.667   1.256   2.720 -0.9504  0.4340  0.2807
  764TIP3    H223708   6.743   1.386   2.705 -1.2004  0.4612 -0.8938
  765TIP3   OH223709   2.451   2.802   4.323 -0.4148 -0.3104  0.1781
  765TIP3    H123710   2.470   2.894   4.340 -1.1327 -0.4590  1.9612
  765TIP3    H223711   2.474   2.790   4.230 -0.7725  1.7635 -0.2362
  766TIP3   OH223712   0.864   6.540   2.677  0.4447  0.2539  0.3959
  766TIP3    H123713   0.818   6.515   2.596 -0.0225  1.8504  0.1456
  766TIP3    H223714   0.863   6.460   2.730 -1.1325 -0.2367 -0.3004
  767TIP3   OH223715   2.531   6.129   3.835  0.6931 -0.2221  0.3590
  767TIP3    H123716   2.625   6.113   3.841  0.4427 -1.5035  1.2972
  767TIP3    H223717   2.492   6.063   3.892 -0.8130 -0.0714 -0.4469
  768TIP3   OH223718   5.680   2.078   3.326 -0.2234  0.0005 -0.6246
  768TIP3    H123719   5.673   2.056   3.419 -3.1258  0.7587 -0.5784
  768TIP3    H223720   5.771   2.060   3.304  0.2063 -1.5483  2.0127
  769TIP3   OH223721   2.271   2.588   2.173 -0.5724 -0.6603 -0.5943
  769TIP3    H123722   2.364   2.610   2.177 -0.9347  0.8534  0.5083
  769TIP3    H223723   2.233   2.631   2.250 -2.0294 -2.0868 -0.4517
  770TIP3   OH223724   5.659   6.536  11.616 -0.4265  0.0602  0.8238
  770TIP3    H123725   5.681   6.623  11.649 -1.6590  0.7115  0.0342
  770TIP3    H223726   5.742   6.501  11.583  0.3391  0.3816  2.2992
  771TIP3   OH223727   2.703   3.755  13.181  0.2387 -0.0943 -0.4776
  771TIP3    H123728   2.671   3.748  13.271 -0.5660  0.7644 -0.6861
  771TIP3    H223729   2.793   3.788  13.190  1.6580 -3.6045  0.1761
  772TIP3   OH223730   3.198   4.595   1.209  0.7734 -0.0280  0.0035
  772TIP3    H123731   3.256   4.546   1.151  0.7123  1.0810 -1.0425
  772TIP3    H223732   3.184   4.679   1.164 -1.8290 -0.3170  0.0785
  773TIP3   OH223733   2.893   1.271   3.441 -0.5869 -0.3745 -0.1195
  773TIP3    H123734   2.859   1.297   3.355  1.7112  2.7028 -0.2461
  773TIP3    H223735   2.877   1.347   3.497  3.5023  0.2987  0.4409
  774TIP3   OH223736   6.495   2.094   1.075  0.0905  0.0753  0.7708
  774TIP3    H123737   6.440   2.171   1.091 -0.0769  0.3359 -0.8017
  774TIP3    H223738   6.581   2.130   1.052  0.4197 -0.2651  1.4551
  775TIP3   OH223739   0.574   3.819  10.772 -0.4280  0.5288 -0.3398
  775TIP3    H123740   0.619   3.903  10.769 -0.0207  0.4547  1.8351
  775TIP3    H223741   0.633   3.762  10.821 -0.5721 -1.1466 -2.0081
  776TIP3   OH223742   5.694   4.955  13.406 -0.1385 -0.2157  0.0308
  776TIP3    H123743   5.606   4.987  13.386 -0.0495 -0.8359 -1.5645
  776TIP3    H223744   5.684   4.860  13.409  0.3637 -0.2570  0.4672
  777TIP3   OH223745   0.059   3.664  14.185  0.3578  0.6377 -0.3562
  777TIP3    H123746   0.033   3.756  14.191  0.0212  0.6451 -1.6968
  777TIP3    H223747   0.025   3.635  14.100 -0.5859 -1.0562  0.5546
  778TIP3   OH223748   3.721   2.689  14.396  0.0236 -0.3920  0.3466
  778TIP3    H123749   3.794   2.707  14.456  1.2228 -1.3029 -0.7770
  778TIP3    H223750   3.737   2.600  14.364 -0.7848 -0.0750 -1.0316
  779TIP3   OH223751   5.807   1.833   6.456  0.7762  0.4609 -0.0761
  779TIP3    H123752   5.762   1.798   6.533  2.3754  0.6147  0.9724
  779TIP3    H223753   5.818   1.758   6.398  2.5875 -0.4858  1.3779
  780TIP3   OH223754   4.976   3.764   1.838  0.3895 -0.4473  0.6038
  780TIP3    H123755   4.937   3.779   1.924 -0.2050 -0.0686  0.2752
  780TIP3    H223756   4.984   3.851   1.800 -1.6094 -0.7634 -0.6913
  781TIP3   OH223757   4.631   2.736  17.138 -0.0257 -0.0849 -0.0578
  781TIP3    H123758   4.634   2.810  17.198 -1.0153 -0.0228 -0.0723
  781TIP3    H223759   4.691   2.672  17.176 -0.6216 -0.0417  1.0105
  782TIP3   OH223760   4.518   2.426   0.309  0.1701  0.4017  0.1511
  782TIP3    H123761   4.491   2.345   0.267 -1.0079  0.9144 -0.1361
  782TIP3    H223762   4.534   2.487   0.237  0.1353  0.6892  0.3825
  783TIP3   OH223763   4.018   5.722  13.438  0.0561  0.3214  0.4649
  783TIP3    H123764   3.996   5.814  13.419 -0.2916  0.5979  2.0746
  783TIP3    H223765   3.950   5.672  13.393  0.9403  0.7399 -1.4760
  784TIP3   OH223766   0.963   4.933  14.335  0.1459 -0.3262  0.0032
  784TIP3    H123767   1.005   4.962  14.254  0.7455 -0.8894  0.0978
  784TIP3    H223768   0.975   5.005  14.396 -0.7075  0.2880 -0.5316
  785TIP3   OH223769   5.971   2.366  12.516 -0.0400  0.2809  0.4274
  785TIP3    H123770   5.878   2.389  12.511 -0.5298 -1.2142  1.7257
  785TIP3    H223771   6.000   2.403  12.599  0.0030 -0.8570  0.9447
  786TIP3   OH223772   4.734   2.384   5.731  0.8098 -0.1138 -0.2541
  786TIP3    H123773   4.674   2.406   5.802  0.2447 -0.0779 -0.7343
  786TIP3    H223774   4.757   2.469   5.692 -3.1352 -0.2574 -3.5576
  787TIP3   OH223775   3.150   4.454   0.519 -0.7141 -0.0049  0.1315
  787TIP3    H123776   3.143   4.523   0.454  0.4221 -0.1486 -0.1686
  787TIP3    H223777   3.079   4.394   0.498  0.7237 -1.0378 -2.2243
  788TIP3   OH223778   5.823   4.249  16.409  0.1710  0.1527  0.2743
  788TIP3    H123779   5.899   4.204  16.448 -0.5445 -0.1436  1.3729
  788TIP3    H223780   5.843   4.342  16.421  1.3124  0.1654 -1.3418
  789TIP3   OH223781   4.689   1.226  14.145  0.3965 -0.3934  0.8749
  789TIP3    H123782   4.721   1.287  14.211  1.6736  0.9644 -0.9088
  789TIP3    H223783   4.720   1.262  14.061 -0.9749 -2.1395 -0.4678
  790TIP3   OH223784   1.988   1.703  11.791  0.6064  0.0933  0.0374
  790TIP3    H123785   2.001   1.612  11.818  0.9360 -0.1246 -0.8016
  790TIP3    H223786   1.900   1.704  11.752 -0.0084  0.4815  1.3698
  791TIP3   OH223787   1.897   4.971   3.962 -0.3591  0.2964 -0.0707
  791TIP3    H123788   1.950   4.976   4.042 -2.5037  1.4684  1.3772
  791TIP3    H223789   1.960   4.978   3.891  1.5917 -0.2890  1.5047
  792TIP3   OH223790   4.302   4.348  16.552 -0.3054  0.2796  0.8533
  792TIP3    H123791   4.332   4.396  16.629  2.3849  2.8782 -1.5465
  792TIP3    H223792   4.265   4.416  16.495  3.0459 -0.3191 -2.4173
  793TIP3   OH223793   5.365   6.656   4.445  0.1093 -0.1437  0.2441
  793TIP3    H123794   5.416   6.705   4.381  0.9174 -2.9291 -1.4283
  793TIP3    H223795   5.364   6.712   4.523  1.0582  2.3671 -1.4353
  794TIP3   OH223796   1.100   2.257   0.504  0.5713  0.4330  0.1204
  794TIP3    H123797   1.041   2.204   0.451 -0.2262  0.0873  1.3244
  794TIP3    H223798   1.066   2.346   0.496  0.4971  0.3937 -0.0020
  795TIP3   OH223799   4.794   0.362  16.852  0.3033  0.2737  0.3560
  795TIP3    H123800   4.727   0.319  16.905  1.6709  0.3997  2.3006
  795TIP3    H223801   4.877   0.334  16.891  1.3197  2.1126 -0.3663
  796TIP3   OH223802   1.694   4.400  13.155  0.2812 -0.1800 -0.1092
  796TIP3    H123803   1.710   4.472  13.216 -0.3372 -0.8199  0.8360
  796TIP3    H223804   1.599   4.389  13.155 -0.2908  2.3131 -4.1584
  797TIP3   OH223805   3.325   6.152   1.158 -0.9020 -0.3191  0.5995
  797TIP3    H123806   3.334   6.077   1.099 -1.1558 -0.2095  0.4192
  797TIP3    H223807   3.287   6.114   1.238  1.5372 -0.8873  1.5810
  798TIP3   OH223808   0.159   4.319  15.632  0.0474 -0.3371 -0.1091
  798TIP3    H123809   0.084   4.282  15.586 -1.1687  2.4632 -0.5399
  798TIP3    H223810   0.148   4.289  15.723 -0.0897 -2.0838 -0.6651
  799TIP3   OH223811   4.953   4.349  12.862  0.1076 -0.6589 -0.2122
  799TIP3    H123812   4.901   4.424  12.890  0.4005 -0.0830 -1.1916
  799TIP3    H223813   4.889   4.279  12.847 -0.0288 -1.2035  2.4198
  800TIP3   OH223814   3.736   4.779  13.499  0.0729  0.3257  0.2250
  800TIP3    H123815   3.762   4.788  13.407 -0.0873 -1.8993 -0.1001
  800TIP3    H223816   3.723   4.684  13.511 -3.4339  0.8147  1.5524
  801TIP3   OH223817   3.829   5.388   6.296  0.0380  0.3995 -0.0596
  801TIP3    H123818   3.892   5.377   6.367  0.1554 -1.8210 -0.4472
  801TIP3    H223819   3.873   5.352   6.219 -1.1662  0.1341 -0.6475
  802TIP3   OH223820   6.179   4.753  16.543 -0.1327  0.5408  0.4890
  802TIP3    H123821   6.162   4.745  16.449 -0.9807  0.8304  0.6054
  802TIP3    H223822   6.166   4.846  16.562 -0.8153  0.3454  1.0374
  803TIP3   OH223823   3.130   1.174   0.082 -0.2381 -0.2073 -0.8377
  803TIP3    H123824   3.126   1.080   0.100 -2.1455 -0.0133 -0.0208
  803TIP3    H223825   3.156   1.180  -0.010 -1.8078 -1.5994 -1.4136
  804TIP3   OH223826   6.221   2.993   2.279  0.1015 -0.2633 -0.2650
  804TIP3    H123827   6.162   3.050   2.229  0.5358  2.0423  1.6340
  804TIP3    H223828   6.295   2.978   2.220 -0.5893  0.1378 -1.2629
  805TIP3   OH223829   3.511   1.844  14.738  0.3043  0.1381 -0.1223
  805TIP3    H123830   3.420   1.871  14.752  0.5088  0.7768 -0.0319
  805TIP3    H223831   3.556   1.923  14.710  1.5213  0.6329  2.8151
  806TIP3   OH223832   6.181   0.366  16.872  0.2920 -0.4281  0.2443
  806TIP3    H123833   6.148   0.377  16.782  2.4385 -0.4833 -0.6048
  806TIP3    H223834   6.117   0.411  16.926 -1.6023 -1.2342 -1.1869
  807TIP3   OH223835   0.774   3.973  15.210 -0.2516 -0.4268  0.0437
  807TIP3    H123836   0.719   4.008  15.140 -0.6593 -0.2604  0.4358
  807TIP3    H223837   0.712   3.951  15.280  0.1619 -0.3988  0.4250
  808TIP3   OH223838   3.320   0.288   1.524 -0.0483  0.1042  0.1800
  808TIP3    H123839   3.387   0.230   1.489 -0.0192 -1.0822  2.1023
  808TIP3    H223840   3.364   0.373   1.534  0.7047 -0.2573 -0.0401
  809TIP3   OH223841   0.700   0.716   4.936  0.0588  0.2077  0.6765
  809TIP3    H123842   0.776   0.694   4.989 -0.0186  1.2488  1.2269
  809TIP3    H223843   0.644   0.638   4.941  0.0402  0.2881  2.1579
  810TIP3   OH223844   3.321   0.104   4.186  0.5678 -0.2482  0.4644
  810TIP3    H123845   3.411   0.078   4.205  0.7853 -1.2893 -1.6246
  810TIP3    H223846   3.326   0.196   4.160  1.7825 -1.2514 -3.4703
  811TIP3   OH223847   2.729   6.355  14.349 -0.4317  0.3307  0.0757
  811TIP3    H123848   2.665   6.382  14.416 -1.7283  0.5293 -1.1975
  811TIP3    H223849   2.677   6.347  14.269  1.1591  0.4757 -1.0002
  812TIP3   OH223850   2.740   2.039  16.462 -0.6665  0.2939  0.5817
  812TIP3    H123851   2.667   2.075  16.413 -0.5630  0.6878  0.7075
  812TIP3    H223852   2.704   1.963  16.507 -0.2569 -1.3724 -1.7423
  813TIP3   OH223853   0.224   3.454   2.283 -0.2843 -0.0819  0.6149
  813TIP3    H123854   0.265   3.372   2.309 -0.8543 -0.4817  0.2645
  813TIP3    H223855   0.166   3.431   2.211  1.2850  0.9810 -1.1149
  814TIP3   OH223856   1.508   4.799   2.394 -0.2683 -0.3977  0.8561
  814TIP3    H123857   1.548   4.732   2.338  2.5433  1.4332  0.4409
  814TIP3    H223858   1.418   4.768   2.408 -0.5589 -1.9611 -3.0426
  815TIP3   OH223859   5.240   3.020   1.686  0.3008 -1.0467 -0.2656
  815TIP3    H123860   5.318   3.052   1.641 -0.9599  1.0217 -1.1012
  815TIP3    H223861   5.223   3.085   1.754 -0.5208 -1.6327  0.1059
  816TIP3   OH223862   3.618   1.047   4.763 -0.5538  0.5538 -0.9440
  816TIP3    H123863   3.656   1.048   4.851 -1.0141 -0.1240 -0.7284
  816TIP3    H223864   3.690   1.075   4.706  0.0699 -0.0110 -0.4665
  817TIP3   OH223865   0.893   2.530  11.118  0.2955 -0.1609 -0.3045
  817TIP3    H123866   0.932   2.605  11.075  1.1636 -0.3233  0.1690
  817TIP3    H223867   0.852   2.480  11.048 -0.9155  1.0905 -0.5401
  818TIP3   OH223868   3.727   4.054  13.353  0.2771 -0.3174 -0.1019
  818TIP3    H123869   3.633   4.070  13.350 -0.0602 -1.6181  2.0104
  818TIP3    H223870   3.767   4.141  13.353 -1.0712  0.3531  1.8537
  819TIP3   OH223871   3.719   3.400   5.717 -0.1973  0.5139  0.2638
  819TIP3    H123872   3.779   3.428   5.785  1.6954 -0.4046 -0.9466
  819TIP3    H223873   3.759   3.322   5.679 -1.0142  1.1272 -2.0644
  820TIP3   OH223874   3.568   2.143   5.614  0.0232  0.2162 -0.2782
  820TIP3    H123875   3.618   2.216   5.577  1.2551 -0.1722  0.5878
  820TIP3    H223876   3.576   2.073   5.548  0.8394  0.0780 -0.0460
  821TIP3   OH223877   0.112   6.300  12.615  0.3089  0.0482  0.7154
  821TIP3    H123878   0.145   6.285  12.704  0.2376 -1.6653  0.4731
  821TIP3    H223879   0.163   6.375  12.583  2.7919 -1.4163  0.9686
  822TIP3   OH223880   0.391   2.138  14.008 -0.3671 -0.4185 -0.1453
  822TIP3    H123881   0.458   2.099  13.952 -0.2155 -1.2675  0.6017
  822TIP3    H223882   0.351   2.206  13.954 -0.1531 -1.1291 -1.2304
  823TIP3   OH223883   2.543   0.916  13.672 -0.4638  0.4195 -0.2637
  823TIP3    H123884   2.491   0.912  13.753 -0.1997 -1.2736 -0.1303
  823TIP3    H223885   2.632   0.894  13.700  0.0130  1.6574 -0.7459
  824TIP3   OH223886   1.214   2.398   0.147  0.1371  0.1169 -0.2706
  824TIP3    H123887   1.261   2.476   0.177 -0.5300  0.0712  1.0079
  824TIP3    H223888   1.277   2.327   0.158  0.3264  0.2974 -0.1715
  825TIP3   OH223889   3.873   6.469  14.586  0.2766  0.2809 -0.2015
  825TIP3    H123890   3.824   6.434  14.662 -1.9073  0.3318 -1.4937
  825TIP3    H223891   3.958   6.426  14.591 -0.0110 -0.1578  1.9535
  826TIP3   OH223892   0.778   0.120  11.887  0.0598  0.2609  0.1868
  826TIP3    H123893   0.824   0.066  11.823 -1.1512 -1.5208  0.7429
  826TIP3    H223894   0.833   0.197  11.898  0.5261  0.4040 -2.6243
  827TIP3   OH223895   5.280   6.749   4.733  0.2800 -0.1707  0.1640
  827TIP3    H123896   5.244   6.667   4.767  0.1550  0.0654  0.5994
  827TIP3    H223897   5.207   6.791   4.688  0.3614 -0.3273 -0.1178
  828TIP3   OH223898   4.615   3.914  15.372  0.0018  0.0072 -0.2298
  828TIP3    H123899   4.647   3.919  15.461 -0.5151  0.4136 -0.0599
  828TIP3    H223900   4.648   3.993  15.329  0.2822 -0.2064 -0.4123
  829TIP3   OH223901   6.530   2.267  13.910 -0.0376 -0.0127  0.0928
  829TIP3    H123902   6.480   2.196  13.869 -0.1509 -1.9759  3.3002
  829TIP3    H223903   6.620   2.237  13.910  0.6847  1.8295 -2.2202
  830TIP3   OH223904   2.647   2.747   4.689 -0.7413  0.0304  0.0184
  830TIP3    H123905   2.625   2.677   4.628 -1.7625  1.1500 -0.9330
  830TIP3    H223906   2.715   2.798   4.644  0.7354 -0.8843  1.1234
  831TIP3   OH223907   4.267   0.496   0.180 -0.0641 -0.6199  0.2589
  831TIP3    H123908   4.267   0.587   0.211  0.8144 -0.7551  0.6716
  831TIP3    H223909   4.193   0.456   0.225 -2.0185  0.4744 -1.7495
  832TIP3   OH223910   1.733   5.203  14.262  0.5351 -0.2320 -0.7572
  832TIP3    H123911   1.771   5.290  14.244  0.3159  0.1266  0.4486
  832TIP3    H223912   1.689   5.213  14.346  1.3794 -1.7952 -0.0796
  833TIP3   OH223913   0.660   1.045  13.274  0.4936 -0.0922  0.1425
  833TIP3    H123914   0.636   1.039  13.367  1.0950  0.4736  0.3419
  833TIP3    H223915   0.749   1.079  13.275  0.7379 -0.6963 -0.6284
  834TIP3   OH223916   2.478   2.835  14.945 -0.9324  0.1817 -0.0134
  834TIP3    H123917   2.404   2.893  14.924 -0.1431  0.6344 -1.6736
  834TIP3    H223918   2.505   2.799  14.861  1.2241  0.6141  0.4430
  835TIP3   OH223919   3.849   1.691  16.711  0.4342  0.6540 -0.1104
  835TIP3    H123920   3.829   1.666  16.801 -0.1797 -3.5158 -1.2222
  835TIP3    H223921   3.941   1.667  16.699 -0.1879 -1.4226 -1.2413
  836TIP3   OH223922   0.148   4.026  15.110 -0.0037  0.0685  1.0026
  836TIP3    H123923   0.212   3.957  15.093 -0.7565 -0.2801 -0.5959
  836TIP3    H223924   0.194   4.107  15.084  0.0892 -0.0812  0.6977
  837TIP3   OH223925   3.649   5.052  14.993 -0.1780  0.3567 -0.7741
  837TIP3    H123926   3.737   5.090  14.997 -0.7720  1.7400 -0.0978
  837TIP3    H223927   3.610   5.090  14.914 -0.2145 -0.1738 -1.0168
  838TIP3   OH223928   4.382   2.614   5.220 -0.3875 -0.1281 -0.7637
  838TIP3    H123929   4.411   2.527   5.191  0.6473 -0.3120  0.7222
  838TIP3    H223930   4.308   2.596   5.279  0.0388 -0.0314 -0.1943
  839TIP3   OH223931   5.362   0.699  14.417  0.3289  0.1665  0.3659
  839TIP3    H123932   5.272   0.681  14.388  0.3733  1.1577 -0.4367
  839TIP3    H223933   5.417   0.668  14.344  0.6657 -0.7123  0.9798
  840TIP3   OH223934   3.653   5.488   0.815 -0.0865  0.1115 -0.2624
  840TIP3    H123935   3.663   5.573   0.773 -0.3373 -0.2879 -1.1634
  840TIP3    H223936   3.727   5.482   0.875 -1.0869  1.7394  1.2465
  841TIP3   OH223937   0.702   5.397   5.185 -0.1292 -0.4989  0.1439
  841TIP3    H123938   0.750   5.315   5.192  0.3807 -0.0170  3.9743
  841TIP3    H223939   0.665   5.412   5.272 -0.7546  3.0287 -0.5609
  842TIP3   OH223940   5.201   1.799   3.640  0.6673  0.0189 -0.4510
  842TIP3    H123941   5.271   1.775   3.702 -0.8960 -0.0759  1.3751
  842TIP3    H223942   5.206   1.731   3.572  0.6905 -1.5640  1.0483
  843TIP3   OH223943   6.393   1.681   5.868 -0.4932  0.4598 -0.1065
  843TIP3    H123944   6.396   1.751   5.934 -1.5848  0.5034 -0.0716
  843TIP3    H223945   6.484   1.656   5.855 -0.1256  1.5206  0.2817
  844TIP3   OH223946   3.986   5.025   1.476  0.0847 -0.5396  0.0932
  844TIP3    H123947   4.028   5.038   1.391 -0.9867  0.8159 -0.2775
  844TIP3    H223948   3.892   5.034   1.458 -0.1158  1.0511  1.5812
  845TIP3   OH223949   2.579   3.818  16.992  0.5863 -0.4099  0.4884
  845TIP3    H123950   2.504   3.800  16.935  0.0717  2.2086  0.2530
  845TIP3    H223951   2.635   3.741  16.982 -0.4708 -0.9470 -1.9200
  846TIP3   OH223952   0.528   4.340  15.792 -0.4768 -0.3081 -0.0972
  846TIP3    H123953   0.460   4.404  15.769  0.5031  0.5618 -0.6191
  846TIP3    H223954   0.480   4.258  15.801 -1.4016 -0.0492 -2.0943
  847TIP3   OH223955   4.381   4.126  17.310  0.1847  0.1518 -0.4015
  847TIP3    H123956   4.343   4.204  17.350  0.5746  0.4071 -0.5235
  847TIP3    H223957   4.307   4.084  17.265  0.1033  0.8246 -0.9288
  848TIP3   OH223958   1.551   0.072   4.379 -0.2938  0.7039  0.2516
  848TIP3    H123959   1.517  -0.015   4.397 -0.9256  0.9626  0.3354
  848TIP3    H223960   1.627   0.081   4.438  0.3054 -0.1051 -0.3761
  849TIP3   OH223961   2.181   1.784   5.435  0.0685 -0.3877  0.3735
  849TIP3    H123962   2.176   1.724   5.509 -1.2455 -0.1915  0.4668
  849TIP3    H223963   2.097   1.774   5.391 -1.1457  2.9214  1.6379
  850TIP3   OH223964   2.744   4.732   3.246 -0.2018  0.3030 -0.2226
  850TIP3    H123965   2.770   4.684   3.168  0.4745  1.7096 -0.9110
  850TIP3    H223966   2.818   4.723   3.306 -1.3197 -2.0291  0.9242
  851TIP3   OH223967   5.299   1.660  16.857 -0.3294  0.2757  0.2311
  851TIP3    H123968   5.244   1.601  16.909 -2.4681  0.3680 -1.7742
  851TIP3    H223969   5.239   1.698  16.792  2.4950 -1.6137 -3.9174
  852TIP3   OH223970   0.294   6.506   0.642  0.7870  0.0235  0.0047
  852TIP3    H123971   0.284   6.420   0.684 -0.2800  0.7910  1.4299
  852TIP3    H223972   0.220   6.513   0.583  0.7777  0.0273  0.0168
  853TIP3   OH223973   3.721   2.252   4.951 -0.0648  0.7715  0.1513
  853TIP3    H123974   3.726   2.287   4.862  3.7758 -1.4446 -0.7523
  853TIP3    H223975   3.635   2.279   4.984 -2.1253  0.8130 -4.5589
  854TIP3   OH223976   2.752   3.049   1.443 -0.0220 -0.2245 -0.1090
  854TIP3    H123977   2.746   2.956   1.464  3.2781 -1.5953 -3.8427
  854TIP3    H223978   2.814   3.085   1.506  1.6646 -1.6033 -0.9114
  855TIP3   OH223979   4.355   2.642   5.553 -0.0582  0.2040  0.6213
  855TIP3    H123980   4.289   2.653   5.485  0.0731 -1.4131  0.1910
  855TIP3    H223981   4.410   2.720   5.547 -0.2736  0.2643 -0.8945
  856TIP3   OH223982   1.282   4.852   5.284  0.4261 -0.3421 -0.4985
  856TIP3    H123983   1.346   4.785   5.308  1.1429  0.3983 -0.3109
  856TIP3    H223984   1.323   4.899   5.211  0.7842  1.0887  0.5691
  857TIP3   OH223985   0.063   5.865  14.133  0.6552  0.4893  0.6953
  857TIP3    H123986   0.081   5.805  14.205 -0.7476 -0.0231  0.6369
  857TIP3    H223987  -0.031   5.859  14.119  0.7425  1.4223 -0.4512
  858TIP3   OH223988   3.521   3.028   5.021  0.3053 -0.2330  0.6413
  858TIP3    H123989   3.583   2.977   5.072  1.8451  2.4146  1.6398
  858TIP3    H223990   3.451   2.967   4.999  2.0897 -2.7485  1.5295
  859TIP3   OH223991   2.977   1.084   1.576  0.3840  0.2414  0.2943
  859TIP3    H123992   3.030   1.153   1.538 -1.1490  1.0119 -0.5499
  859TIP3    H223993   2.906   1.071   1.513 -0.9554 -0.0813  1.8043
  860TIP3   OH223994   0.725   0.678  16.096  0.0570 -0.6506  0.3468
  860TIP3    H123995   0.636   0.690  16.063 -1.0820 -1.3030  2.9529
  860TIP3    H223996   0.750   0.763  16.133  1.1003 -0.0913 -1.4855
  861TIP3   OH223997   6.719   5.256   3.728  0.0194 -0.2748 -0.3048
  861TIP3    H123998   6.729   5.162   3.709  0.9218 -0.0917 -0.7990
  861TIP3    H223999   6.765   5.300   3.657 -1.1428  0.5847 -0.5551
  862TIP3   OH224000   3.416   4.665  14.458  0.0569 -0.3602  0.0169
  862TIP3    H124001   3.409   4.573  14.434  0.7993 -0.3740 -0.1833
  862TIP3    H224002   3.421   4.711  14.374 -3.8024  0.2464 -0.0798
  863TIP3   OH224003   2.912   0.660   6.654  0.1244  0.4497  0.2680
  863TIP3    H124004   2.967   0.720   6.704 -1.4395  2.1492  0.0695
  863TIP3    H224005   2.831   0.654   6.705  0.3682 -1.9144  0.5110
  864TIP3   OH224006   2.474   1.983   4.964 -0.0078 -0.0625  0.5500
  864TIP3    H124007   2.386   1.945   4.971  0.2823 -0.5933  1.4810
  864TIP3    H224008   2.511   1.944   4.886 -0.7106  0.4061 -0.0349
  865TIP3   OH224009   1.044   0.866  13.015 -0.0497 -0.0444  0.4044
  865TIP3    H124010   1.009   0.788  12.972  2.2049 -0.5160 -0.7476
  865TIP3    H224011   1.003   0.867  13.102  0.4536 -2.9975  0.7680
  866TIP3   OH224012   1.531   5.195  11.797 -0.1387 -0.1476 -0.6401
  866TIP3    H124013   1.508   5.197  11.704 -0.5094 -0.6742 -0.5641
  866TIP3    H224014   1.528   5.286  11.824 -0.4087 -0.0273 -1.0546
  867TIP3   OH224015   4.431   4.821  12.737  0.1699 -0.3764 -0.0749
  867TIP3    H124016   4.369   4.761  12.697 -2.6028  0.9758  1.8686
  867TIP3    H224017   4.442   4.788  12.827 -1.3239  1.8312  0.9967
  868TIP3   OH224018   3.837   4.998   0.408 -0.2651 -0.4004  0.6359
  868TIP3    H124019   3.849   5.032   0.319 -0.1956  1.0498  1.1741
  868TIP3    H224020   3.924   4.968   0.433 -0.1654 -0.3072  0.4117
  869TIP3   OH224021   2.472   3.776  11.863  0.7988  0.5098  0.3092
  869TIP3    H124022   2.540   3.711  11.881  0.8881  0.5223  0.0214
  869TIP3    H224023   2.414   3.734  11.800  1.2776  0.9796 -0.4564
  870TIP3   OH224024   1.204   5.526   2.758 -0.0414  0.0162  0.0344
  870TIP3    H124025   1.173   5.448   2.712 -0.7453  0.8247 -0.9054
  870TIP3    H224026   1.250   5.577   2.690  0.8289  0.2070  0.7463
  871TIP3   OH224027   6.579   0.610   4.475 -0.1133  0.1406 -0.2753
  871TIP3    H124028   6.627   0.690   4.452 -0.0609  0.0780 -0.3819
  871TIP3    H224029   6.541   0.630   4.561  1.3857 -0.3722  0.5417
  872TIP3   OH224030   1.868   5.428   5.521  0.2912 -0.6151  0.3744
  872TIP3    H124031   1.956   5.404   5.493  0.7679  1.1639  0.2797
  872TIP3    H224032   1.882   5.489   5.594 -0.8844 -1.1248  1.0539
  873TIP3   OH224033   3.344   4.451  15.585 -0.3062  0.1090 -0.3144
  873TIP3    H124034   3.383   4.474  15.669 -0.8665  1.6335 -0.4308
  873TIP3    H224035   3.274   4.389  15.606 -0.4472  0.4908  0.3560
  874TIP3   OH224036   2.051   0.759  12.087  0.1372  0.0497  0.3592
  874TIP3    H124037   2.112   0.802  12.146  0.6386 -0.8879  0.5500
  874TIP3    H224038   2.101   0.686  12.050 -1.0294 -1.1078  0.9876
  875TIP3   OH224039   0.915   6.137   1.589  0.2974  0.3609 -0.0822
  875TIP3    H124040   0.941   6.095   1.671 -0.4195 -1.3831 -0.7069
  875TIP3    H224041   0.992   6.131   1.533  0.6512  1.1804  0.2970
  876TIP3   OH224042   3.492   6.484  12.972 -0.2030 -0.4363  0.0038
  876TIP3    H124043   3.405   6.505  12.940 -0.2847 -1.0973 -0.2311
  876TIP3    H224044   3.538   6.568  12.975 -1.4589  0.2389  2.0723
  877TIP3   OH224045   3.450   0.030  13.588 -0.5503 -0.3054 -0.1185
  877TIP3    H124046   3.470   0.101  13.526  2.6911  0.6876  1.7971
  877TIP3    H224047   3.509  -0.041  13.561 -2.0685 -1.4211 -0.5819
  878TIP3   OH224048   5.028   3.210  14.560  0.6894 -0.3332 -0.0691
  878TIP3    H124049   5.048   3.236  14.651  1.0866  0.0037 -0.2457
  878TIP3    H224050   5.097   3.252  14.509 -0.0615  0.2265 -0.6259
  879TIP3   OH224051   6.319   1.588   4.072  0.2249  0.3142  0.2470
  879TIP3    H124052   6.413   1.594   4.054  0.3316 -1.8434 -0.1868
  879TIP3    H224053   6.279   1.580   3.985 -0.1772 -0.5300  0.4992
  880TIP3   OH224054   0.055   0.058  11.439 -0.5675  0.4099 -0.1072
  880TIP3    H124055   0.096   0.047  11.525 -0.2027  2.5668  0.0515
  880TIP3    H224056   0.109   0.006  11.380 -0.9562 -1.2802  0.9692
  881TIP3   OH224057   5.617   5.010   3.533 -0.1973 -0.0066 -0.2712
  881TIP3    H124058   5.662   4.944   3.586  1.4707 -0.0778 -1.7013
  881TIP3    H224059   5.574   4.960   3.464 -1.2474  0.2025  0.2103
  882TIP3   OH224060   3.014   3.498   3.751 -0.5292 -0.2078  0.3995
  882TIP3    H124061   3.103   3.465   3.743  0.6495  2.5346  1.0175
  882TIP3    H224062   3.008   3.568   3.686 -2.7107 -1.1304 -0.5052
  883TIP3   OH224063   6.190   4.997  15.948  0.4509  0.3598 -0.8321
  883TIP3    H124064   6.219   5.087  15.931  0.9058  0.3079 -0.3626
  883TIP3    H224065   6.204   4.985  16.042  0.2448 -0.1532 -0.8636
  884TIP3   OH224066   3.770   4.126   0.591 -0.2957 -0.4375  0.0836
  884TIP3    H124067   3.719   4.203   0.568 -1.5331 -1.4565 -0.7648
  884TIP3    H224068   3.824   4.109   0.514  0.6383  0.0728  0.6079
  885TIP3   OH224069   1.344   0.074  13.734 -0.9648 -0.2135  0.3285
  885TIP3    H124070   1.412   0.141  13.734 -1.7117  0.5968 -1.4349
  885TIP3    H224071   1.293   0.090  13.654 -0.9370 -3.1235 -0.3945
  886TIP3   OH224072   3.627   0.481  16.574 -0.1626 -0.8879  0.1449
  886TIP3    H124073   3.557   0.437  16.622  0.3551 -0.9518  0.8517
  886TIP3    H224074   3.590   0.496  16.487 -0.8904 -1.3324  0.3667
  887TIP3   OH224075   5.949   1.552  16.139  0.0698 -0.2297  0.2818
  887TIP3    H124076   5.860   1.519  16.132 -0.1575  0.4393 -0.1007
  887TIP3    H224077   5.944   1.642  16.107  0.5816  0.3235  1.6714
  888TIP3   OH224078   3.225   3.921  11.658  0.4560  0.4964  0.4879
  888TIP3    H124079   3.145   3.882  11.623 -0.0889 -0.3707  2.5863
  888TIP3    H224080   3.295   3.866  11.625  0.0985  0.4845 -0.2832
  889TIP3   OH224081   4.952   0.434   2.865 -0.6930 -0.1746 -0.1727
  889TIP3    H124082   4.925   0.523   2.886  0.8775  0.6275 -1.4033
  889TIP3    H224083   5.013   0.443   2.793 -0.3606 -2.2508 -0.2239
  890TIP3   OH224084   3.223   4.854  11.885 -1.0338  0.2312 -0.1680
  890TIP3    H124085   3.134   4.823  11.869 -1.1292  0.3563  0.0978
  890TIP3    H224086   3.252   4.891  11.802 -1.0572 -0.2325 -0.3819
  891TIP3   OH224087   2.091   3.196   5.069 -0.6436 -0.3470  0.2600
  891TIP3    H124088   2.163   3.259   5.068  0.3075 -1.3107  2.2350
  891TIP3    H224089   2.014   3.249   5.091  0.0384  0.2570  1.3024
  892TIP3   OH224090   2.580   2.554   0.470  0.1904  0.5321 -0.6301
  892TIP3    H124091   2.516   2.619   0.498  0.0433 -0.5766  1.8629
  892TIP3    H224092   2.665   2.592   0.493  0.2472  0.6586 -1.0297
  893TIP3   OH224093   3.197   5.683  12.217  0.6557  0.4812 -0.6098
  893TIP3    H124094   3.109   5.646  12.211  0.7547  0.3370 -1.1805
  893TIP3    H224095   3.184   5.778  12.217  0.4598  0.4638  0.0035
  894TIP3   OH224096   4.325   5.501  12.574  0.4025 -0.3474  0.1633
  894TIP3    H124097   4.308   5.432  12.510 -1.0728  0.0955  0.0552
  894TIP3    H224098   4.301   5.582  12.530 -1.9834 -0.1278  1.6682
  895TIP3   OH224099   6.055   6.482   4.770 -0.0328 -0.1055  0.0294
  895TIP3    H124100   6.105   6.419   4.822 -0.7162  0.3205  1.2552
  895TIP3    H224101   6.077   6.567   4.808  0.0967  0.3001 -0.9412
  896TIP3   OH224102   5.388   4.831   1.565  0.6083  0.1952 -0.1071
  896TIP3    H124103   5.340   4.783   1.497  0.2855  1.0230 -0.4679
  896TIP3    H224104   5.480   4.819   1.542  0.5592 -0.6950  0.1130
  897TIP3   OH224105   1.564   6.485  17.361  0.1416 -0.1920 -0.4446
  897TIP3    H124106   1.573   6.401  17.315  2.4943  0.3231 -1.0281
  897TIP3    H224107   1.603   6.469  17.447 -1.7169 -0.3641  0.4097
  898TIP3   OH224108   2.181   1.160   4.199 -0.4134 -0.3984  0.5845
  898TIP3    H124109   2.126   1.113   4.136 -0.2393 -0.5155  0.5191
  898TIP3    H224110   2.185   1.101   4.275  1.0541 -1.2011 -0.0664
  899TIP3   OH224111   6.355   5.592  12.512 -0.9661  0.1201  0.2064
  899TIP3    H124112   6.300   5.540  12.571 -1.3483 -1.5600 -1.5307
  899TIP3    H224113   6.435   5.540  12.502 -1.9748 -1.0823 -2.7873
  900TIP3   OH224114   1.969   6.282   4.585  0.4729  0.0790 -0.4140
  900TIP3    H124115   1.886   6.320   4.555  0.7333  0.3375 -0.7992
  900TIP3    H224116   1.947   6.190   4.601  0.6253 -0.4085 -2.6773
  901TIP3   OH224117   5.570   5.363   2.290  0.0098  0.0962  0.0885
  901TIP3    H124118   5.596   5.361   2.382  0.9301  0.8939 -0.1345
  901TIP3    H224119   5.523   5.281   2.277 -3.7640  1.6454  2.2633
  902TIP3   OH224120   3.599   3.088   2.077 -0.4131  0.1601  0.3186
  902TIP3    H124121   3.534   3.024   2.105  0.1042 -1.4462 -1.8137
  902TIP3    H224122   3.566   3.172   2.107 -0.3442 -1.1190  4.7454
  903TIP3   OH224123   4.534   5.513   0.423 -0.6794  0.0106 -0.1161
  903TIP3    H124124   4.619   5.513   0.466 -1.0742 -0.2046  0.6817
  903TIP3    H224125   4.551   5.546   0.335  0.3870 -0.8981 -0.2723
  904TIP3   OH224126   5.608   6.633  15.348  0.0268  0.1000  0.2034
  904TIP3    H124127   5.529   6.607  15.396  1.6234 -4.6790  0.8681
  904TIP3    H224128   5.577   6.650  15.259 -1.9509 -0.1220  0.7859
  905TIP3   OH224129   0.232   3.539  15.967 -0.4589  0.2032 -0.2024
  905TIP3    H124130   0.273   3.453  15.972  1.4294  1.1452  2.6600
  905TIP3    H224131   0.305   3.600  15.957 -1.6517  1.5950 -0.7966
  906TIP3   OH224132   4.642   5.716   0.203  0.4098 -0.0880  0.0037
  906TIP3    H124133   4.699   5.642   0.183 -0.1516 -0.5252  0.0098
  906TIP3    H224134   4.687   5.791   0.165  0.7795 -0.4859 -0.3608
  907TIP3   OH224135   4.607   5.211  13.337  0.5959  0.2034 -0.0983
  907TIP3    H124136   4.520   5.248  13.351  0.8647  0.3585  1.2587
  907TIP3    H224137   4.606   5.183  13.245 -0.0040  2.5047 -0.8603
  908TIP3   OH224138   2.150   5.672   6.014  0.3924  0.2066  0.3065
  908TIP3    H124139   2.128   5.711   6.098  0.0237 -0.2171  0.4103
  908TIP3    H224140   2.066   5.642   5.978  0.2114  2.2549 -1.1822
  909TIP3   OH224141   0.063   6.694  12.710 -0.0478 -0.1894 -0.3857
  909TIP3    H124142   0.142   6.658  12.669  0.9842  4.1625 -2.9286
  909TIP3    H224143   0.087   6.784  12.732 -3.1460  0.0713  2.6952
  910TIP3   OH224144   4.220   1.392   3.048  0.2244  0.4010 -0.0182
  910TIP3    H124145   4.228   1.419   2.957 -0.9942  1.7351  0.2365
  910TIP3    H224146   4.229   1.474   3.098  1.1911 -0.3474  1.0871
  911TIP3   OH224147   3.075   3.976   3.812 -0.7028 -0.6218 -0.4863
  911TIP3    H124148   3.112   3.889   3.827 -2.0745 -1.2747 -0.7305
  911TIP3    H224149   3.151   4.035   3.811  0.1709 -1.6883  0.5265
  912TIP3   OH224150   2.644   4.187  13.851  0.3485 -0.4940 -0.3009
  912TIP3    H124151   2.553   4.189  13.881  0.7494  1.7935  0.9627
  912TIP3    H224152   2.671   4.096  13.865 -2.0121 -1.5321 -1.7462
  913TIP3   OH224153   1.926   2.920  12.015  0.3264 -0.2531 -0.0895
  913TIP3    H124154   1.974   2.901  12.095  1.2437  1.3484 -0.2125
  913TIP3    H224155   1.987   2.898  11.944  0.3212  0.3395 -0.2842
  914TIP3   OH224156   3.001   1.012  13.959  0.0236 -0.5612  0.1525
  914TIP3    H124157   3.064   0.940  13.964  1.8004  0.9792  2.2073
  914TIP3    H224158   3.053   1.087  13.930 -1.2299  0.4208  0.3697
  915TIP3   OH224159   5.989   5.174   2.580 -0.0812  0.2148 -0.6667
  915TIP3    H124160   5.988   5.095   2.527  0.6877 -0.0184 -0.3410
  915TIP3    H224161   5.965   5.244   2.518 -0.7102 -0.2528 -0.9634
  916TIP3   OH224162   4.647   6.261  12.216  0.1874 -0.0934  0.2647
  916TIP3    H124163   4.661   6.168  12.236  0.6364  0.0084  0.4425
  916TIP3    H224164   4.626   6.262  12.123 -0.1735 -0.4079  0.3399
  917TIP3   OH224165   4.367   3.060  16.673  0.0907 -0.2057 -0.3457
  917TIP3    H124166   4.313   2.984  16.651  0.4205 -0.6587  0.3681
  917TIP3    H224167   4.373   3.058  16.768  0.0812  0.7384 -0.3238
  918TIP3   OH224168   2.173   0.044   2.193  0.2624 -0.4319  0.5352
  918TIP3    H124169   2.213  -0.019   2.253 -0.6400 -0.5604  1.0158
  918TIP3    H224170   2.102   0.084   2.243  0.5550  0.6814  0.1018
  919TIP3   OH224171   5.508   6.395   5.164 -0.5690  0.0047 -0.2067
  919TIP3    H124172   5.583   6.433   5.210 -0.0790 -3.0865  1.8232
  919TIP3    H224173   5.546   6.346   5.091 -0.3710 -2.3537  1.3738
  920TIP3   OH224174   3.403   0.298  16.259 -0.2989  0.0204  0.6272
  920TIP3    H124175   3.441   0.378  16.298  0.5188  0.7784 -1.6032
  920TIP3    H224176   3.360   0.329  16.180  1.7245 -1.9714 -1.3688
  921TIP3   OH224177   5.475   1.245   6.251  0.3006  0.7028  1.2848
  921TIP3    H124178   5.449   1.337   6.258  0.8992  1.0723 -0.6064
  921TIP3    H224179   5.394   1.200   6.225 -0.1386  0.5529  2.8035
  922TIP3   OH224180   3.365   6.413  15.727 -0.0248  0.2279 -0.0407
  922TIP3    H124181   3.288   6.428  15.782 -0.9376 -2.5722 -0.4241
  922TIP3    H224182   3.330   6.382  15.644  1.5041  0.1432 -0.6918
  923TIP3   OH224183   2.090   1.082  12.569  0.2490  0.2650 -0.1039
  923TIP3    H124184   2.029   1.018  12.605  1.0489 -0.2392  0.3854
  923TIP3    H224185   2.176   1.045  12.586  0.7424  1.5771  0.4018
  924TIP3   OH224186   1.861   0.725   1.097  1.2207  0.4527 -0.2029
  924TIP3    H124187   1.831   0.793   1.157 -1.0058 -2.0671  1.8223
  924TIP3    H224188   1.920   0.671   1.149  2.1739  0.2325 -1.4597
  925TIP3   OH224189   1.443   2.607   3.290  0.2157 -0.2704 -0.0242
  925TIP3    H124190   1.491   2.687   3.312  1.4450 -0.1236 -2.8058
  925TIP3    H224191   1.473   2.543   3.355 -0.1489  1.2539  1.7304
  926TIP3   OH224192   6.228   0.051   1.124 -0.3936  0.7794 -0.2877
  926TIP3    H124193   6.231   0.126   1.184 -1.0094 -0.0188  0.7766
  926TIP3    H224194   6.314   0.010   1.132 -1.3678 -0.9655  2.2724
  927TIP3   OH224195   2.521   2.130  16.339  0.4460  0.0481  0.1634
  927TIP3    H124196   2.447   2.076  16.366  0.2833  0.5884  0.8331
  927TIP3    H224197   2.486   2.183  16.267  0.5176 -0.5075 -0.2840
  928TIP3   OH224198   2.812   2.388   0.349 -0.2420 -0.1857 -0.2505
  928TIP3    H124199   2.742   2.452   0.336  0.1645 -0.0815 -2.4455
  928TIP3    H224200   2.884   2.439   0.386 -0.9390 -0.0588  0.9609
  929TIP3   OH224201   6.630   0.569  12.440 -0.0262  0.5970 -0.1887
  929TIP3    H124202   6.559   0.514  12.406 -0.4768 -1.9320  4.1387
  929TIP3    H224203   6.709   0.530  12.403 -0.6107  0.0989 -0.9524
  930TIP3   OH224204   5.389   5.087  13.791  0.6695 -0.2217 -0.0449
  930TIP3    H124205   5.479   5.056  13.779  0.2964 -0.8391 -1.4420
  930TIP3    H224206   5.361   5.113  13.703 -1.0996 -1.6773  0.0380
  931TIP3   OH224207   1.031   5.325  13.086 -0.4037 -0.1317  0.1407
  931TIP3    H124208   0.949   5.284  13.059 -0.9169  2.1095 -2.0781
  931TIP3    H224209   1.004   5.406  13.130  0.6040  0.3160 -0.0476
  932TIP3   OH224210   5.369   4.846  15.396 -0.0596  0.7352  0.6932
  932TIP3    H124211   5.419   4.797  15.461 -0.2321 -0.0944  0.2297
  932TIP3    H224212   5.352   4.781  15.327  0.5321  1.7070 -0.3992
  933TIP3   OH224213   2.174   2.272  15.149  0.1303  0.3461  0.6057
  933TIP3    H124214   2.198   2.184  15.123  1.0677  0.6226  0.4936
  933TIP3    H224215   2.134   2.262  15.236 -0.4500 -0.2603  0.2725
  934TIP3   OH224216   5.970   0.441  11.250  0.5751  0.6547 -0.1237
  934TIP3    H124217   5.937   0.499  11.182  1.7197 -0.5954 -1.8329
  934TIP3    H224218   5.893   0.394  11.281  0.1372  0.6619 -1.1585
  935TIP3   OH224219   3.301   0.337   4.083  0.1451  0.1730  0.2858
  935TIP3    H124220   3.245   0.369   4.153 -0.2610  0.8295 -0.3246
  935TIP3    H224221   3.301   0.407   4.018  0.5334 -0.4091 -0.3593
  936TIP3   OH224222   2.266   0.012  12.388 -0.2260  0.2228 -0.0751
  936TIP3    H124223   2.304   0.063  12.317 -0.9985  1.5751  0.4482
  936TIP3    H224224   2.189  -0.031  12.349 -0.0402  0.1009 -0.3106
  937TIP3   OH224225   6.480   6.599  13.983 -0.0956 -0.7112 -0.0880
  937TIP3    H124226   6.542   6.584  13.911 -0.0370  1.1557 -0.4865
  937TIP3    H224227   6.403   6.548  13.959  0.4366 -1.2199 -0.7637
  938TIP3   OH224228   6.254   2.182   0.786 -0.0828 -1.0332  0.2293
  938TIP3    H124229   6.164   2.149   0.786  0.4070 -2.4415  0.2615
  938TIP3    H224230   6.266   2.217   0.874 -0.8542 -0.0866 -0.0341
  939TIP3   OH224231   0.216   1.051  13.659  0.8209  0.3844 -0.6096
  939TIP3    H124232   0.175   0.991  13.722 -0.0816 -1.3072 -2.6792
  939TIP3    H224233   0.310   1.034  13.668  0.6659 -0.2522 -0.0943
  940TIP3   OH224234   2.678   2.855   3.643  0.4182 -0.0986 -0.6047
  940TIP3    H124235   2.751   2.803   3.676 -0.5599 -0.9348  0.3360
  940TIP3    H224236   2.691   2.942   3.681  1.4731  0.0618 -1.2959
  941TIP3   OH224237   4.186   3.714  15.076  0.3601  0.6452  0.4795
  941TIP3    H124238   4.221   3.636  15.119 -0.6345  0.0409  0.2180
  941TIP3    H224239   4.227   3.713  14.989 -1.0769 -0.6609 -0.2270
  942TIP3   OH224240   1.162   0.440  14.576  0.6803  0.5863  0.7777
  942TIP3    H124241   1.072   0.437  14.609  0.1856 -0.9854 -0.5672
  942TIP3    H224242   1.181   0.349  14.552  2.5371  0.9485  0.7621
  943TIP3   OH224243   2.450   5.149   3.238  0.0108 -0.0643 -0.1621
  943TIP3    H124244   2.396   5.119   3.165  0.0292 -1.3128  0.3084
  943TIP3    H224245   2.539   5.120   3.216  0.2033  0.4694 -0.1212
  944TIP3   OH224246   1.120   2.631   1.756  0.5182  0.4630  0.6373
  944TIP3    H124247   1.042   2.657   1.707  0.6163  0.8000  0.6618
  944TIP3    H224248   1.086   2.602   1.841  0.6216  3.5722  1.8854
  945TIP3   OH224249   1.179   0.647  14.042 -0.1653  0.1025  0.2653
  945TIP3    H124250   1.133   0.588  14.102  0.5410  0.4468  1.1880
  945TIP3    H224251   1.268   0.610  14.037 -0.2746 -0.0299 -0.7332
  946TIP3   OH224252   2.117   2.048  13.845 -0.3335 -0.3643  0.1413
  946TIP3    H124253   2.143   2.065  13.755  0.6692 -0.1230  0.4580
  946TIP3    H224254   2.079   2.130  13.875 -2.0045 -0.8699 -0.4822
  947TIP3   OH224255   0.534   5.698  13.572  0.7574  0.0466  0.2490
  947TIP3    H124256   0.471   5.716  13.642 -0.1048 -0.0886 -0.4720
  947TIP3    H224257   0.514   5.763  13.505  0.4320 -0.8856 -0.5806
  948TIP3   OH224258   5.830   0.317   1.274 -0.2142  0.0938  0.0360
  948TIP3    H124259   5.840   0.408   1.301  0.3073 -0.6428  2.5935
  948TIP3    H224260   5.762   0.282   1.332  1.0790 -1.6488  0.6058
  949TIP3   OH224261   5.184   3.694  14.703  0.0383  0.7145  0.2744
  949TIP3    H124262   5.202   3.766  14.763  2.1967  0.9483 -0.5385
  949TIP3    H224263   5.261   3.637  14.711 -0.2029  0.1071 -1.3124
  950TIP3   OH224264   0.189   0.298   3.161  0.4676  0.2924  0.0487
  950TIP3    H124265   0.173   0.228   3.224  0.8002 -0.4052 -0.6241
  950TIP3    H224266   0.247   0.259   3.096  0.1098  0.9854 -0.7075
  951TIP3   OH224267   2.778   1.352   2.477 -0.0537 -0.0587 -0.3123
  951TIP3    H124268   2.854   1.409   2.462  1.1498 -1.6558 -0.5260
  951TIP3    H224269   2.719   1.372   2.404 -0.5224  2.1911  0.5985
  952TIP3   OH224270   1.280   1.139   0.713 -0.1658  0.3734 -0.4596
  952TIP3    H124271   1.189   1.142   0.683 -0.5326 -0.3748  0.5379
  952TIP3    H224272   1.282   1.194   0.791  0.2997  0.5651 -0.6004
  953TIP3   OH224273   6.072   3.172  13.997  0.3587  0.1069 -0.4759
  953TIP3    H124274   6.083   3.077  13.993  0.5907  0.1638 -1.7394
  953TIP3    H224275   5.998   3.190  13.939 -0.6310  0.5785  0.8971
  954TIP3   OH224276   4.020   2.152   5.203  0.1045  0.2383 -0.2846
  954TIP3    H124277   3.951   2.085   5.199  0.1486  0.2092 -0.5370
  954TIP3    H224278   4.077   2.123   5.274 -2.2356  2.2367  2.6592
  955TIP3   OH224279   5.663   2.921   4.478 -0.1661 -0.3894  0.2228
  955TIP3    H124280   5.677   2.852   4.413  2.7556  0.3270 -0.0490
  955TIP3    H224281   5.608   2.985   4.433  0.3095 -0.7561 -0.9163
  956TIP3   OH224282   2.929   5.170  12.709  0.4405 -0.3315  0.0918
  956TIP3    H124283   2.874   5.108  12.757 -0.8266 -0.9715 -2.0664
  956TIP3    H224284   2.884   5.183  12.626  1.9172  1.6681 -0.4863
  957TIP3   OH224285   0.314   6.264   2.802  0.3656  0.6700  0.2154
  957TIP3    H124286   0.382   6.275   2.868  0.5128 -0.4770  0.2893
  957TIP3    H224287   0.257   6.196   2.839 -0.8006  1.5839  0.1382
  958TIP3   OH224288   5.091   3.098  16.604 -0.0902 -0.4336 -0.2123
  958TIP3    H124289   5.062   3.025  16.659  0.4181 -0.0896  0.5190
  958TIP3    H224290   5.156   3.060  16.545 -0.9863 -0.9076 -0.9273
  959TIP3   OH224291   2.185   0.338  11.577  0.1223  0.0681  0.1507
  959TIP3    H124292   2.151   0.263  11.527 -0.7365  1.2046 -1.0267
  959TIP3    H224293   2.232   0.391  11.512  4.8448 -1.6438  1.7300
  960TIP3   OH224294   1.908   3.081  13.604 -0.5385  0.2069  0.0130
  960TIP3    H124295   1.819   3.074  13.637 -0.8400  0.4910 -0.7146
  960TIP3    H224296   1.900   3.131  13.522  0.3004  0.3576  0.0064
  961TIP3   OH224297   0.349   1.375  15.832  0.1021  0.3604 -0.7030
  961TIP3    H124298   0.315   1.315  15.765  2.8254 -0.0644 -1.8067
  961TIP3    H224299   0.442   1.354  15.838  0.3584  1.8576  1.7382
  962TIP3   OH224300   5.388   2.933   0.666 -0.0196  0.2789 -0.0845
  962TIP3    H124301   5.331   2.986   0.722 -0.7029 -0.2660 -0.2486
  962TIP3    H224302   5.421   2.994   0.600 -1.7896  0.2883 -1.0383
  963TIP3   OH224303   3.759   5.832  11.081  0.4177  0.2780  0.2165
  963TIP3    H124304   3.831   5.824  11.018 -0.2589  0.8852 -0.6497
  963TIP3    H224305   3.762   5.750  11.131  0.0776 -0.8655 -1.5563
  964TIP3   OH224306   4.920   5.909   5.563 -0.0820  0.2865 -0.1943
  964TIP3    H124307   4.909   5.898   5.468 -1.6593  1.7248 -0.2268
  964TIP3    H224308   5.011   5.938   5.574  0.1332  0.0476 -1.2545
  965TIP3   OH224309   0.396   4.260   2.806 -0.2183  0.4330  0.2296
  965TIP3    H124310   0.309   4.299   2.802  0.2015  1.3258 -0.6587
  965TIP3    H224311   0.440   4.291   2.726 -0.0779 -2.4150 -0.8895
  966TIP3   OH224312   4.927   1.765   3.620  0.3302  0.3060  0.1532
  966TIP3    H124313   5.019   1.740   3.624  0.3506  0.1306 -0.9996
  966TIP3    H224314   4.923   1.830   3.550 -0.2138  1.3515  1.1211
  967TIP3   OH224315   4.823   1.226  13.888  0.1505  0.4139 -0.2139
  967TIP3    H124316   4.878   1.150  13.910 -2.1835 -1.6290 -1.0211
  967TIP3    H224317   4.787   1.205  13.802 -0.6605  2.4096 -0.4052
  968TIP3   OH224318   2.094   5.011   3.765  0.1491 -0.2786  0.0868
  968TIP3    H124319   2.100   4.935   3.707 -0.3236 -0.6869  0.5653
  968TIP3    H224320   2.185   5.036   3.781  0.4711 -2.4229  2.1000
  969TIP3   OH224321   6.288   2.333  16.078 -0.7138 -0.1353 -0.1661
  969TIP3    H124322   6.335   2.308  15.999 -1.2393 -0.0242 -0.5224
  969TIP3    H224323   6.320   2.421  16.100 -0.0300 -0.4633  0.1746
  970TIP3   OH224324   5.558   2.752   5.743  0.0551  0.0948 -0.4185
  970TIP3    H124325   5.570   2.815   5.672  1.0855  0.5873  0.1715
  970TIP3    H224326   5.535   2.806   5.819  0.0868 -0.3175 -0.1141
  971TIP3   OH224327   5.214   0.597  17.217  0.2688  0.2331  0.4300
  971TIP3    H124328   5.195   0.659  17.287 -0.7380 -0.7843  1.0840
  971TIP3    H224329   5.308   0.608  17.201  0.4296  0.7869  1.6395
  972TIP3   OH224330   4.592   5.741  14.606  0.6649  0.5872 -0.3303
  972TIP3    H124331   4.606   5.823  14.559 -4.0638  1.7745 -0.2310
  972TIP3    H224332   4.594   5.767  14.698  0.9850  0.2202 -0.2378
  973TIP3   OH224333   5.776   6.493   6.095 -0.0929  0.0128  0.0119
  973TIP3    H124334   5.865   6.461   6.082  0.9300  3.0226 -1.3218
  973TIP3    H224335   5.752   6.463   6.182  1.9160 -1.5334  0.1073
  974TIP3   OH224336   2.050   4.421   0.437  0.2649  0.4500 -0.0087
  974TIP3    H124337   1.961   4.401   0.408  0.0393  0.1207  0.8575
  974TIP3    H224338   2.039   4.450   0.528  1.1259 -0.4322  0.3930
  975TIP3   OH224339   3.396   0.366  16.668  0.3304 -0.6124 -0.0517
  975TIP3    H124340   3.317   0.396  16.713 -0.4122  0.0291 -1.7037
  975TIP3    H224341   3.370   0.284  16.626  1.8672 -2.8935  3.0354
  976TIP3   OH224342   0.447   0.003   3.693 -0.8557  0.3033 -0.7018
  976TIP3    H124343   0.443  -0.055   3.769 -0.8312  0.6980 -0.3951
  976TIP3    H224344   0.426   0.090   3.728 -0.2681  0.5853 -1.0375
  977TIP3   OH224345   5.596   0.127   4.545 -0.3957 -1.4073 -0.3526
  977TIP3    H124346   5.675   0.155   4.500  0.9731 -0.3580  2.4511
  977TIP3    H224347   5.525   0.141   4.482  1.4037 -0.5118 -2.2734
  978TIP3   OH224348   5.474   4.793  11.047  0.2928  0.2771  0.4125
  978TIP3    H124349   5.481   4.869  11.104  3.2143 -1.9332  3.4157
  978TIP3    H224350   5.413   4.734  11.092 -0.7447  0.1076 -1.0927
  979TIP3   OH224351   1.938   6.237   5.166 -0.0239 -0.1251 -0.1551
  979TIP3    H124352   1.999   6.297   5.123  0.1316  1.0379  1.5915
  979TIP3    H224353   1.851   6.270   5.143  0.0518  1.4812  1.6140
  980TIP3   OH224354   4.744   0.972  16.466  0.2151 -0.3110 -0.4833
  980TIP3    H124355   4.729   1.059  16.429  0.1077 -0.2664 -0.3361
  980TIP3    H224356   4.738   0.913  16.391  2.0112 -0.0377 -0.8845
  981TIP3   OH224357   2.838   3.540  14.571 -0.2985 -0.0490  0.0174
  981TIP3    H124358   2.814   3.615  14.625 -0.6972  0.6202 -1.0645
  981TIP3    H224359   2.758   3.516  14.525  0.2068 -0.1318 -0.8445
  982TIP3   OH224360   2.494   4.583   6.054  0.1432 -0.8287 -0.0977
  982TIP3    H124361   2.478   4.564   5.961  1.6159 -1.7336 -0.1828
  982TIP3    H224362   2.586   4.606   6.058 -0.7634  3.4787  0.5013
  983TIP3   OH224363   3.030   6.205   3.088 -0.2282 -0.0454 -0.2067
  983TIP3    H124364   2.936   6.200   3.107 -0.1494 -2.4713 -0.0720
  983TIP3    H224365   3.067   6.252   3.163 -0.9275 -2.3637  1.7194
  984TIP3   OH224366   1.620   3.901   1.094  0.2204 -0.3992  0.1719
  984TIP3    H124367   1.659   3.856   1.019 -0.5746 -1.7602  0.5267
  984TIP3    H224368   1.633   3.841   1.167 -2.2873 -0.8550  0.3502
  985TIP3   OH224369   5.553   0.207   5.664  0.2535 -0.1628  0.3528
  985TIP3    H124370   5.524   0.140   5.602 -2.2586  1.7201 -0.6757
  985TIP3    H224371   5.634   0.242   5.626  1.0870 -1.9193  0.4308
  986TIP3   OH224372   0.833   3.941  12.790 -0.3849 -0.3993 -0.2742
  986TIP3    H124373   0.744   3.925  12.757 -0.7162  1.0419 -0.1163
  986TIP3    H224374   0.834   4.033  12.813  0.4196 -0.9231  2.0438
  987TIP3   OH224375   0.344   2.342  11.317 -0.2914 -0.1711 -0.2617
  987TIP3    H124376   0.307   2.424  11.350 -0.2679 -0.1228 -0.3552
  987TIP3    H224377   0.333   2.347  11.222 -0.6085 -0.4295 -0.2425
  988TIP3   OH224378   3.258   6.359   2.459  0.6911 -0.2471  0.1449
  988TIP3    H124379   3.251   6.267   2.433 -0.9509 -0.6179  1.6945
  988TIP3    H224380   3.315   6.358   2.535  1.9613  0.2644 -0.7704
  989TIP3   OH224381   1.243   5.723  14.444 -0.6302 -0.0175 -0.1689
  989TIP3    H124382   1.268   5.814  14.429 -1.1117 -0.2455 -2.8260
  989TIP3    H224383   1.325   5.678  14.463 -0.5406  1.1456  2.6906
  990TIP3   OH224384   0.674   4.565   1.513 -0.4074  0.5674 -0.3217
  990TIP3    H124385   0.589   4.548   1.554  1.1308 -0.0126  3.0310
  990TIP3    H224386   0.697   4.483   1.471  0.7544 -1.3671  3.5826
  991TIP3   OH224387   0.697   6.642   5.336  0.0727 -0.2251 -0.0916
  991TIP3    H124388   0.615   6.598   5.315  0.4494 -0.7512 -0.4879
  991TIP3    H224389   0.675   6.701   5.409 -0.3741 -1.3341  0.6995
  992TIP3   OH224390   3.170   5.752  14.607 -0.0294 -0.3031 -0.1361
  992TIP3    H124391   3.096   5.690  14.608 -1.3757  1.1630 -1.9038
  992TIP3    H224392   3.153   5.811  14.681 -0.5178 -0.0968 -0.4107
  993TIP3   OH224393   1.890   6.066   5.589  0.1892  0.1723  0.4711
  993TIP3    H124394   1.801   6.101   5.589  0.4511  1.2147  3.9700
  993TIP3    H224395   1.941   6.130   5.540 -0.8958 -0.4494 -1.5990
  994TIP3   OH224396   5.942   3.910   3.292 -0.4990 -0.2951 -0.3163
  994TIP3    H124397   6.021   3.963   3.282 -0.5305 -0.3869 -1.1249
  994TIP3    H224398   5.892   3.928   3.213 -1.2777 -0.2656  0.1771
  995TIP3   OH224399   2.938   0.819  11.980 -0.8995  0.3470 -0.3432
  995TIP3    H124400   2.844   0.839  11.985 -0.6544  1.2529  1.3997
  995TIP3    H224401   2.958   0.778  12.064  0.4933  1.2187 -0.2252
  996TIP3   OH224402   4.845   5.995  13.941 -0.0671  0.0380 -0.4088
  996TIP3    H124403   4.935   5.989  13.909 -0.7545  0.7506 -2.6583
  996TIP3    H224404   4.804   5.913  13.914 -0.7519  0.7910 -1.7070
  997TIP3   OH224405   3.081   6.438  13.695 -0.3219 -0.2746  0.4524
  997TIP3    H124406   3.037   6.518  13.725 -1.3424 -0.2857 -0.9040
  997TIP3    H224407   3.124   6.464  13.614  1.3715 -0.5382  1.2298
  998TIP3   OH224408   3.137   5.146  16.618 -0.3106 -0.1951  0.4372
  998TIP3    H124409   3.056   5.195  16.605  0.9359  1.4695 -1.8252
  998TIP3    H224410   3.112   5.055  16.604 -2.1578  0.0325  1.9435
  999TIP3   OH224411   6.244   0.106  14.935 -0.5150  0.1334 -0.0099
  999TIP3    H124412   6.165   0.102  14.988 -0.8626 -0.1429 -0.5322
  999TIP3    H224413   6.214   0.136  14.849 -0.1715 -0.6397 -0.4146
 1000TIP3   OH224414   1.949   6.258  11.198 -0.7751 -0.1109  1.1660
 1000TIP3    H124415   2.036   6.285  11.228 -0.7148 -0.4498  1.3074
 1000TIP3    H224416   1.896   6.338  11.201  0.1393  0.6875 -1.2906
 1001TIP3   OH224417   1.706   4.410  15.839  0.0460  0.0965  0.0764
 1001TIP3    H124418   1.650   4.336  15.865  0.4913  0.3917  2.0165
 1001TIP3    H224419   1.689   4.477  15.905  2.3527  0.3524  0.5050
 1002TIP3   OH224420   0.878   1.698  12.415  0.1991  0.1106 -0.2665
 1002TIP3    H124421   0.954   1.645  12.392  0.3402  0.5638 -0.8717
 1002TIP3    H224422   0.836   1.717  12.331 -0.9655 -0.6901  0.1033
 1003TIP3   OH224423   4.943   2.222   5.412  0.3941  0.1406  0.1159
 1003TIP3    H124424   4.937   2.198   5.504  1.5535  2.4444  0.8591
 1003TIP3    H224425   4.875   2.288   5.400  1.6807  1.4564 -0.0940
 1004TIP3   OH224426   0.553   1.981  15.588 -0.5555 -1.0853  0.1351
 1004TIP3    H124427   0.519   1.898  15.555 -0.7424 -0.5288 -1.1065
 1004TIP3    H224428   0.579   2.030  15.510 -1.3051  0.4067  0.7679
 1005TIP3   OH224429   5.960   2.726   1.300 -0.4543 -0.7056  0.3001
 1005TIP3    H124430   5.887   2.748   1.358 -0.3416  2.2121 -0.4925
 1005TIP3    H224431   5.935   2.762   1.215  1.1473 -1.1830 -0.4209
 1006TIP3   OH224432   4.813   6.381   2.049  0.0941 -0.3023  0.3611
 1006TIP3    H124433   4.773   6.418   2.128  0.1349  1.4110 -0.3817
 1006TIP3    H224434   4.772   6.295   2.039 -1.7045  0.4515  0.9234
 1007TIP3   OH224435   3.855   0.531  15.617 -0.5175 -0.5186  0.3670
 1007TIP3    H124436   3.833   0.557  15.706 -1.5811 -1.9560  0.5579
 1007TIP3    H224437   3.773   0.496  15.581  0.2734 -1.4086 -0.6325
 1008TIP3   OH224438   2.411   4.337  15.560 -0.2210 -0.2562  0.4869
 1008TIP3    H124439   2.425   4.323  15.466 -0.5715 -0.1622  0.4203
 1008TIP3    H224440   2.446   4.425  15.576 -0.6484 -0.0581  0.3386
 1009TIP3   OH224441   6.426   6.631   1.999 -0.4297 -1.2108 -0.0607
 1009TIP3    H124442   6.391   6.565   2.058 -0.3639 -1.7328 -0.5942
 1009TIP3    H224443   6.451   6.582   1.920 -1.0285 -0.4553 -0.7366
 1010TIP3   OH224444   4.873   0.132   4.218  0.0637  0.2889  0.4164
 1010TIP3    H124445   4.792   0.081   4.216 -0.2207  0.6871  1.3321
 1010TIP3    H224446   4.905   0.130   4.127  0.8212 -2.6925  0.6172
 1011TIP3   OH224447   3.464   4.308  15.272 -0.3953  0.3303  0.4172
 1011TIP3    H124448   3.465   4.350  15.186 -0.5036  2.3957  1.3718
 1011TIP3    H224449   3.541   4.343  15.317 -0.0798 -1.0735  1.0270
 1012TIP3   OH224450   5.201   0.721  15.774  0.2549 -0.1727 -0.0634
 1012TIP3    H124451   5.283   0.673  15.790  0.2549  0.0410  0.6174
 1012TIP3    H224452   5.140   0.654  15.744  0.6561 -0.3493 -0.4994
 1013TIP3   OH224453   5.074   5.358   5.970  0.1282  0.0996 -0.1008
 1013TIP3    H124454   4.997   5.312   5.936  1.0669 -1.3216 -0.3927
 1013TIP3    H224455   5.064   5.355   6.065 -1.6224  2.5408 -0.1122
 1014TIP3   OH224456   3.225   4.833   2.154  0.4694  0.4855  0.1311
 1014TIP3    H124457   3.287   4.770   2.118 -0.5238 -1.0854  1.0995
 1014TIP3    H224458   3.185   4.873   2.076 -0.4265 -1.6357 -0.5675
 1015TIP3   OH224459   0.974   0.564  12.129 -0.5217 -0.6212 -0.4560
 1015TIP3    H124460   1.044   0.626  12.107 -1.3301  0.8088  0.7738
 1015TIP3    H224461   1.017   0.499  12.185  0.4135 -1.4074 -2.0316
 1016TIP3   OH224462   5.064   5.284  14.977  0.2974  0.1767 -0.4290
 1016TIP3    H124463   5.126   5.255  15.044  1.2412 -0.0485 -1.3705
 1016TIP3    H224464   4.978   5.270  15.016  0.8302  0.7711  1.0234
 1017TIP3   OH224465   2.805   1.654  12.987  0.0426  0.2566  0.3150
 1017TIP3    H124466   2.736   1.711  12.953  1.8928  0.9851 -2.5987
 1017TIP3    H224467   2.836   1.605  12.911  3.0018  0.2521  1.3893
 1018TIP3   OH224468   3.031   3.523   4.145 -0.1313 -0.0023 -0.2834
 1018TIP3    H124469   3.069   3.594   4.095 -1.1041  0.0177 -1.0280
 1018TIP3    H224470   2.997   3.564   4.225  0.2336  0.1874 -0.2261
 1019TIP3   OH224471   5.315   3.379   4.899  0.3009 -0.8560  0.6665
 1019TIP3    H124472   5.353   3.404   4.983  0.0869 -1.8139  1.0624
 1019TIP3    H224473   5.349   3.291   4.882  0.1189 -0.7828 -0.1161
 1020TIP3   OH224474   0.580   6.154   2.306  0.1170 -0.0394 -0.3264
 1020TIP3    H124475   0.545   6.147   2.395  1.4032  0.7256  0.2801
 1020TIP3    H224476   0.529   6.224   2.265  2.0416  2.4575  1.1971
 1021TIP3   OH224477   1.024   1.392  13.366 -0.5223  0.0058  0.1137
 1021TIP3    H124478   0.940   1.363  13.402 -0.7716 -0.5734 -0.8956
 1021TIP3    H224479   1.009   1.483  13.340 -0.6461  0.0984  0.5029
 1022TIP3   OH224480   5.225   3.963   1.422  0.2449  0.1347 -0.1639
 1022TIP3    H124481   5.300   3.906   1.403  0.6478  0.2013  1.1833
 1022TIP3    H224482   5.161   3.940   1.354  0.6229 -1.5169 -0.0220
 1023TIP3   OH224483   1.792   6.066   6.884  0.2303 -0.1471 -0.5601
 1023TIP3    H124484   1.746   6.026   6.810 -0.0935 -0.0199 -0.4271
 1023TIP3    H224485   1.730   6.130   6.920  1.4830  2.0350 -2.0682
 1024TIP3   OH224486   3.036   6.592   5.945  0.5784 -0.1069 -0.3746
 1024TIP3    H124487   3.123   6.574   5.909 -0.0274 -0.8565 -1.5263
 1024TIP3    H224488   3.044   6.571   6.038  2.5114  3.0010  0.3235
 1025TIP3   OH224489   2.821   3.993  13.496  0.5615  0.3507  0.3365
 1025TIP3    H124490   2.766   4.045  13.437  0.8492  0.8372  0.4890
 1025TIP3    H224491   2.768   3.984  13.575  0.3255  0.0177  0.1416
 1026TIP3   OH224492   3.170   0.747   2.821  0.1531 -0.1918  0.1992
 1026TIP3    H124493   3.238   0.787   2.767 -0.2408 -0.0529 -0.1971
 1026TIP3    H224494   3.178   0.790   2.906  0.6450 -0.2723  0.1977
 1027TIP3   OH224495   6.349   6.390   0.314  0.1197 -0.1056 -0.1460
 1027TIP3    H124496   6.371   6.362   0.225 -1.2350  0.2463 -0.6111
 1027TIP3    H224497   6.299   6.471   0.303 -2.0366 -1.2232  0.7737
 1028TIP3   OH224498   3.437   3.480   0.622  0.2686  0.2314  0.1997
 1028TIP3    H124499   3.396   3.537   0.558  0.8196  0.8742  0.4094
 1028TIP3    H224500   3.482   3.539   0.683  2.0762 -0.4310 -0.4031
 1029TIP3   OH224501   2.596   6.277   2.781 -0.3677  0.3529  0.5713
 1029TIP3    H124502   2.559   6.267   2.694 -0.9636  0.3153  0.8201
 1029TIP3    H224503   2.632   6.191   2.802  0.8474  0.6872 -0.1088
 1030TIP3   OH224504   3.268   3.044   1.065 -0.0978 -0.0727 -0.0880
 1030TIP3    H124505   3.177   3.027   1.090 -0.3636  1.5696  0.1910
 1030TIP3    H224506   3.262   3.105   0.991  0.7608 -0.0405 -0.1463
 1031TIP3   OH224507   1.366   0.549  16.857 -0.7748 -0.1415 -0.4976
 1031TIP3    H124508   1.443   0.547  16.801 -0.8411  0.8736 -0.6423
 1031TIP3    H224509   1.291   0.552  16.797 -0.9699 -1.6633 -0.3655
 1032TIP3   OH224510   5.945   2.843   3.272  0.1782  0.3570 -0.1834
 1032TIP3    H124511   5.912   2.926   3.237 -0.5676 -0.5039 -1.6590
 1032TIP3    H224512   5.899   2.832   3.355  0.6915  1.6629  0.2933
 1033TIP3   OH224513   1.425   0.392   5.883 -0.2337 -0.4169 -1.1274
 1033TIP3    H124514   1.471   0.314   5.852 -1.4933 -2.3087  1.4069
 1033TIP3    H224515   1.428   0.385   5.979 -2.2386  1.5230 -0.8405
 1034TIP3   OH224516   5.041   3.047   2.683  0.5660  0.2015 -0.8477
 1034TIP3    H124517   4.999   2.975   2.729  1.1452  2.0722  2.9666
 1034TIP3    H224518   5.119   3.008   2.643 -0.7992 -1.8121 -1.7067
 1035TIP3   OH224519   2.291   4.175   0.420 -0.4920  0.2727 -0.1960
 1035TIP3    H124520   2.305   4.242   0.353 -0.9553  0.5289 -0.0365
 1035TIP3    H224521   2.243   4.220   0.489 -0.6219 -0.1730  0.0043
 1036TIP3   OH224522   4.959   0.529   4.684 -0.4769  0.2809 -0.1347
 1036TIP3    H124523   4.914   0.467   4.742  0.0042  1.3328  1.4468
 1036TIP3    H224524   5.023   0.475   4.637  1.0735 -0.2554  2.3848
 1037TIP3   OH224525   6.592   0.168   0.827  0.2071  0.2026 -0.3080
 1037TIP3    H124526   6.565   0.115   0.752  0.9917 -1.2296  0.3929
 1037TIP3    H224527   6.671   0.126   0.860 -1.7831 -1.2161  3.2741
 1038TIP3   OH224528   3.684   0.381  15.425 -0.2266 -0.3131  0.0698
 1038TIP3    H124529   3.764   0.331  15.408 -0.4030 -0.7392  0.4587
 1038TIP3    H224530   3.614   0.315  15.426 -0.2865 -0.2879  1.9920
 1039TIP3   OH224531   3.104   4.198   3.520  0.1818 -0.1831  0.7313
 1039TIP3    H124532   3.185   4.224   3.476 -0.0647  0.8854  0.8863
 1039TIP3    H224533   3.075   4.277   3.565 -0.1336 -0.9733  1.9588
 1040TIP3   OH224534   5.368   6.230   2.289  0.9191  0.4510  0.3287
 1040TIP3    H124535   5.442   6.246   2.347 -0.1620  3.2795  1.0993
 1040TIP3    H224536   5.320   6.158   2.330  2.3515 -0.3654  0.6524
 1041TIP3   OH224537   0.747   6.623   0.799  0.0031 -0.2992  0.7351
 1041TIP3    H124538   0.833   6.660   0.819 -0.4683  1.3852 -0.2387
 1041TIP3    H224539   0.736   6.635   0.705 -1.8808  0.8202  1.0540
 1042TIP3   OH224540   6.483   6.012   2.440 -0.5903 -0.2026 -0.6760
 1042TIP3    H124541   6.416   5.982   2.378 -2.2024  0.4953  0.6528
 1042TIP3    H224542   6.442   6.085   2.486 -0.0236 -1.5530  2.1596
 1043TIP3   OH224543   4.218   6.282   2.075  0.6155 -0.3031 -0.3277
 1043TIP3    H124544   4.122   6.275   2.075  0.6076 -0.2913 -0.9013
 1043TIP3    H224545   4.245   6.241   2.157 -0.0748  2.6279  1.4989
 1044TIP3   OH224546   4.917   4.108   4.795  0.1767 -0.1069 -0.1008
 1044TIP3    H124547   4.847   4.112   4.860  0.7028 -0.0874  0.4789
 1044TIP3    H224548   4.872   4.104   4.711 -0.5508  2.4904  0.0670
 1045TIP3   OH224549   3.344   3.602   1.732 -0.1518  0.2961  0.0487
 1045TIP3    H124550   3.342   3.611   1.637 -0.0430  0.5608  0.0709
 1045TIP3    H224551   3.393   3.521   1.747 -0.0367  0.3330 -0.1185
 1046TIP3   OH224552   4.527   2.470   3.869  0.8210 -0.0270 -0.0514
 1046TIP3    H124553   4.580   2.474   3.790  1.1658  0.3785  0.1943
 1046TIP3    H224554   4.590   2.480   3.941  0.4842 -0.1447  0.2619
 1047TIP3   OH224555   2.408   0.369   1.879  0.0765 -0.2642  0.1682
 1047TIP3    H124556   2.352   0.308   1.830 -0.3433  0.4623 -0.2663
 1047TIP3    H224557   2.474   0.397   1.816 -0.8104  1.1260 -0.1723
 1048TIP3   OH224558   4.055   4.373  12.669  0.3563 -0.7649  0.6367
 1048TIP3    H124559   4.015   4.288  12.650 -0.1529 -0.8023  1.7454
 1048TIP3    H224560   4.123   4.353  12.734  1.8389 -0.6179 -0.7955
 1049TIP3   OH224561   5.499   4.998  11.218  0.4471 -0.4528 -0.2781
 1049TIP3    H124562   5.507   5.086  11.181 -0.2177  0.5532  1.8193
 1049TIP3    H224563   5.429   5.005  11.283  1.0724 -2.2686  0.6658
 1050TIP3   OH224564   0.651   4.373   1.298 -0.0585 -0.0121  0.7329
 1050TIP3    H124565   0.711   4.339   1.232  0.6674  0.4121  1.1610
 1050TIP3    H224566   0.564   4.349   1.267  0.4100 -2.1322  0.9425
 1051TIP3   OH224567   3.685   5.312   2.444  0.1450  0.4975  0.1028
 1051TIP3    H124568   3.708   5.378   2.378 -1.4416 -0.3965 -1.4192
 1051TIP3    H224569   3.596   5.335   2.471 -0.6475 -1.2874 -0.8530
 1052TIP3   OH224570   3.789   6.314   1.157 -0.1083 -0.2795  0.3057
 1052TIP3    H124571   3.697   6.319   1.181 -0.2181 -2.3968  0.5476
 1052TIP3    H224572   3.827   6.395   1.190 -1.8075  0.4736  0.5128
 1053TIP3   OH224573   3.599   3.086   3.334 -0.1981 -0.3078 -0.1246
 1053TIP3    H124574   3.588   3.022   3.263  0.6369  0.8149 -1.2969
 1053TIP3    H224575   3.510   3.117   3.350 -0.3799 -0.4237 -0.8270
 1054TIP3   OH224576   2.874   0.492  11.786 -0.3583  0.1277  0.3909
 1054TIP3    H124577   2.900   0.443  11.708 -1.0343 -0.0184  0.2515
 1054TIP3    H224578   2.929   0.570  11.785 -0.3307  0.1060 -0.2072
 1055TIP3   OH224579   4.239   0.946   3.862 -0.0923  0.2983 -0.0721
 1055TIP3    H124580   4.256   0.881   3.794  0.7419 -0.2018  0.5915
 1055TIP3    H224581   4.319   0.947   3.914  0.3065  2.5790 -0.6394
 1056TIP3   OH224582   6.524   5.818  12.264 -0.2781  0.5642 -0.5319
 1056TIP3    H124583   6.474   5.844  12.187 -0.7321  0.4178 -0.2962
 1056TIP3    H224584   6.613   5.847  12.247  0.1098 -1.2754 -2.0171
 1057TIP3   OH224585   5.341   4.758  14.064  0.4450 -0.0756  0.3621
 1057TIP3    H124586   5.303   4.805  13.990  0.0806 -1.0624 -0.0911
 1057TIP3    H224587   5.368   4.827  14.125  0.1048  0.7201 -0.3712
 1058TIP3   OH224588   6.142   0.676   0.176  0.1065 -0.0341  0.1745
 1058TIP3    H124589   6.199   0.741   0.135  0.0950  0.3521  0.7668
 1058TIP3    H224590   6.164   0.680   0.269  0.3210 -1.0931  0.1845
 1059TIP3   OH224591   2.265   0.398  15.334  0.0896 -0.2278 -0.0892
 1059TIP3    H124592   2.233   0.332  15.273 -0.9677 -0.4287  0.6584
 1059TIP3    H224593   2.360   0.397  15.323 -0.0163 -0.9154 -1.0464
 1060TIP3   OH224594   1.256   5.549   5.641 -0.1370  0.0281 -0.4662
 1060TIP3    H124595   1.239   5.569   5.733 -1.2354  0.7901 -0.8146
 1060TIP3    H224596   1.296   5.462   5.643 -1.2833 -0.5187  0.6648
 1061TIP3   OH224597   2.843   5.531  14.239  0.1978  0.1126 -0.5487
 1061TIP3    H124598   2.908   5.467  14.265 -0.6888 -0.8144 -0.5394
 1061TIP3    H224599   2.784   5.537  14.314  0.8485  1.7560 -0.1145
 1062TIP3   OH224600   2.719   0.968   2.820  0.2128 -0.0699 -0.5828
 1062TIP3    H124601   2.795   0.912   2.816 -0.4377 -1.0746  0.5624
 1062TIP3    H224602   2.723   1.020   2.739  1.1905 -1.2713 -1.3376
 1063TIP3   OH224603   5.577   5.384  12.972  0.1548 -0.1238 -0.6998
 1063TIP3    H124604   5.574   5.289  12.982  0.9410 -0.0962 -0.1224
 1063TIP3    H224605   5.649   5.400  12.911  3.4407  0.2783  2.8566
 1064TIP3   OH224606   1.318   3.485  14.369 -0.3550 -0.4550 -0.1279
 1064TIP3    H124607   1.232   3.526  14.379 -1.0680 -1.9314  0.1690
 1064TIP3    H224608   1.317   3.412  14.432  1.5297  0.1116  0.6365
 1065TIP3   OH224609   4.779   0.413  14.662 -0.7061  0.3132  0.1236
 1065TIP3    H124610   4.812   0.480  14.722 -0.8253  1.0492 -0.6122
 1065TIP3    H224611   4.855   0.358  14.642 -1.1543 -1.5058  2.8702
 1066TIP3   OH224612   3.170   1.907   2.211  0.2108 -0.2553 -0.2919
 1066TIP3    H124613   3.254   1.926   2.253 -1.3614  1.7833  2.2527
 1066TIP3    H224614   3.105   1.946   2.269 -2.5243 -1.4937 -2.2964
 1067TIP3   OH224615   2.467   4.536   2.639 -0.3246  0.1767  0.3728
 1067TIP3    H124616   2.463   4.586   2.721  3.4283 -1.6191  1.9169
 1067TIP3    H224617   2.548   4.566   2.598 -0.7380 -0.9064 -1.3035
 1068TIP3   OH224618   2.103   1.574   1.157  0.0373 -0.7481  0.3456
 1068TIP3    H124619   2.192   1.539   1.156 -0.2324 -1.4503  0.4263
 1068TIP3    H224620   2.076   1.575   1.065  0.5739  0.6606  0.1771
 1069TIP3   OH224621   6.724   1.310   4.163 -0.2074  0.4242 -0.4036
 1069TIP3    H124622   6.697   1.281   4.250  0.3221 -0.6840 -0.5882
 1069TIP3    H224623   6.695   1.401   4.158  1.8877  1.3509  1.8782
 1070TIP3   OH224624   0.065   3.397   2.077 -0.4561  0.3415  0.2756
 1070TIP3    H124625  -0.013   3.397   2.133 -0.0659  1.3441  0.8431
 1070TIP3    H224626   0.074   3.487   2.048  0.4358  0.2185  0.1307
 1071TIP3   OH224627   1.963   0.373  16.481 -0.4893 -0.5044  0.0921
 1071TIP3    H124628   2.001   0.453  16.518  0.6075 -0.2764 -1.4306
 1071TIP3    H224629   1.960   0.312  16.555  0.5632  0.2970  0.8317
 1072TIP3   OH224630   0.374   5.020   1.467 -0.0680  0.6178 -0.1443
 1072TIP3    H124631   0.436   5.091   1.480  0.5060 -0.0648  1.0141
 1072TIP3    H224632   0.356   5.021   1.373  1.0669  1.3458 -0.3713
 1073TIP3   OH224633   3.138   5.984   1.708 -0.5667  0.4618 -0.1328
 1073TIP3    H124634   3.076   5.973   1.635 -1.5387 -1.3441  0.8835
 1073TIP3    H224635   3.154   6.078   1.712 -1.3602  0.7207 -1.9689
 1074TIP3   OH224636   2.915   3.880   0.849 -0.4648  0.1234  0.3276
 1074TIP3    H124637   2.822   3.861   0.844 -0.7165  1.3041  0.3684
 1074TIP3    H224638   2.958   3.799   0.819 -1.5238  0.2339 -1.6055
 1075TIP3   OH224639   4.275   2.913  17.366 -0.4832  0.5911 -0.3780
 1075TIP3    H124640   4.218   2.859  17.311 -1.0612 -1.0826  1.7587
 1075TIP3    H224641   4.218   2.946  17.435  0.7381  0.3630  0.7851
 1076TIP3   OH224642   2.095   0.703  13.064  0.3640  0.1214  0.0134
 1076TIP3    H124643   2.120   0.740  13.149 -0.5772  0.4826  0.1448
 1076TIP3    H224644   2.002   0.725  13.055 -0.7434 -3.5131  0.8111
 1077TIP3   OH224645   4.399   0.588   6.175 -0.3058  0.2395  0.3674
 1077TIP3    H124646   4.411   0.675   6.212  0.4498 -0.4578  1.8337
 1077TIP3    H224647   4.487   0.558   6.156 -0.6169  0.1341 -0.9989
 1078TIP3   OH224648   2.160   3.381  10.927  0.5743  0.3501 -0.2974
 1078TIP3    H124649   2.217   3.456  10.946  1.6325 -0.2860 -0.8350
 1078TIP3    H224650   2.072   3.417  10.928  1.0446  1.5628 -0.3361
 1079TIP3   OH224651   1.125   6.516  16.162  0.0051  0.2394 -0.7710
 1079TIP3    H124652   1.137   6.454  16.234  0.6484 -2.0106 -2.6927
 1079TIP3    H224653   1.209   6.560  16.153 -0.2570  0.9650  0.1949
 1080TIP3   OH224654   1.710   6.111  10.905  0.2199 -0.3523 -0.1855
 1080TIP3    H124655   1.623   6.121  10.944  1.0620  0.5880  1.5753
 1080TIP3    H224656   1.712   6.175  10.834 -0.2175  0.2611  0.3461
 1081TIP3   OH224657   0.484   0.889  17.034 -0.2061 -0.3782 -0.2015
 1081TIP3    H124658   0.570   0.890  16.992 -0.0721 -1.2172  0.0346
 1081TIP3    H224659   0.432   0.827  16.982 -0.9320  0.7046 -0.8188
 1082TIP3   OH224660   0.806   2.028  16.647  0.3109 -0.0858 -0.0738
 1082TIP3    H124661   0.885   2.050  16.697  0.9829 -1.5031 -0.4438
 1082TIP3    H224662   0.740   2.009  16.713 -0.0509  2.0685  0.2479
 1083TIP3   OH224663   0.770   5.251   4.289  0.1681  0.3918  0.3714
 1083TIP3    H124664   0.735   5.288   4.207 -0.2648  0.0756  0.4088
 1083TIP3    H224665   0.747   5.158   4.284  1.6449  0.0195  0.0674
 1084TIP3   OH224666   4.876   4.917   5.315 -0.2279  0.3318 -0.1589
 1084TIP3    H124667   4.796   4.901   5.365 -0.4026 -0.8461 -0.7705
 1084TIP3    H224668   4.855   4.992   5.260 -0.5808  0.6308  0.3792
 1085TIP3   OH224669   1.714   4.201   5.667  0.2346 -0.0187  0.4145
 1085TIP3    H124670   1.760   4.263   5.610  1.1756 -0.1285  1.0318
 1085TIP3    H224671   1.764   4.201   5.748  2.2792 -3.9576 -0.5656
 1086TIP3   OH224672   4.304   1.856  13.820  0.0911 -0.5331 -0.1545
 1086TIP3    H124673   4.351   1.937  13.798  1.8153 -1.4778 -0.0743
 1086TIP3    H224674   4.236   1.884  13.881  0.3314  0.9321 -0.5252
 1087TIP3   OH224675   0.542   5.214  13.714  0.0679 -0.6062 -0.1337
 1087TIP3    H124676   0.619   5.163  13.688 -0.8111 -1.7004 -0.7005
 1087TIP3    H224677   0.546   5.215  13.810  0.6500 -0.8877 -0.1488
 1088TIP3   OH224678   1.784   4.148   6.209  0.0685  0.5547  0.2014
 1088TIP3    H124679   1.852   4.204   6.173 -1.3572  1.5327 -1.1102
 1088TIP3    H224680   1.768   4.082   6.141 -0.2891  0.3425  0.4859
 1089TIP3   OH224681   6.508   3.409  16.808  0.4663  0.0291 -0.2322
 1089TIP3    H124682   6.551   3.328  16.833 -0.7694 -0.4185  0.5509
 1089TIP3    H224683   6.569   3.452  16.748  1.1353 -1.4720 -0.6666
 1090TIP3   OH224684   3.548   5.559   3.166  0.4194  0.7122  0.3046
 1090TIP3    H124685   3.571   5.641   3.123  1.6849 -0.4466 -1.3842
 1090TIP3    H224686   3.564   5.574   3.259  0.9737  2.2493 -0.0155
 1091TIP3   OH224687   4.193   4.963   1.835 -0.4253  0.0478  0.0148
 1091TIP3    H124688   4.242   4.986   1.756  0.2911  0.7591  0.6478
 1091TIP3    H224689   4.115   5.018   1.831 -0.8875 -0.6471 -0.6922
 1092TIP3   OH224690   3.082   5.267   6.587  0.1036 -0.0614  0.0317
 1092TIP3    H124691   3.173   5.249   6.562  0.8933  0.9008  1.9544
 1092TIP3    H224692   3.049   5.184   6.621  0.7330 -0.1117  0.5489
 1093TIP3   OH224693   4.896   0.161  12.692 -0.6429  0.2423 -0.3991
 1093TIP3    H124694   4.869   0.078  12.731  0.1050  0.0025 -0.3672
 1093TIP3    H224695   4.970   0.190  12.745  0.3348 -0.0447 -1.5416
 1094TIP3   OH224696   4.109   3.103  16.890  0.2631  0.2236  0.0967
 1094TIP3    H124697   4.069   3.042  16.952  1.5433 -1.3302 -0.5211
 1094TIP3    H224698   4.092   3.189  16.926  1.6246 -0.6192  3.0871
 1095TIP3   OH224699   3.355   3.034   5.786  0.0623 -0.3112 -0.4342
 1095TIP3    H124700   3.402   3.072   5.861  0.1713 -0.2166 -0.5499
 1095TIP3    H224701   3.398   3.072   5.710  0.5781 -1.1411 -0.5647
 1096TIP3   OH224702   3.527   0.239  10.446  0.1310 -0.2679 -0.1220
 1096TIP3    H124703   3.453   0.245  10.507 -0.4747  0.2917 -0.9000
 1096TIP3    H224704   3.527   0.322  10.400  0.5649 -0.6927 -0.9033
 1097TIP3   OH224705   2.264   0.452   4.355 -0.4299 -0.6806  0.1419
 1097TIP3    H124706   2.339   0.468   4.412  0.1358  0.4233 -0.8657
 1097TIP3    H224707   2.204   0.400   4.408 -0.2317  0.8529  1.9880
 1098TIP3   OH224708   4.905   3.304  11.816  0.1762 -0.4907 -0.2117
 1098TIP3    H124709   4.878   3.376  11.759 -0.0870  0.4637  1.0886
 1098TIP3    H224710   4.892   3.226  11.762  0.9994  0.4352 -1.8583
 1099TIP3   OH224711   1.117   6.029   1.271 -0.9684  0.5229 -0.0739
 1099TIP3    H124712   1.197   5.977   1.261 -0.9972 -0.2060  2.6381
 1099TIP3    H224713   1.137   6.090   1.342 -2.4770  1.0485 -0.0672
 1100TIP3   OH224714   1.547   2.890   3.387 -0.3208  0.4768  0.0217
 1100TIP3    H124715   1.463   2.929   3.365 -2.4473 -3.1327  0.9123
 1100TIP3    H224716   1.554   2.898   3.482 -0.5431 -0.6987  0.1591
 1101TIP3   OH224717   4.876   4.273  14.795 -0.2134 -0.0679 -0.3676
 1101TIP3    H124718   4.850   4.188  14.760 -0.7285 -0.0097 -0.1428
 1101TIP3    H224719   4.813   4.334  14.757  1.8145  0.6844 -2.8151
 1102TIP3   OH224720   3.039   3.327   3.433  0.7742  0.5376 -0.4952
 1102TIP3    H124721   3.070   3.347   3.522  1.1789 -0.0115 -0.5145
 1102TIP3    H224722   3.044   3.411   3.387 -0.0902  0.9840  0.1876
 1103TIP3   OH224723   5.528   3.117   4.097  0.1830  0.2608 -0.3461
 1103TIP3    H124724   5.581   3.196   4.102 -0.8022  0.8918  0.5619
 1103TIP3    H224725   5.444   3.142   4.135  0.2273 -1.5616  1.0767
 1104TIP3   OH224726   3.102   6.126  11.396  0.5528 -0.3152  0.2402
 1104TIP3    H124727   3.122   6.101  11.486  2.3657  1.4792  0.3973
 1104TIP3    H224728   3.091   6.221  11.398  2.5084  0.0589 -1.6654
 1105TIP3   OH224729   2.712   0.277  13.250 -0.0176 -0.0477 -0.3118
 1105TIP3    H124730   2.635   0.265  13.195  0.4667  0.4020 -1.1148
 1105TIP3    H224731   2.754   0.356  13.216  0.0331  0.5293  1.0308
 1106TIP3   OH224732   4.125   0.743   2.999  0.2932  0.0119  0.4983
 1106TIP3    H124733   4.190   0.812   2.982  0.4069 -0.2901 -0.3739
 1106TIP3    H224734   4.141   0.716   3.089 -0.3013  1.6946  1.1448
 1107TIP3   OH224735   0.078   5.088   4.735 -0.9310 -0.2843 -0.3541
 1107TIP3    H124736  -0.009   5.105   4.772 -1.0783 -2.0442  0.1862
 1107TIP3    H224737   0.060   5.053   4.648 -0.8321 -1.7198  0.1857
 1108TIP3   OH224738   1.276   4.853   6.190  1.1028 -0.0363 -0.0002
 1108TIP3    H124739   1.248   4.874   6.101  1.4790 -0.4967 -0.2337
 1108TIP3    H224740   1.370   4.869   6.191  1.1688 -0.4234  0.1994
 1109TIP3   OH224741   2.361   6.351   5.351 -1.0651 -0.1113  0.0444
 1109TIP3    H124742   2.296   6.281   5.348 -1.3659  0.1900 -1.2284
 1109TIP3    H224743   2.365   6.383   5.261 -0.3283  0.9563  0.4417
 1110TIP3   OH224744   0.962   4.023   3.118  0.4917 -0.3113  0.3477
 1110TIP3    H124745   1.002   4.038   3.204 -0.0075  0.6646  0.4261
 1110TIP3    H224746   0.908   3.945   3.130  1.3077 -0.8449  0.6075
 1111TIP3   OH224747   0.292   2.276  13.803 -0.1898 -0.0924 -0.5242
 1111TIP3    H124748   0.281   2.243  13.714  1.1487  1.0561 -1.1481
 1111TIP3    H224749   0.375   2.324  13.801 -0.5448  0.6660  1.1294
 1112TIP3   OH224750   4.094   1.645  15.904 -0.7101  0.1044 -0.4670
 1112TIP3    H124751   4.153   1.605  15.840 -1.7906 -2.7308  0.1775
 1112TIP3    H224752   4.152   1.696  15.961  0.5270  0.9486 -2.3750
 1113TIP3   OH224753   4.210   1.606  14.005 -0.3896  0.1456 -0.0874
 1113TIP3    H124754   4.121   1.596  13.971  0.0070 -2.1338 -0.5877
 1113TIP3    H224755   4.246   1.680  13.957 -1.2999 -0.2792 -1.4884
 1114TIP3   OH224756   5.286   2.514   5.590 -0.0322 -0.2200 -0.2091
 1114TIP3    H124757   5.208   2.459   5.589 -0.2362  0.0446  0.6263
 1114TIP3    H224758   5.292   2.547   5.680  1.0733 -0.2757 -0.2468
 1115TIP3   OH224759   0.859   6.467  11.847 -0.0358 -0.2852  0.6510
 1115TIP3    H124760   0.933   6.429  11.894  0.4830 -1.4993 -1.0453
 1115TIP3    H224761   0.851   6.413  11.768 -2.2776  0.2688  0.4371
 1116TIP3   OH224762   0.324   3.425  13.681  0.5332  0.2296  0.0438
 1116TIP3    H124763   0.229   3.427  13.666  0.5690  2.2448 -0.2195
 1116TIP3    H224764   0.356   3.356  13.623 -0.6286  0.4394 -0.8905
 1117TIP3   OH224765   0.051   5.188  15.525 -0.0387 -0.1438  0.0472
 1117TIP3    H124766   0.118   5.245  15.563 -0.2867 -0.2069  0.5866
 1117TIP3    H224767  -0.003   5.247  15.472  0.4298 -0.0899 -0.3734
 1118TIP3   OH224768   0.370   3.685  13.489 -0.1471  0.6540 -0.0621
 1118TIP3    H124769   0.449   3.732  13.515  0.2838 -0.0502 -0.0727
 1118TIP3    H224770   0.339   3.644  13.570  0.1780 -0.0546 -0.2910
 1119TIP3   OH224771   1.884   6.227  14.027  0.6413 -0.2886 -0.1412
 1119TIP3    H124772   1.911   6.287  13.957 -0.3823  1.3237  0.7785
 1119TIP3    H224773   1.964   6.178  14.049  1.5803  0.8888 -0.7968
 1120TIP3   OH224774   4.945   3.243  15.378 -0.3020 -0.1349  0.2543
 1120TIP3    H124775   5.029   3.287  15.375 -0.1589 -0.4267 -0.0722
 1120TIP3    H224776   4.884   3.302  15.334 -0.6182  0.8127  1.8762
 1121TIP3   OH224777   0.116   4.578  15.582 -0.0774  0.2818 -0.2596
 1121TIP3    H124778   0.137   4.594  15.674  0.4988  0.3149 -0.3912
 1121TIP3    H224779   0.119   4.482  15.574 -2.5904  0.0928  0.3124
 1122TIP3   OH224780   6.683   1.386  15.583  0.6828  0.5249  0.3465
 1122TIP3    H124781   6.605   1.376  15.529  0.4726  3.2404  0.0093
 1122TIP3    H224782   6.651   1.425  15.665  1.2373 -1.8867  1.7980
 1123TIP3   OH224783   6.533   2.522   2.665  0.2970 -0.2705  0.5306
 1123TIP3    H124784   6.548   2.430   2.684 -1.5480 -0.2827  2.1608
 1123TIP3    H224785   6.438   2.533   2.667  0.3069  1.2509 -1.8766
 1124TIP3   OH224786   2.213   3.741  15.214 -0.6503 -0.1901 -0.6153
 1124TIP3    H124787   2.301   3.729  15.177 -0.7959 -0.1712 -0.9722
 1124TIP3    H224788   2.222   3.814  15.275 -1.0351  1.8281 -2.8156
 1125TIP3   OH224789   4.694   5.259   2.235  0.4504 -0.0043 -0.4553
 1125TIP3    H124790   4.704   5.258   2.330  1.7592 -1.7306 -0.5593
 1125TIP3    H224791   4.600   5.246   2.220  0.2990 -0.1907  0.5960
 1126TIP3   OH224792   0.542   3.602   0.709  0.0119 -0.4983  0.5342
 1126TIP3    H124793   0.579   3.562   0.788  1.0880 -0.3329  0.1426
 1126TIP3    H224794   0.457   3.635   0.736  0.8190  0.5703  1.9422
 1127TIP3   OH224795   5.118   0.451  15.939 -0.1290  0.2532  0.5279
 1127TIP3    H124796   5.073   0.455  15.855  0.4691 -1.5695  0.0934
 1127TIP3    H224797   5.064   0.392  15.992 -0.0288  0.7066  1.1454
 1128TIP3   OH224798   2.745   5.713  14.905  0.1478 -0.1958 -0.3149
 1128TIP3    H124799   2.831   5.674  14.888  0.8199  1.2586 -0.3403
 1128TIP3    H224800   2.690   5.682  14.832  1.3422  0.9022 -1.7551
 1129TIP3   OH224801   5.942   0.662   1.809  0.5358 -0.6756 -0.0275
 1129TIP3    H124802   5.887   0.740   1.817 -0.1447 -1.2327  1.0063
 1129TIP3    H224803   5.883   0.589   1.829  1.1876 -1.4512 -0.8593
 1130TIP3   OH224804   5.586   6.594  14.564 -0.2588 -0.0821 -0.1465
 1130TIP3    H124805   5.568   6.528  14.497  1.0052 -0.0932 -0.5038
 1130TIP3    H224806   5.615   6.671  14.515  2.0153 -0.5163  0.3785
 1131TIP3   OH224807   3.614   3.038  12.194  0.1667 -0.6380 -0.2556
 1131TIP3    H124808   3.687   3.058  12.253 -0.0083 -1.2618  0.1821
 1131TIP3    H224809   3.601   2.944  12.203 -1.2985 -0.4066  0.3913
 1132TIP3   OH224810   1.802   0.587   4.049  0.3504  0.3684 -0.1495
 1132TIP3    H124811   1.822   0.637   3.970  0.4890  0.4382 -0.0698
 1132TIP3    H224812   1.727   0.633   4.087 -0.6606 -0.5010 -1.0060
 1133TIP3   OH224813   0.825   6.657   2.261 -0.0368 -0.3826 -0.0498
 1133TIP3    H124814   0.824   6.595   2.333 -0.1121  1.2539  1.4448
 1133TIP3    H224815   0.869   6.612   2.189  1.7065 -1.4522  1.6214
 1134TIP3   OH224816   0.051   4.644  13.384  0.2742  0.5233  0.0006
 1134TIP3    H124817   0.120   4.709  13.373  0.7925  0.1194  0.7895
 1134TIP3    H224818   0.075   4.597  13.463 -0.6245  0.0198 -0.0170
 1135TIP3   OH224819   0.090   1.099   2.517  0.3725  0.0295 -0.2207
 1135TIP3    H124820   0.063   1.172   2.572 -2.1103 -1.1165  0.2453
 1135TIP3    H224821   0.102   1.136   2.430 -0.0262  1.1240  0.1832
 1136TIP3   OH224822   2.182   1.226  15.566  0.7544  0.6764 -0.2300
 1136TIP3    H124823   2.106   1.168  15.562  1.3486 -0.1558  0.2357
 1136TIP3    H224824   2.174   1.271  15.650  1.3851 -0.2928  0.3690
 1137TIP3   OH224825   6.487   5.541   4.325 -0.4420 -0.3566 -0.2260
 1137TIP3    H124826   6.517   5.480   4.393 -1.5422 -1.2652 -0.5272
 1137TIP3    H224827   6.561   5.548   4.265 -0.3840 -1.6090 -0.3176
 1138TIP3   OH224828   0.081   5.049  17.035 -0.1727 -1.1558  0.1487
 1138TIP3    H124829   0.163   5.091  17.008 -0.1711  0.0853  1.9089
 1138TIP3    H224830   0.016   5.081  16.973  0.1542  0.1724  0.4657
 1139TIP3   OH224831   1.605   4.783   1.183 -0.7444  0.0871 -0.1337
 1139TIP3    H124832   1.511   4.773   1.173 -0.8639  0.7751  0.2606
 1139TIP3    H224833   1.616   4.833   1.264  0.0150 -1.1571  0.5792
 1140TIP3   OH224834   3.808   4.261  12.023  0.9566 -0.1496  0.0210
 1140TIP3    H124835   3.846   4.215  12.097  2.0551  0.0221 -0.4043
 1140TIP3    H224836   3.875   4.325  11.999  0.0346  0.7439 -0.2469
 1141TIP3   OH224837   5.347   3.822  15.855 -0.3063 -0.2393 -1.0679
 1141TIP3    H124838   5.388   3.853  15.774  0.3290  0.2447 -0.5667
 1141TIP3    H224839   5.393   3.741  15.875 -0.3957 -0.3071 -1.1354
 1142TIP3   OH224840   2.695   1.550   5.042 -0.2827 -0.9288 -0.6657
 1142TIP3    H124841   2.599   1.550   5.044 -0.2805 -1.0531 -0.3917
 1142TIP3    H224842   2.717   1.465   5.004 -0.2799 -1.0539 -0.3883
 1143TIP3   OH224843   0.255   0.008  15.269  0.0047  0.5855 -0.1257
 1143TIP3    H124844   0.350   0.018  15.275  0.1848  0.3349 -1.8997
 1143TIP3    H224845   0.220   0.094  15.290  0.8634  1.7196 -2.8961
 1144TIP3   OH224846   1.284   1.619   1.967  0.4879 -0.0386 -0.1195
 1144TIP3    H124847   1.314   1.596   2.055 -0.7105  0.3948  0.4273
 1144TIP3    H224848   1.294   1.538   1.917 -0.2654 -0.7456  0.8303
 1145TIP3   OH224849   1.626   3.466   1.057  0.0238  0.3803  0.1922
 1145TIP3    H124850   1.581   3.431   0.980  0.1501  1.2912 -0.3181
 1145TIP3    H224851   1.672   3.544   1.024 -0.7685  1.3929  1.3954
 1146TIP3   OH224852   2.261   5.576   1.469 -0.0930 -0.0366 -0.4766
 1146TIP3    H124853   2.318   5.587   1.393  0.5735  1.1064  0.1459
 1146TIP3    H224854   2.296   5.638   1.534 -1.2862 -0.2178  0.3761
 1147TIP3   OH224855   2.473   3.703  16.015  0.2956  0.3142  0.6950
 1147TIP3    H124856   2.406   3.771  16.010 -0.6296 -0.6478 -0.8275
 1147TIP3    H224857   2.426   3.626  16.048  0.4472 -0.5437 -0.9696
 1148TIP3   OH224858   1.060   4.992   4.796 -0.5724  0.4417 -0.1014
 1148TIP3    H124859   1.023   4.905   4.781 -0.1525  0.2957 -0.3181
 1148TIP3    H224860   1.064   5.001   4.891  1.7301 -0.8213  0.0005
 1149TIP3   OH224861   3.299   5.647   3.493 -0.0505 -0.2578 -0.7309
 1149TIP3    H124862   3.382   5.687   3.520  0.3748 -1.5073 -0.1131
 1149TIP3    H224863   3.233   5.691   3.547  0.3101  0.0814 -0.5576
 1150TIP3   OH224864   6.551   5.574   1.167  0.3254 -0.3938 -0.0317
 1150TIP3    H124865   6.558   5.581   1.262 -0.3535 -2.1120  0.1743
 1150TIP3    H224866   6.574   5.661   1.135  0.1052  0.3481  1.7219
 1151TIP3   OH224867   0.958   4.018   5.108  0.5078 -0.5789  0.5815
 1151TIP3    H124868   0.960   3.963   5.030 -0.0025 -1.7073  1.3337
 1151TIP3    H224869   0.957   3.956   5.181 -1.7708  0.3586  1.4326
 1152TIP3   OH224870   1.080   2.244   4.208  0.1384 -0.7974  0.8712
 1152TIP3    H124871   1.124   2.315   4.161  1.1271 -1.5208  0.6545
 1152TIP3    H224872   1.128   2.165   4.181 -2.4035 -1.9086 -0.7507
 1153TIP3   OH224873   2.941   0.651   1.360  0.1608 -0.0087  0.0775
 1153TIP3    H124874   3.036   0.637   1.360  0.5307  2.0981 -1.2893
 1153TIP3    H224875   2.915   0.644   1.269 -1.3791 -2.3924  0.6162
 1154TIP3   OH224876   0.742   5.287   5.574 -0.1287 -0.0490  0.0221
 1154TIP3    H124877   0.816   5.258   5.520 -2.6632 -2.1151 -2.7273
 1154TIP3    H224878   0.702   5.358   5.524 -1.6632 -0.9851 -0.1562
 1155TIP3   OH224879   4.688   2.812  13.199 -0.2386  0.1709 -0.3843
 1155TIP3    H124880   4.606   2.857  13.182  0.1882  0.7219 -1.0526
 1155TIP3    H224881   4.733   2.867  13.263 -0.3702 -0.1112 -0.0466
 1156TIP3   OH224882   0.892   1.111  11.121 -0.5749 -0.1624 -0.3364
 1156TIP3    H124883   0.852   1.169  11.056 -1.5664 -0.4245  0.0230
 1156TIP3    H224884   0.926   1.038  11.069  0.3312  0.5336 -0.7459
 1157TIP3   OH224885   2.623   4.522   5.488 -0.2477 -0.1294 -0.0329
 1157TIP3    H124886   2.703   4.517   5.539  0.5468 -1.0947 -1.3067
 1157TIP3    H224887   2.641   4.589   5.421 -0.6253 -0.1097 -0.1181
 1158TIP3   OH224888   6.455   4.660  12.923 -0.5064 -0.3456  0.2302
 1158TIP3    H124889   6.476   4.720  12.851 -1.7189 -0.0338  0.1233
 1158TIP3    H224890   6.528   4.671  12.985 -1.2318  2.0831  0.7616
 1159TIP3   OH224891   0.555   0.812  16.495  0.2690 -0.1566 -0.4346
 1159TIP3    H124892   0.563   0.765  16.578  0.7126 -0.0697 -0.4262
 1159TIP3    H224893   0.484   0.767  16.449 -2.3083  1.8003  1.3297
 1160TIP3   OH224894   0.820   5.407  14.900  0.1594 -0.4099  0.2587
 1160TIP3    H124895   0.799   5.367  14.816  0.6515 -0.8858  0.3612
 1160TIP3    H224896   0.815   5.336  14.964 -0.6322  0.0271  0.7159
 1161TIP3   OH224897   0.649   5.988   2.672  0.0263  0.0602 -0.1646
 1161TIP3    H124898   0.643   5.893   2.663 -0.8264  0.2718 -2.8582
 1161TIP3    H224899   0.562   6.020   2.648  0.0227  1.5361  1.5491
 1162TIP3   OH224900   1.938   2.259  16.283 -0.5357  0.0502 -0.2673
 1162TIP3    H124901   1.961   2.263  16.190 -0.4200 -0.9619 -0.2975
 1162TIP3    H224902   2.023   2.265  16.328 -0.6760  1.7111 -0.1621
 1163TIP3   OH224903   4.772   4.751   3.968  0.1383  0.1220 -0.4835
 1163TIP3    H124904   4.693   4.698   3.957 -0.0564  0.3720 -0.3108
 1163TIP3    H224905   4.833   4.693   4.015 -0.5969  0.5276  1.0452
 1164TIP3   OH224906   4.017   6.031   3.411 -0.3462 -0.6557  0.6533
 1164TIP3    H124907   3.932   6.010   3.372  0.0106 -1.8614  0.4824
 1164TIP3    H224908   4.081   6.009   3.344  0.0730  1.8435  0.1166
 1165TIP3   OH224909   0.131   3.004  13.497  0.0701  0.4201  0.4935
 1165TIP3    H124910   0.214   3.036  13.533 -0.1244  0.5037  0.8744
 1165TIP3    H224911   0.139   3.017  13.403  0.8635 -0.4505  0.4302
 1166TIP3   OH224912   4.329   3.435   1.522 -0.1952  0.0892 -0.0680
 1166TIP3    H124913   4.353   3.516   1.477 -1.9444  1.1476  0.7929
 1166TIP3    H224914   4.247   3.408   1.479  0.2250 -1.1080 -0.1651
 1167TIP3   OH224915   6.351   2.606  11.697 -0.2183  0.2609  0.2568
 1167TIP3    H124916   6.352   2.587  11.603  2.3921 -3.0173  0.7847
 1167TIP3    H224917   6.431   2.655  11.713  0.0387 -0.3713  0.9505
 1168TIP3   OH224918   3.987   4.821  13.625 -0.0338  0.0650  0.2670
 1168TIP3    H124919   3.897   4.854  13.632 -0.2059  0.1835 -1.7740
 1168TIP3    H224920   4.040   4.899  13.609  0.2515 -0.1481  0.1747
 1169TIP3   OH224921   2.398   5.046   2.116  0.5391  0.0749 -0.5053
 1169TIP3    H124922   2.395   5.055   2.211  0.3615  1.6137 -0.6257
 1169TIP3    H224923   2.360   4.960   2.098  1.7426 -0.7849  0.8759
 1170TIP3   OH224924   1.408   3.437  11.666  0.4309  0.1977  0.3665
 1170TIP3    H124925   1.332   3.459  11.719  1.5416  1.2818  1.5826
 1170TIP3    H224926   1.483   3.453  11.723  1.7926  2.6933 -1.9002
 1171TIP3   OH224927   4.223   4.684   4.869  0.1712 -0.3090  0.0830
 1171TIP3    H124928   4.235   4.644   4.955 -0.4944  1.5087  1.0922
 1171TIP3    H224929   4.302   4.662   4.821  2.1835  1.4169  2.3479
 1172TIP3   OH224930   0.768   1.331  15.948  0.1114  0.2720 -0.4648
 1172TIP3    H124931   0.777   1.300  16.039 -0.1972 -0.1439 -0.5709
 1172TIP3    H224932   0.734   1.255  15.901  1.8892 -0.0642 -1.2885
 1173TIP3   OH224933   2.259   4.143   0.026 -0.7984  0.1644 -0.0130
 1173TIP3    H124934   2.206   4.098   0.092 -1.2470  0.3596 -0.2402
 1173TIP3    H224935   2.199   4.159  -0.047 -0.4168  0.3454 -0.2928
 1174TIP3   OH224936   3.227   1.810   3.486  0.3130 -0.3593 -0.6733
 1174TIP3    H124937   3.262   1.722   3.472 -1.4474 -1.4106  0.9873
 1174TIP3    H224938   3.276   1.844   3.560 -1.6321 -1.6710  1.3842
 1175TIP3   OH224939   0.235   4.928   6.377  0.3738  0.0019  0.5309
 1175TIP3    H124940   0.323   4.918   6.340  0.7153  0.4636  1.2056
 1175TIP3    H224941   0.181   4.866   6.327  1.3493 -1.2816  1.0311
 1176TIP3   OH224942   1.239   6.304   0.215 -0.3731 -0.2670 -0.3379
 1176TIP3    H124943   1.297   6.243   0.169 -0.9587 -2.1175  1.2362
 1176TIP3    H224944   1.157   6.301   0.165  0.3370  1.1632 -1.6680
 1177TIP3   OH224945   0.109   3.309  15.078 -0.0151  0.3393  0.2469
 1177TIP3    H124946   0.062   3.238  15.122 -1.5741  2.0927  1.5415
 1177TIP3    H224947   0.072   3.389  15.115  0.4582  1.8904 -2.4023
 1178TIP3   OH224948   5.205   0.428  16.644  0.5523  0.3546 -0.5829
 1178TIP3    H124949   5.204   0.524  16.649  0.1500  0.4642 -2.1867
 1178TIP3    H224950   5.113   0.403  16.649  0.6349  0.0673 -0.4780
 1179TIP3   OH224951   0.976   5.928  16.047  0.5590  0.4457  0.5169
 1179TIP3    H124952   1.043   5.860  16.060  0.8111  0.0978 -2.0807
 1179TIP3    H224953   1.008   5.979  15.973 -1.3752  1.1558  0.1172
 1180TIP3   OH224954   1.325   2.805   2.314 -0.0334 -0.3199  0.0669
 1180TIP3    H124955   1.252   2.779   2.257 -2.6799  2.0741  2.0856
 1180TIP3    H224956   1.333   2.734   2.377 -0.8165 -0.5043 -0.0322
 1181TIP3   OH224957   5.193   1.510  12.064  0.4080 -0.2861 -0.0721
 1181TIP3    H124958   5.140   1.431  12.075 -0.4576  0.1250 -1.1448
 1181TIP3    H224959   5.280   1.484  12.095 -0.6184 -0.6348  2.7825
 1182TIP3   OH224960   4.763   0.504   0.439  0.3471 -0.0767  0.1575
 1182TIP3    H124961   4.685   0.506   0.495  1.0123  0.4789  1.0872
 1182TIP3    H224962   4.730   0.525   0.352 -0.6448 -0.5129  0.4117
 1183TIP3   OH224963   5.794   2.416   2.113  0.6149 -0.1701 -0.0196
 1183TIP3    H124964   5.728   2.437   2.179 -1.5850 -0.1622 -2.1013
 1183TIP3    H224965   5.875   2.405   2.164 -0.5092  1.7569  2.4430
 1184TIP3   OH224966   0.799   3.075  16.699 -0.0986 -0.5533  0.0101
 1184TIP3    H124967   0.883   3.090  16.656  0.4686 -1.2064  0.8646
 1184TIP3    H224968   0.796   2.981  16.714 -0.6885 -0.4505  0.5810
 1185TIP3   OH224969   1.574   5.255   0.764 -0.2844 -0.2011 -0.3738
 1185TIP3    H124970   1.590   5.171   0.722  0.5881 -0.9885  1.4170
 1185TIP3    H224971   1.655   5.304   0.753 -0.9349  0.6235 -1.7863
 1186TIP3   OH224972   2.656   0.420   6.406 -0.3805  0.0999 -0.5010
 1186TIP3    H124973   2.736   0.438   6.358 -0.0248  1.9451  0.6853
 1186TIP3    H224974   2.640   0.499   6.458 -2.0043 -0.8926  0.6326
 1187TIP3   OH224975   1.216   5.958   4.336 -0.4170 -0.2366 -0.6679
 1187TIP3    H124976   1.210   6.012   4.415 -0.4089  0.8422 -1.3850
 1187TIP3    H224977   1.140   5.983   4.284 -1.0888 -1.8101 -0.5048
 1188TIP3   OH224978   0.357   1.490   2.430 -0.3664  0.0483 -0.0498
 1188TIP3    H124979   0.424   1.451   2.485  0.0162  1.3240  0.4053
 1188TIP3    H224980   0.296   1.531   2.491 -0.7013  0.2629 -0.5231
 1189TIP3   OH224981   1.528   1.782   0.825 -0.1118  0.1362 -0.0028
 1189TIP3    H124982   1.548   1.705   0.878 -3.2744  0.2101  1.5154
 1189TIP3    H224983   1.507   1.747   0.739 -1.1900 -0.6953  0.5762
 1190TIP3   OH224984   5.894   1.235   0.262  0.6315  0.4652  0.0992
 1190TIP3    H124985   5.827   1.264   0.200  0.9560  1.0988  0.0298
 1190TIP3    H224986   5.859   1.257   0.348 -1.0536 -2.8959  0.4081
 1191TIP3   OH224987   0.410   4.480   3.211 -0.3867 -0.0071 -1.1064
 1191TIP3    H124988   0.404   4.387   3.188  0.5940 -0.2580 -0.4239
 1191TIP3    H224989   0.500   4.504   3.189 -1.0072  1.1465 -2.5361
 1192TIP3   OH224990   3.431   0.552  16.352 -0.3177 -0.3937 -1.0374
 1192TIP3    H124991   3.388   0.568  16.269 -1.3701 -0.0728 -0.4476
 1192TIP3    H224992   3.362   0.563  16.418  0.8395  1.0679  0.0192
 1193TIP3   OH224993   2.167   6.640   5.511  0.1378  0.7182  0.2435
 1193TIP3    H124994   2.251   6.607   5.480  0.6934  1.9791  0.3295
 1193TIP3    H224995   2.129   6.683   5.434 -1.6756 -2.0533 -0.5583
 1194TIP3   OH224996   5.505   2.282   3.460 -0.5288 -0.2019  0.6594
 1194TIP3    H124997   5.469   2.362   3.422 -1.1979 -1.2100 -0.9512
 1194TIP3    H224998   5.560   2.246   3.391  1.5249 -0.0487  2.1500
 1195TIP3   OH224999   0.297   6.502  13.624 -0.1576  0.8109  0.1212
 1195TIP3    H125000   0.267   6.489  13.714  0.7091 -1.2524  0.1596
 1195TIP3    H225001   0.302   6.597  13.615  0.1811  1.0748  2.3975
 1196TIP3   OH225002   0.376   2.608  11.697  0.4648 -0.0662 -0.3190
 1196TIP3    H125003   0.448   2.552  11.670  0.2128 -1.0442  0.9346
 1196TIP3    H225004   0.398   2.635  11.786 -0.0488  0.7641 -0.4328
 1197TIP3   OH225005   4.756   5.800  13.474 -0.2487  0.3070 -0.2452
 1197TIP3    H125006   4.833   5.806  13.417  2.4042 -2.5069  2.6369
 1197TIP3    H225007   4.757   5.882  13.524  0.6998  0.4513 -0.4712
 1198TIP3   OH225008   0.935   3.282   2.632 -0.3684  0.2630  0.5688
 1198TIP3    H125009   0.935   3.378   2.640  0.0823  0.2750  0.4634
 1198TIP3    H225010   0.995   3.253   2.701 -0.8767  0.0279  0.9126
 1199TIP3   OH225011   6.155   1.105  15.706 -0.4060 -0.0659  0.6906
 1199TIP3    H125012   6.170   1.176  15.643 -0.3621 -1.4129 -0.8760
 1199TIP3    H225013   6.061   1.109  15.724 -0.1503  1.3934  1.9131
 1200TIP3   OH225014   2.050   1.836   1.230  0.2451 -0.2112 -0.0603
 1200TIP3    H125015   2.066   1.747   1.200  0.5844 -1.8655  4.3918
 1200TIP3    H225016   2.137   1.877   1.231  0.4014 -0.5444 -0.0581
 1201TIP3   OH225017   5.607   2.298   5.013 -0.8809  0.1249  0.3405
 1201TIP3    H125018   5.587   2.351   5.090 -1.9088 -0.4608  0.4868
 1201TIP3    H225019   5.703   2.297   5.009 -0.7575 -0.9571  2.3971
 1202TIP3   OH225020   4.089   3.551  11.826  0.2924  0.0370 -0.8331
 1202TIP3    H125021   4.140   3.629  11.845  1.9709 -1.4002  1.0668
 1202TIP3    H225022   4.152   3.489  11.788 -0.6930 -0.8225 -1.1364
 1203TIP3   OH225023   2.969   1.984   2.916  0.0462  0.0493 -0.2019
 1203TIP3    H125024   3.012   1.922   2.975 -0.1412 -0.2317 -0.3573
 1203TIP3    H225025   2.969   2.067   2.964 -1.4292 -0.5007  0.8172
 1204TIP3   OH225026   6.542   6.267  14.278 -0.2135  0.2917 -0.0285
 1204TIP3    H125027   6.485   6.196  14.307  0.8060 -0.7921 -0.5992
 1204TIP3    H225028   6.595   6.288  14.355  0.8998 -1.0048 -0.4040
 1205TIP3   OH225029   4.392   5.153  11.391 -0.3978  0.3002 -0.2059
 1205TIP3    H125030   4.370   5.209  11.316  1.1086  1.3891  0.1284
 1205TIP3    H225031   4.439   5.210  11.451 -0.8540 -0.7627  1.2269
 1206TIP3   OH225032   1.453   4.344   2.614  0.3855  0.3363  0.2989
 1206TIP3    H125033   1.523   4.296   2.657  0.8335  1.4846  0.9063
 1206TIP3    H225034   1.488   4.365   2.527  0.7093  0.6971  0.5127
 1207TIP3   OH225035   1.079   3.192   0.916  0.4854 -0.2192 -0.3082
 1207TIP3    H125036   1.084   3.097   0.931  2.0084 -0.0618  0.3546
 1207TIP3    H225037   1.166   3.225   0.940 -0.2007  1.4318  0.0499
 1208TIP3   OH225038   5.051   1.067   4.140  0.0835  0.1779  0.2091
 1208TIP3    H125039   5.115   1.002   4.167  0.2362 -0.0263 -0.6420
 1208TIP3    H225040   5.070   1.143   4.194  0.9548  0.0736  0.0530
 1209TIP3   OH225041   2.972   4.715   5.558  0.5178  0.1790 -0.2519
 1209TIP3    H125042   3.001   4.793   5.605  1.6379  0.5918 -1.5743
 1209TIP3    H225043   2.905   4.676   5.615 -0.9395  2.7156 -0.0805
 1210TIP3   OH225044   6.552   1.230  14.510  0.0959  0.0369 -0.1151
 1210TIP3    H125045   6.518   1.319  14.513  1.3790  0.5265  0.4771
 1210TIP3    H225046   6.646   1.240  14.499  0.3916 -1.2353  1.0208
 1211TIP3   OH225047   6.254   2.356  13.271 -0.0392 -0.2464 -0.4632
 1211TIP3    H125048   6.285   2.309  13.349  1.9713  3.2516  1.0786
 1211TIP3    H225049   6.188   2.417  13.304 -1.6787 -0.9696 -2.1901
 1212TIP3   OH225050   1.977   6.690  13.915  0.5064  0.4093 -0.0634
 1212TIP3    H125051   2.067   6.722  13.908  0.1912  1.7879  1.6676
 1212TIP3    H225052   1.923   6.758  13.875  0.2075 -0.6708 -1.6298
 1213TIP3   OH225053   0.608   1.646  11.206  0.5563 -0.1515 -0.1166
 1213TIP3    H125054   0.647   1.710  11.265  1.0115  1.2417 -1.8253
 1213TIP3    H225055   0.647   1.666  11.121  0.7880 -2.7927 -0.7086
 1214TIP3   OH225056   5.840   5.453  11.825  0.0729  0.6691  0.5338
 1214TIP3    H125057   5.775   5.510  11.785  0.3238  1.4426  1.2056
 1214TIP3    H225058   5.829   5.369  11.781 -0.8174  1.0248  0.0652
 1215TIP3   OH225059   2.417   4.233   4.118  0.0207  0.0258 -0.6422
 1215TIP3    H125060   2.466   4.224   4.036 -0.4905  1.0507 -1.0669
 1215TIP3    H225061   2.483   4.261   4.182  0.4837 -1.0691 -0.6127
 1216TIP3   OH225062   2.836   6.334   5.750 -0.0572  0.2443 -0.3322
 1216TIP3    H125063   2.873   6.261   5.700  0.8445  1.1305 -1.0140
 1216TIP3    H225064   2.794   6.293   5.825 -1.2105 -1.1132 -1.6518
 1217TIP3   OH225065   4.297   0.370  16.464  0.3577  0.6460 -0.8845
 1217TIP3    H125066   4.350   0.303  16.506  0.7336 -0.6662 -3.2962
 1217TIP3    H225067   4.351   0.449  16.466 -0.2707  1.1526  2.4004
 1218TIP3   OH225068   3.520   6.473   0.103  0.1857  0.3726  0.1430
 1218TIP3    H125069   3.538   6.405   0.037 -2.3554 -0.7432  0.4909
 1218TIP3    H225070   3.545   6.434   0.186 -0.2027  0.3078  0.2295
 1219TIP3   OH225071   4.693   4.870  16.877 -0.3479 -0.3756 -0.0040
 1219TIP3    H125072   4.659   4.898  16.963  0.1655  0.0800  0.0569
 1219TIP3    H225073   4.644   4.923  16.814 -0.1202 -0.0920  0.0559
 1220TIP3   OH225074   4.538   5.920   2.056  0.1874  0.0192 -0.3886
 1220TIP3    H125075   4.573   5.923   1.968 -1.6556  2.6432 -1.1593
 1220TIP3    H225076   4.609   5.952   2.112  1.3293 -1.5714 -0.8326
 1221TIP3   OH225077   0.393   0.683   3.595 -0.1362  0.0218 -0.4533
 1221TIP3    H125078   0.475   0.679   3.546 -0.6183 -0.9059 -1.2387
 1221TIP3    H225079   0.412   0.740   3.669  0.6311  1.4513 -1.6930
 1222TIP3   OH225080   3.266   1.679   4.102 -0.6004  0.1237 -0.2221
 1222TIP3    H125081   3.186   1.731   4.102 -0.0940  0.9359 -0.6473
 1222TIP3    H225082   3.238   1.590   4.080 -1.4719  0.2308  0.4177
 1223TIP3   OH225083   6.128   1.872  15.837  0.5664  0.1743 -0.1969
 1223TIP3    H125084   6.043   1.910  15.814 -0.8964 -2.8157 -0.1927
 1223TIP3    H225085   6.151   1.913  15.921 -1.3495  0.3822  0.2670
 1224TIP3   OH225086   6.074   2.457   2.306  0.2468 -0.3332  0.2539
 1224TIP3    H125087   6.160   2.481   2.340  0.9630 -2.2919 -0.0448
 1224TIP3    H225088   6.092   2.394   2.237 -1.4427 -1.8468  1.1053
 1225TIP3   OH225089   3.572   2.665  15.540 -0.2152  0.0320  0.0857
 1225TIP3    H125090   3.479   2.680  15.520 -0.0262  1.1695 -0.0187
 1225TIP3    H225091   3.615   2.747  15.515  1.0011 -0.9123 -0.9869
 1226TIP3   OH225092   4.052   4.766   1.515  0.0152  0.1900 -0.2923
 1226TIP3    H125093   4.058   4.862   1.514  1.3956  0.1273 -1.6873
 1226TIP3    H225094   4.122   4.737   1.457 -0.5805 -1.6728 -0.1462
 1227TIP3   OH225095   4.734   5.426   0.614 -0.0422  0.1350  1.0600
 1227TIP3    H125096   4.818   5.428   0.661 -0.2775  0.6534  1.4694
 1227TIP3    H225097   4.670   5.402   0.681 -0.6381  2.5645  1.4486
 1228TIP3   OH225098   4.193   1.214   2.682 -0.2052  0.2690 -0.2819
 1228TIP3    H125099   4.276   1.260   2.678 -0.4082  0.8652  1.7013
 1228TIP3    H225100   4.128   1.282   2.698 -0.8396 -0.4176  0.1449
 1229TIP3   OH225101   2.249   6.172  12.172 -0.0743  0.0005 -0.2692
 1229TIP3    H125102   2.177   6.116  12.142 -0.4840 -1.0284  2.3951
 1229TIP3    H225103   2.207   6.255  12.194 -0.6183 -0.7522  1.7392
 1230TIP3   OH225104   6.218   5.016  16.254 -0.5125 -0.2939  0.4965
 1230TIP3    H125105   6.269   5.042  16.330  1.8601  0.7173 -1.3142
 1230TIP3    H225106   6.204   4.922  16.266  1.6482 -0.5795  1.1914
 1231TIP3   OH225107   2.059   4.531  11.037  0.0611 -0.5193  0.4981
 1231TIP3    H125108   1.980   4.571  11.074 -1.1095 -0.9428 -1.4173
 1231TIP3    H225109   2.027   4.451  10.996  2.0484 -2.5323  2.6033
 1232TIP3   OH225110   2.715   3.663   2.932 -0.0668 -0.0719 -0.2055
 1232TIP3    H125111   2.652   3.728   2.965 -0.5430 -1.1198  1.0573
 1232TIP3    H225112   2.667   3.615   2.865  0.0503  0.4112 -0.6397
 1233TIP3   OH225113   1.702   1.972  15.236  0.1786 -0.2615 -0.3906
 1233TIP3    H125114   1.702   2.064  15.263  2.2196  0.3542 -2.1567
 1233TIP3    H225115   1.625   1.964  15.180  0.7073  0.7910 -1.3210
 1234TIP3   OH225116   1.820   0.763   1.664  0.1987 -0.4124 -0.4639
 1234TIP3    H125117   1.837   0.808   1.581 -0.0997 -0.3683 -0.5042
 1234TIP3    H225118   1.793   0.675   1.639 -1.5134  0.0770 -0.5167
 1235TIP3   OH225119   3.021   4.061  15.743  0.2556 -1.1658  0.0484
 1235TIP3    H125120   2.988   4.051  15.832  1.2485 -1.0897  0.4292
 1235TIP3    H225121   2.970   3.998  15.692 -1.2099 -0.3281  0.4217
 1236TIP3   OH225122   2.110   3.383  16.943 -0.3109  0.1266  0.8844
 1236TIP3    H125123   2.072   3.467  16.969  0.4612  1.0651 -0.8752
 1236TIP3    H225124   2.163   3.403  16.866 -1.3241 -2.2371 -0.5276
 1237TIP3   OH225125   2.207   3.975  13.750 -0.4329 -0.0150 -0.3317
 1237TIP3    H125126   2.201   4.055  13.699 -2.2300 -0.2545 -0.5690
 1237TIP3    H225127   2.264   3.918  13.699  0.4028  0.8950 -0.4409
 1238TIP3   OH225128   4.498   4.059  15.768 -0.3171 -0.3393 -0.7803
 1238TIP3    H125129   4.424   4.082  15.824 -0.1143 -0.2267 -0.5591
 1238TIP3    H225130   4.486   4.112  15.690  0.6308  1.2089  0.0855
 1239TIP3   OH225131   3.755   3.530   3.045  0.4620 -0.0694  0.2524
 1239TIP3    H125132   3.796   3.560   3.126 -1.4257 -1.2076  1.7008
 1239TIP3    H225133   3.797   3.446   3.027  0.7264  0.0812  0.1540
 1240TIP3   OH225134   3.006   5.069   3.922  0.3054  0.2006  0.2230
 1240TIP3    H125135   3.032   5.113   3.841 -1.2988 -1.7935 -1.5059
 1240TIP3    H225136   3.080   5.013   3.944  0.5926  0.4495 -0.1016
 1241TIP3   OH225137   5.374   3.621  13.770  0.0094  0.1460  0.0698
 1241TIP3    H125138   5.372   3.666  13.855 -0.3807 -1.0762  0.7225
 1241TIP3    H225139   5.323   3.678  13.712  1.4063  1.6805  0.2791
 1242TIP3   OH225140   1.270   3.484   4.573  0.0644 -0.1029  0.2109
 1242TIP3    H125141   1.352   3.447   4.539  0.8280  1.9564 -0.3620
 1242TIP3    H225142   1.296   3.568   4.612 -1.5809 -0.0656  1.3067
 1243TIP3   OH225143   1.942   0.098  14.201  0.1580  0.0221 -0.3070
 1243TIP3    H125144   1.949   0.191  14.181 -0.0813  0.2594  0.6333
 1243TIP3    H225145   2.033   0.067  14.208  0.3402  0.8642  2.2033
 1244TIP3   OH225146   3.790   2.139   2.152 -0.0886  0.6632  0.2923
 1244TIP3    H125147   3.832   2.053   2.144  0.2663  0.8241  0.3713
 1244TIP3    H225148   3.856   2.193   2.197 -0.7141  0.6920  1.2099
 1245TIP3   OH225149   3.658   5.359   0.570  0.1834  0.1478 -0.0232
 1245TIP3    H125150   3.750   5.349   0.547 -0.4019 -1.9994 -1.7306
 1245TIP3    H225151   3.659   5.401   0.656  2.7310  0.4657 -0.1515
 1246TIP3   OH225152   4.465   6.723  12.750 -0.4768  0.1472  0.1702
 1246TIP3    H125153   4.421   6.653  12.797 -0.4241  0.3139  0.4731
 1246TIP3    H225154   4.421   6.727  12.665 -0.0875 -0.6537 -0.0815
 1247TIP3   OH225155   5.078   4.823   3.810 -0.3956 -0.0223  0.7758
 1247TIP3    H125156   5.048   4.734   3.790 -0.9882  0.3305  0.0655
 1247TIP3    H225157   5.161   4.832   3.763  0.1304 -0.5028  1.5839
 1248TIP3   OH225158   0.471   5.473   4.276  0.2163 -0.4366  0.2967
 1248TIP3    H125159   0.417   5.552   4.282  1.0491  0.1561  0.1855
 1248TIP3    H225160   0.453   5.425   4.357 -2.2240 -1.4309 -0.7108
 1249TIP3   OH225161   5.239   6.041  13.246 -0.3809 -0.4950  0.2683
 1249TIP3    H125162   5.187   6.055  13.167  1.1670 -0.7174 -0.8431
 1249TIP3    H225163   5.266   5.950  13.241  0.5076 -0.2609  0.5496
 1250TIP3   OH225164   2.241   5.524  14.593  0.0417  0.1564  0.2808
 1250TIP3    H125165   2.300   5.593  14.625 -0.3962  0.5604  0.2272
 1250TIP3    H225166   2.272   5.444  14.635 -0.1106  0.5707  1.1862
 1251TIP3   OH225167   4.736   2.296   3.483 -0.1214  0.9464  0.0527
 1251TIP3    H125168   4.736   2.336   3.396 -0.1106  1.2547  0.1939
 1251TIP3    H225169   4.815   2.329   3.525 -0.1817  0.8833  0.2180
 1252TIP3   OH225170   5.942   3.946  12.328 -0.2614 -0.5051  0.0147
 1252TIP3    H125171   5.871   3.949  12.264  0.8085 -0.3203 -1.1860
 1252TIP3    H225172   6.010   3.894  12.286  0.9199  0.5826  0.5223
 1253TIP3   OH225173   6.502   2.980  16.544 -0.3828 -0.0787  0.3521
 1253TIP3    H125174   6.590   3.005  16.572 -0.1092 -1.4192  0.8056
 1253TIP3    H225175   6.444   3.025  16.605  0.1159 -1.0391  1.5844
 1254TIP3   OH225176   3.220   1.115  12.462 -0.4389  0.9567 -0.2110
 1254TIP3    H125177   3.206   1.134  12.555 -2.0101 -0.7396 -0.0404
 1254TIP3    H225178   3.315   1.122  12.450 -0.1946  1.1366  1.5339
 1255TIP3   OH225179   3.065   3.547   1.784  0.6095 -0.4421  0.1641
 1255TIP3    H125180   3.045   3.514   1.696  0.2159  0.9374 -0.2906
 1255TIP3    H225181   3.160   3.560   1.783  0.6336 -0.6259  0.0011
 1256TIP3   OH225182   3.822   2.684  10.792 -0.3666 -0.0882 -0.2063
 1256TIP3    H125183   3.774   2.624  10.849  0.2029 -0.0954  0.2811
 1256TIP3    H225184   3.775   2.767  10.799 -1.2324 -0.4972 -0.9823
 1257TIP3   OH225185   2.045   5.410  16.411  0.3767  0.2356 -0.6077
 1257TIP3    H125186   2.041   5.420  16.506 -0.0637 -1.2733 -0.4377
 1257TIP3    H225187   2.138   5.397  16.392  0.1506 -3.8922  0.2172
 1258TIP3   OH225188   5.854   1.804   1.916  0.0866 -0.6600  0.2137
 1258TIP3    H125189   5.858   1.710   1.901  1.0297 -0.7879  1.1814
 1258TIP3    H225190   5.838   1.813   2.010  0.3671  0.1502  0.1948
 1259TIP3   OH225191   4.396   6.418  14.793 -0.3360  0.1120  0.0546
 1259TIP3    H125192   4.413   6.457  14.707  0.5483 -0.6076 -0.1133
 1259TIP3    H225193   4.454   6.466  14.852  0.5704 -0.7299 -0.1108
 1260TIP3   OH225194   5.822   4.772   4.444 -0.0404  0.2246  0.1668
 1260TIP3    H125195   5.799   4.688   4.483  0.9762  0.7988  2.1305
 1260TIP3    H225196   5.901   4.754   4.393  0.4272  0.0583  0.9354
 1261TIP3   OH225197   4.250   0.966   3.321  0.3559  0.3914  0.2331
 1261TIP3    H125198   4.199   1.015   3.385  1.4563  0.1784  1.3057
 1261TIP3    H225199   4.272   1.031   3.254  3.1676  1.9471  2.4227
 1262TIP3   OH225200   5.390   1.809  13.626  0.3004  0.1992  0.4692
 1262TIP3    H125201   5.298   1.827  13.646 -0.2468 -2.0867  0.3315
 1262TIP3    H225202   5.438   1.882  13.664 -1.6205  1.9235 -0.2273
 1263TIP3   OH225203   0.515   2.213   4.657 -0.1419 -0.2496 -0.3298
 1263TIP3    H125204   0.466   2.292   4.635 -0.6389 -0.7826 -1.2012
 1263TIP3    H225205   0.465   2.173   4.728 -1.4399 -1.1874 -1.7194
 1264TIP3   OH225206   1.287   5.010  14.442 -0.0726 -0.2379 -0.4229
 1264TIP3    H125207   1.358   5.021  14.505  0.5514 -2.1029 -0.7371
 1264TIP3    H225208   1.248   4.925  14.465 -1.0115 -0.0910 -1.4044
 1265TIP3   OH225209   5.543   1.479   6.000  0.2272 -0.2383  0.4421
 1265TIP3    H125210   5.502   1.515   6.079 -0.9436 -0.8540  0.1267
 1265TIP3    H225211   5.505   1.392   5.990 -1.3670  0.6316 -2.0443
 1266TIP3   OH225212   4.598   6.036   4.027 -0.0910 -0.0552 -0.4993
 1266TIP3    H125213   4.660   5.974   3.990  0.3009  0.5983 -0.9441
 1266TIP3    H225214   4.531   5.981   4.069  2.4230 -0.8422  2.9421
 1267TIP3   OH225215   4.042   1.132  11.089 -0.0624 -0.0534 -0.1304
 1267TIP3    H125216   4.057   1.186  11.167 -1.4481 -0.8092  0.7005
 1267TIP3    H225217   4.068   1.188  11.016 -0.4596  1.3635  0.7713
 1268TIP3   OH225218   0.878   0.745  14.366  0.1495  0.7285 -0.2153
 1268TIP3    H125219   0.969   0.770  14.351  0.6196 -1.3731 -1.3204
 1268TIP3    H225220   0.826   0.809  14.317  1.3135 -0.9818 -4.0516
 1269TIP3   OH225221   3.336   2.592  12.823 -0.5848  0.5831 -0.4301
 1269TIP3    H125222   3.409   2.560  12.770 -2.4988 -1.1811 -2.1386
 1269TIP3    H225223   3.278   2.635  12.761 -0.7922  2.5341  1.0025
 1270TIP3   OH225224   6.340   5.953  13.203 -0.2965 -0.0813  0.3610
 1270TIP3    H125225   6.375   5.909  13.280 -0.6781  0.6502  0.9622
 1270TIP3    H225226   6.416   5.996  13.164  0.0270 -1.0276 -0.0801
 1271TIP3   OH225227   6.080   1.258  14.095  0.0385  0.3204 -0.2642
 1271TIP3    H125228   6.003   1.270  14.151 -1.7480 -1.6768 -2.1066
 1271TIP3    H225229   6.083   1.337  14.041 -1.2720  0.0444 -0.7680
 1272TIP3   OH225230   2.006   5.545   0.643 -0.1729 -0.3831  0.0708
 1272TIP3    H125231   1.971   5.557   0.555  0.3348  2.1945  0.1622
 1272TIP3    H225232   2.054   5.626   0.662  2.0511 -1.9382  1.6838
 1273TIP3   OH225233   0.083   4.950  12.522  0.1896  0.3112 -0.1923
 1273TIP3    H125234   0.123   4.947  12.435  0.4314 -0.4271 -0.0676
 1273TIP3    H225235   0.064   4.858  12.542 -0.2086  0.5167  0.3770
 1274TIP3   OH225236   5.310   3.111  13.072 -0.5762  0.3865 -0.0551
 1274TIP3    H125237   5.216   3.093  13.081 -0.1791 -2.8590 -1.1705
 1274TIP3    H225238   5.319   3.144  12.982 -0.6324  0.7432  0.0677
 1275TIP3   OH225239   3.327   4.842   5.930  0.7969 -0.0027 -0.0296
 1275TIP3    H125240   3.374   4.873   5.854  0.8406  0.3385  0.1352
 1275TIP3    H225241   3.297   4.921   5.975 -1.3800 -0.1872 -1.0174
 1276TIP3   OH225242   3.370   5.160   0.855  0.0169  0.2818  0.2441
 1276TIP3    H125243   3.464   5.156   0.835 -0.0298  0.8724 -0.1020
 1276TIP3    H225244   3.334   5.082   0.813  0.2222  0.5038 -0.3631
 1277TIP3   OH225245   1.193   5.190  13.876 -0.1805 -0.7152 -0.2272
 1277TIP3    H125246   1.238   5.139  13.943  0.2030  0.5422  0.5141
 1277TIP3    H225247   1.257   5.256  13.850 -1.3576  0.7169  0.3785
 1278TIP3   OH225248   5.237   4.623  16.426  0.1284 -0.2686 -0.1588
 1278TIP3    H125249   5.315   4.655  16.381  0.0439 -1.9332 -1.5631
 1278TIP3    H225250   5.268   4.599  16.513  1.2087 -0.9898 -0.7257
 1279TIP3   OH225251   6.295   0.083  14.003  0.6685 -0.2025  0.4294
 1279TIP3    H125252   6.250  -0.001  14.016  0.3368  0.0692  1.0817
 1279TIP3    H225253   6.358   0.065  13.934  1.4119 -1.3098  1.3544
 1280TIP3   OH225254   1.610   5.572   6.810 -0.0745 -0.3951  0.0033
 1280TIP3    H125255   1.530   5.545   6.855 -0.2784  1.2269  0.7133
 1280TIP3    H225256   1.584   5.584   6.719 -0.4566 -0.6227  0.0822
 1281TIP3   OH225257   2.712   3.818   6.172 -0.2022 -0.1326  0.3313
 1281TIP3    H125258   2.624   3.783   6.184  0.2886 -1.4567  0.3204
 1281TIP3    H225259   2.751   3.815   6.259 -0.1527  0.4183  0.3311
 1282TIP3   OH225260   0.181   4.696  17.331 -0.1977 -0.2398  0.0544
 1282TIP3    H125261   0.274   4.671  17.332 -0.3032 -0.6911 -0.4792
 1282TIP3    H225262   0.148   4.670  17.416 -0.4311 -2.5036 -0.6493
 1283TIP3   OH225263   0.614   2.279   5.998 -0.6495 -0.2646  0.2746
 1283TIP3    H125264   0.539   2.322   6.039  0.1980  2.2644 -0.6373
 1283TIP3    H225265   0.686   2.341   6.009  1.4513 -2.6968  1.3226
 1284TIP3   OH225266   6.361   3.899   3.513  0.0826 -0.8567 -0.2085
 1284TIP3    H125267   6.456   3.911   3.514  0.2247 -1.8175 -0.4980
 1284TIP3    H225268   6.350   3.806   3.494 -0.9443 -0.3581 -2.3294
 1285TIP3   OH225269   6.587   4.455  11.616 -0.5676  0.2820 -0.3555
 1285TIP3    H125270   6.510   4.409  11.583 -1.3711  0.5574  1.0817
 1285TIP3    H225271   6.590   4.435  11.709  0.7656  0.7565 -0.2679
 1286TIP3   OH225272   6.137   4.085   1.505 -0.2365  0.1823  0.9386
 1286TIP3    H125273   6.162   4.019   1.440 -1.7231  2.1361 -1.7966
 1286TIP3    H225274   6.046   4.105   1.486 -1.0871  0.2064  4.3402
 1287TIP3   OH225275   3.376   3.917  12.141  0.0325  0.0993 -0.2226
 1287TIP3    H125276   3.349   3.962  12.061  0.6113 -0.3863 -0.7091
 1287TIP3    H225277   3.334   3.965  12.212 -1.7603 -0.3986 -0.9140
 1288TIP3   OH225278   6.244   1.693   6.609  0.0645 -0.1502 -0.2738
 1288TIP3    H125279   6.205   1.779   6.623 -0.0519 -0.3788  0.9185
 1288TIP3    H225280   6.330   1.712   6.570  0.0228  0.5119 -0.0567
 1289TIP3   OH225281   1.569   6.416  14.352  0.4021  0.3189 -0.4751
 1289TIP3    H125282   1.638   6.379  14.297  0.3819 -0.0954 -0.2336
 1289TIP3    H225283   1.596   6.395  14.442  0.1718  0.5184 -0.3576
 1290TIP3   OH225284   1.660   1.140  14.278  0.1410  0.5238 -0.1663
 1290TIP3    H125285   1.747   1.181  14.283  0.1891  0.6394 -1.6359
 1290TIP3    H225286   1.664   1.084  14.201 -1.1151  0.5597 -0.2766
 1291TIP3   OH225287   2.492   6.221   2.506  0.7819  0.1682  0.0066
 1291TIP3    H125288   2.469   6.128   2.513  1.0998 -0.1280 -2.1619
 1291TIP3    H225289   2.507   6.235   2.412  0.5436  2.4722  0.2610
 1292TIP3   OH225290   4.685   3.741  16.074 -0.4578 -0.0814 -0.4744
 1292TIP3    H125291   4.597   3.771  16.094 -0.0735  1.1217 -0.5416
 1292TIP3    H225292   4.674   3.648  16.052 -1.5767 -0.1620  0.3439
 1293TIP3   OH225293   5.051   2.998  15.332  0.0840 -0.0510 -0.1007
 1293TIP3    H125294   5.070   2.967  15.244 -0.5256 -0.8930  0.0544
 1293TIP3    H225295   5.001   3.079  15.319  1.4809  0.7771 -0.5047
 1294TIP3   OH225296   0.671   1.844   3.617 -0.4854  0.1394  0.6413
 1294TIP3    H125297   0.647   1.763   3.662 -2.0515 -0.7212 -1.5476
 1294TIP3    H225298   0.762   1.830   3.588 -1.5119 -2.0758 -1.9641
 1295TIP3   OH225299   1.634   0.861  13.226  0.0424 -0.1175  0.1830
 1295TIP3    H125300   1.629   0.957  13.225 -2.5372 -0.1785  0.7900
 1295TIP3    H225301   1.696   0.842  13.296  1.3537  1.0791 -0.5900
 1296TIP3   OH225302   0.964   5.791  13.914 -0.0697 -0.2348  0.6217
 1296TIP3    H125303   0.938   5.750  13.831  0.9658 -0.2601  0.3039
 1296TIP3    H225304   1.057   5.773  13.922  0.2747  1.4977  0.8212
 1297TIP3   OH225305   1.025   1.541   5.530 -0.5522  0.1797 -0.2192
 1297TIP3    H125306   0.999   1.631   5.511  0.8160  0.4300 -1.0188
 1297TIP3    H225307   1.085   1.548   5.604  2.1117  0.3600 -2.2415
 1298TIP3   OH225308   0.769   4.022  14.212  0.2538 -0.7302 -0.4672
 1298TIP3    H125309   0.820   4.024  14.131 -0.0395 -0.8747 -0.6555
 1298TIP3    H225310   0.819   3.964  14.270  1.0540  0.2554 -0.1419
 1299TIP3   OH225311   1.149   6.221  16.253 -0.1197  0.6720  0.1151
 1299TIP3    H125312   1.132   6.159  16.181 -1.4969 -0.5936  1.4610
 1299TIP3    H225313   1.158   6.166  16.330  0.1187  2.0816  1.1265
 1300TIP3   OH225314   5.690   6.225  11.022  0.5256  0.3609  0.2578
 1300TIP3    H125315   5.696   6.130  11.009 -4.4176  0.0008 -1.4548
 1300TIP3    H225316   5.716   6.262  10.938 -1.2956  0.1420 -0.4521
 1301TIP3   OH225317   6.108   3.969   3.694  1.2274  0.5662 -0.1784
 1301TIP3    H125318   6.091   4.059   3.667 -1.2539 -0.0365 -0.8704
 1301TIP3    H225319   6.177   3.939   3.634  0.2975  1.2502 -1.6475
 1302TIP3   OH225320   1.355   1.307   0.041 -0.3171  0.1513  0.1064
 1302TIP3    H125321   1.288   1.367   0.074 -0.9278 -1.6730  2.5460
 1302TIP3    H225322   1.424   1.309   0.108 -0.0113 -1.2459 -0.1281
 1303TIP3   OH225323   6.113   4.299   6.084 -0.4984  0.1848 -0.4033
 1303TIP3    H125324   6.155   4.287   6.169 -1.2431  1.6788  0.2155
 1303TIP3    H225325   6.144   4.225   6.031  1.4778  0.2407  0.5661
 1304TIP3   OH225326   6.462   2.920   0.119 -0.1046  0.3030 -0.6455
 1304TIP3    H125327   6.393   2.971   0.075 -0.2551  1.7412  1.1489
 1304TIP3    H225328   6.423   2.833   0.130 -1.9800  1.2589  0.9373
 1305TIP3   OH225329   1.551   5.430   6.284 -0.1136  0.1763  0.8921
 1305TIP3    H125330   1.473   5.421   6.229  0.2358  1.2330  0.2032
 1305TIP3    H225331   1.526   5.390   6.367 -0.6007 -1.6302 -0.0676
 1306TIP3   OH225332   2.810   3.550  11.555  0.0211  0.0524 -0.3580
 1306TIP3    H125333   2.884   3.589  11.509  2.0922 -0.3168  2.3913
 1306TIP3    H225334   2.792   3.612  11.627  1.7094 -2.5964  2.5826
 1307TIP3   OH225335   5.747   0.113  13.343 -0.0398 -0.5022  0.0691
 1307TIP3    H125336   5.811   0.172  13.303 -0.4644 -0.1425 -0.0911
 1307TIP3    H225337   5.781   0.096  13.431 -1.0813  1.8897  1.0063
 1308TIP3   OH225338   5.081   4.253  14.979 -0.1197 -0.3948 -0.4461
 1308TIP3    H125339   5.000   4.255  14.928  1.6335  2.8154 -3.5629
 1308TIP3    H225340   5.069   4.319  15.047 -0.2770 -0.1680 -0.6921
 1309TIP3   OH225341   6.512   1.642   2.494  0.0087  0.5529  0.5337
 1309TIP3    H125342   6.462   1.678   2.421 -0.8506 -1.3042  0.1274
 1309TIP3    H225343   6.539   1.555   2.463 -1.4751 -0.8481  2.8107
 1310TIP3   OH225344   6.327   4.381   4.975  0.1150 -0.1303 -0.1613
 1310TIP3    H125345   6.283   4.433   4.907  0.1614 -0.3782 -0.3814
 1310TIP3    H225346   6.351   4.300   4.931  1.0589  0.1231 -0.1229
 1311TIP3   OH225347   6.580   0.831   3.557 -0.3564  0.4773 -0.3166
 1311TIP3    H125348   6.595   0.816   3.651 -0.3916  0.3854 -0.3254
 1311TIP3    H225349   6.583   0.744   3.518 -1.6718  0.3596 -0.2082
 1312TIP3   OH225350   4.099   0.703   5.894 -0.0353  0.3564 -0.1158
 1312TIP3    H125351   4.015   0.671   5.928 -0.1315  0.1598 -0.5332
 1312TIP3    H225352   4.160   0.631   5.909 -0.0180  0.3724 -0.1099
 1313TIP3   OH225353   5.089   5.194   0.988 -0.0074 -0.1908 -0.3180
 1313TIP3    H125354   5.004   5.161   1.018  0.1766  0.7624  1.4475
 1313TIP3    H225355   5.140   5.204   1.069  1.8413 -0.8563 -1.3456
 1314TIP3   OH225356   2.930   5.492   5.260 -0.1082  0.1710  0.1911
 1314TIP3    H125357   2.863   5.423   5.251  0.8366 -0.6979 -0.3664
 1314TIP3    H225358   3.007   5.456   5.217  0.5285  1.4404  0.2346
 1315TIP3   OH225359   2.818   3.274  13.973  0.0794 -0.9312 -0.4617
 1315TIP3    H125360   2.900   3.320  13.989  0.1731 -1.3221  0.2576
 1315TIP3    H225361   2.830   3.230  13.889  0.0088  0.2868 -1.1316
 1316TIP3   OH225362   0.344   0.646  16.398  0.0837  0.2145 -0.4310
 1316TIP3    H125363   0.328   0.556  16.427 -0.2715  0.2443 -0.5265
 1316TIP3    H225364   0.273   0.663  16.336  0.2549  0.4981 -0.5488
 1317TIP3   OH225365   1.136   3.452   4.963  0.2085  1.0345 -0.1364
 1317TIP3    H125366   1.106   3.442   5.053 -0.0875  1.0353 -0.2326
 1317TIP3    H225367   1.214   3.506   4.969  1.6212 -0.9615  0.3646
 1318TIP3   OH225368   1.397   1.052  15.942 -0.3050  0.3963 -0.4006
 1318TIP3    H125369   1.396   0.983  16.008  0.4921 -0.1771 -0.9710
 1318TIP3    H225370   1.448   1.123  15.982 -0.1039  0.1772 -0.2668
 1319TIP3   OH225371   4.907   0.598   3.726  0.2870 -0.3033  0.1367
 1319TIP3    H125372   4.967   0.523   3.731 -0.2360 -0.7234  0.2741
 1319TIP3    H225373   4.964   0.674   3.729  0.8272 -0.6952  0.0883
 1320TIP3   OH225374   5.764   2.149  17.079  0.3176 -0.0720 -0.4491
 1320TIP3    H125375   5.729   2.188  16.999 -1.7728  3.6279  1.9390
 1320TIP3    H225376   5.689   2.101  17.116 -0.1304  1.7398  1.1639
 1321TIP3   OH225377   3.799   5.950   0.180  0.2324 -0.0221  0.0242
 1321TIP3    H125378   3.760   5.981   0.262 -2.9751 -2.9008 -0.1624
 1321TIP3    H225379   3.835   5.864   0.202  0.5689 -0.2321 -1.2998
 1322TIP3   OH225380   3.323   2.988  13.814  0.1147 -0.1460 -0.2662
 1322TIP3    H125381   3.405   2.984  13.863 -1.1677 -1.3374  1.9437
 1322TIP3    H225382   3.325   2.911  13.758 -0.1047 -0.9949  0.8640
 1323TIP3   OH225383   2.343   1.550   2.556 -0.1725  0.2260  0.1862
 1323TIP3    H125384   2.345   1.590   2.469 -0.7778  1.0431  0.5334
 1323TIP3    H225385   2.344   1.456   2.539  0.8158  0.3757 -0.6587
 1324TIP3   OH225386   5.110   1.270  15.705  0.0304 -0.1062  0.0082
 1324TIP3    H125387   5.160   1.247  15.783 -0.2464  0.4306  0.3477
 1324TIP3    H225388   5.151   1.219  15.635  3.2461  2.7261 -0.4209
 1325TIP3   OH225389   4.007   1.233   2.966  0.2152 -0.6652  0.2490
 1325TIP3    H125390   3.986   1.242   3.059 -0.9314  1.3288 -0.1272
 1325TIP3    H225391   4.080   1.293   2.952 -1.8522  1.8591 -0.7021
 1326TIP3   OH225392   2.274   1.313   2.126  0.3748  0.3127  0.4134
 1326TIP3    H125393   2.270   1.362   2.044 -1.4818 -1.6377 -0.7645
 1326TIP3    H225394   2.220   1.364   2.187  1.8196  1.8097  0.5197
 1327TIP3   OH225395   4.011   1.308  14.419 -0.5857 -0.8986 -0.6719
 1327TIP3    H125396   4.081   1.341  14.477 -0.1379 -1.3811 -0.9265
 1327TIP3    H225397   3.931   1.317  14.471 -0.2590 -0.8420 -0.1655
 1328TIP3   OH225398   4.768   0.005   2.796 -0.1505 -0.1638 -0.0339
 1328TIP3    H125399   4.768   0.092   2.837  2.3628 -0.6538  1.2447
 1328TIP3    H225400   4.711  -0.048   2.852  0.6225 -0.0122  0.9232
 1329TIP3   OH225401   4.426   2.163   1.025 -0.8433 -0.0712  0.4325
 1329TIP3    H125402   4.478   2.115   1.090 -2.1506 -1.2903  0.6346
 1329TIP3    H225403   4.418   2.103   0.951  1.1917  1.5443 -1.2381
 1330TIP3   OH225404   4.391   4.556   1.633  0.5179  0.0803  0.0846
 1330TIP3    H125405   4.448   4.573   1.708  0.5402 -1.2327  0.3793
 1330TIP3    H225406   4.327   4.492   1.665  0.2894 -0.1999 -0.9054
 1331TIP3   OH225407   1.555   2.078  12.206 -0.5043  0.3357 -0.0346
 1331TIP3    H125408   1.612   2.126  12.146  0.1329  0.7591  0.8734
 1331TIP3    H225409   1.499   2.026  12.150  1.1010 -0.4667 -0.9677
 1332TIP3   OH225410   0.240   6.467   0.142  0.3920  0.3952 -0.0145
 1332TIP3    H125411   0.294   6.546   0.144  0.8740  0.0646  0.2810
 1332TIP3    H225412   0.259   6.426   0.058 -0.4935  1.0151 -0.5410
 1333TIP3   OH225413   3.196   5.178  15.702  0.1664  0.5678 -0.4969
 1333TIP3    H125414   3.215   5.184  15.608  0.2706  0.6820 -0.4691
 1333TIP3    H225415   3.172   5.087  15.716 -0.0737  0.6034 -0.6771
 1334TIP3   OH225416   3.611   2.699  11.117 -0.2613  0.6612  0.3905
 1334TIP3    H125417   3.655   2.626  11.073 -0.8224 -1.6248  3.3072
 1334TIP3    H225418   3.677   2.734  11.177 -1.2883 -0.5236  2.2937
 1335TIP3   OH225419   4.286   4.652   1.397  0.3555 -0.3433  0.4876
 1335TIP3    H125420   4.309   4.589   1.466  0.3121  0.4658  1.2692
 1335TIP3    H225421   4.356   4.718   1.402 -0.0623  0.1184  0.2722
 1336TIP3   OH225422   1.122   6.635  15.322  0.2307  0.0424 -0.0731
 1336TIP3    H125423   1.135   6.647  15.228  2.0004 -0.9942 -0.0155
 1336TIP3    H225424   1.069   6.556  15.329  0.3878 -0.0724 -0.1872
 1337TIP3   OH225425   4.369   4.856   2.036  0.4632 -0.4315 -0.0724
 1337TIP3    H125426   4.341   4.904   1.959  0.4007  0.3147  0.4074
 1337TIP3    H225427   4.458   4.886   2.053  0.9358 -1.5059 -0.5668
 1338TIP3   OH225428   3.497   3.373   4.301 -0.2371 -0.0638  0.2278
 1338TIP3    H125429   3.532   3.444   4.247  2.6419 -2.2913 -1.0688
 1338TIP3    H225430   3.448   3.319   4.239 -0.9088 -0.1740  0.8494
 1339TIP3   OH225431   0.539   5.694   3.898 -0.1226 -0.0827 -0.5592
 1339TIP3    H125432   0.571   5.645   3.822  0.1090  1.1577 -1.2809
 1339TIP3    H225433   0.567   5.641   3.973  0.0799 -1.0778 -1.3042
 1340TIP3   OH225434   3.005   5.098  13.103 -0.0731  0.0208  0.3137
 1340TIP3    H125435   2.947   5.090  13.028  1.9620  3.9829 -2.0097
 1340TIP3    H225436   2.969   5.169  13.155  0.4365 -0.3284  1.1731
 1341TIP3   OH225437   0.294   6.377  17.273  0.2094  0.2986  0.1102
 1341TIP3    H125438   0.344   6.298  17.294 -3.8402 -2.5245  0.2744
 1341TIP3    H225439   0.295   6.381  17.177  0.6384  0.1672  0.1086
 1342TIP3   OH225440   1.791   1.988  12.684 -0.0670 -0.6242 -0.0426
 1342TIP3    H125441   1.801   1.972  12.590 -0.3038  0.2563 -0.2310
 1342TIP3    H225442   1.858   2.054  12.704  1.7967 -2.7229  0.9789
 1343TIP3   OH225443   4.365   3.665   4.629 -0.2416 -0.0631  0.4937
 1343TIP3    H125444   4.293   3.603   4.623 -1.0399  0.9103 -0.4899
 1343TIP3    H225445   4.423   3.642   4.556 -2.3611  2.4672 -2.2521
 1344TIP3   OH225446   3.553   5.459  13.177 -0.1008 -0.5268  0.3479
 1344TIP3    H125447   3.619   5.390  13.188 -1.6158 -2.3409 -1.1899
 1344TIP3    H225448   3.547   5.471  13.083  0.2567  1.9652  0.5714
 1345TIP3   OH225449   3.736   3.220   5.982  0.0546 -0.2422  0.1106
 1345TIP3    H125450   3.773   3.306   5.961 -0.5821  0.2255  0.8373
 1345TIP3    H225451   3.712   3.227   6.075 -1.8640 -0.5019 -0.3261
 1346TIP3   OH225452   2.383   4.435  16.297 -0.1621  0.3032  0.5933
 1346TIP3    H125453   2.291   4.439  16.272 -0.0844 -0.6513  0.1248
 1346TIP3    H225454   2.381   4.439  16.393 -0.6186  1.2649  0.5607
 1347TIP3   OH225455   0.055   2.439  12.357 -0.3327  0.6373  0.0258
 1347TIP3    H125456   0.109   2.517  12.361  0.0758  0.3251  1.0550
 1347TIP3    H225457   0.005   2.447  12.275  0.6309  1.3447 -0.5019
 1348TIP3   OH225458   6.026   5.103  15.069  0.5205 -0.3603  0.1950
 1348TIP3    H125459   5.942   5.115  15.024  0.2970  0.6021  0.8464
 1348TIP3    H225460   6.091   5.101  14.998 -0.0307 -1.0449 -0.3085
 1349TIP3   OH225461   5.428   0.310  14.219 -0.6257  0.2959 -0.6025
 1349TIP3    H125462   5.508   0.363  14.225 -1.0519  1.1146 -1.6905
 1349TIP3    H225463   5.358   0.367  14.250 -0.8084 -0.4316  0.3818
 1350TIP3   OH225464   5.819   1.118  11.903 -0.1334  0.2909 -0.2081
 1350TIP3    H125465   5.893   1.144  11.957  0.5989 -0.1003 -0.9948
 1350TIP3    H225466   5.775   1.200  11.880  0.4229  0.5780 -0.2538
 1351TIP3   OH225467   1.581   5.257  14.812 -0.0744 -0.7709  0.1320
 1351TIP3    H125468   1.540   5.322  14.870 -2.7859 -0.3550 -2.0577
 1351TIP3    H225469   1.579   5.176  14.862 -3.7125 -0.7612  0.2506
 1352TIP3   OH225470   4.036   1.282  11.312  0.3304  0.0238 -0.4887
 1352TIP3    H125471   4.106   1.339  11.342 -0.5544  1.1318 -0.4552
 1352TIP3    H225472   3.975   1.278  11.386 -0.2370  0.0687 -0.9464
 1353TIP3   OH225473   4.756   4.863  11.998 -0.1195  0.4661  0.0860
 1353TIP3    H125474   4.823   4.854  11.931 -0.1201 -0.5221  0.2127
 1353TIP3    H225475   4.731   4.774  12.020  0.1782  0.7487  1.7084
 1354TIP3   OH225476   2.616   1.215   1.015  0.1503 -0.5060 -0.1907
 1354TIP3    H125477   2.599   1.264   0.935  0.2704 -1.4021 -0.7760
 1354TIP3    H225478   2.542   1.156   1.023  0.8107 -1.3949 -0.4110
 1355TIP3   OH225479   0.940   6.330  12.166 -0.4751  0.2334  0.2712
 1355TIP3    H125480   1.005   6.292  12.107  1.8413  2.5410  1.1393
 1355TIP3    H225481   0.857   6.323  12.118  0.5358 -1.9043 -1.3297
 1356TIP3   OH225482   5.708   2.272   5.530  0.1306  0.1913  0.1791
 1356TIP3    H125483   5.774   2.293   5.595 -0.3723  0.4633  0.6086
 1356TIP3    H225484   5.630   2.250   5.581 -0.8156  2.1546 -0.3152
 1357TIP3   OH225485   0.019   2.671  16.100  0.6780 -0.5431 -0.4834
 1357TIP3    H125486   0.082   2.715  16.157 -1.4338  0.4077  1.2558
 1357TIP3    H225487  -0.026   2.609  16.157 -0.7211 -0.3895 -1.3746
 1358TIP3   OH225488   4.917   0.579  11.043 -0.0018 -0.1100  0.1951
 1358TIP3    H125489   4.938   0.672  11.031 -0.4035  0.3056  2.2928
 1358TIP3    H225490   4.916   0.543  10.955 -0.9550  2.1167 -0.7813
 1359TIP3   OH225491   2.948   0.040   0.010 -0.2794 -0.1990 -0.3646
 1359TIP3    H125492   2.896  -0.031  -0.028 -0.2136 -1.3844  1.5919
 1359TIP3    H225493   2.917   0.046   0.101  1.2097  0.8197  0.1223
 1360TIP3   OH225494   5.733   5.395  15.606  0.2158  0.0134  0.0461
 1360TIP3    H125495   5.678   5.345  15.667  2.7513 -1.4538  1.3129
 1360TIP3    H225496   5.746   5.335  15.532  0.3127  0.2639 -0.1408
 1361TIP3   OH225497   6.217   6.632   0.337  0.7738  0.3258 -0.6417
 1361TIP3    H125498   6.224   6.727   0.348 -1.2744  0.3789  0.7742
 1361TIP3    H225499   6.160   6.621   0.261 -1.4204  0.3451  0.9234
 1362TIP3   OH225500   1.682   0.434  11.753  0.7641 -0.1192  0.0601
 1362TIP3    H125501   1.716   0.382  11.681  1.5029  0.6587 -0.1787
 1362TIP3    H225502   1.596   0.397  11.772  0.6337 -0.4478 -1.1064
 1363TIP3   OH225503   1.625   3.937  12.420 -0.0993 -0.7145 -0.0867
 1363TIP3    H125504   1.640   3.852  12.460 -1.6982 -0.9941 -0.0180
 1363TIP3    H225505   1.531   3.940  12.403  0.0248  0.7626 -0.7215
 1364TIP3   OH225506   6.716   2.692  11.862  0.6320  0.0871  0.3920
 1364TIP3    H125507   6.694   2.603  11.837  2.0543 -0.2952  0.4317
 1364TIP3    H225508   6.639   2.723  11.909 -0.7938 -0.3046 -1.5718
 1365TIP3   OH225509   5.979   0.094  15.089  0.2148 -0.0853  0.4134
 1365TIP3    H125510   5.906   0.146  15.123 -0.2136 -1.7924  2.2943
 1365TIP3    H225511   6.031   0.073  15.167  0.5172 -2.1706 -0.2934
 1366TIP3   OH225512   1.564   0.869   5.626  0.5335 -0.1081  0.1246
 1366TIP3    H125513   1.481   0.829   5.600  1.6435 -1.0689 -2.2113
 1366TIP3    H225514   1.623   0.795   5.640  1.4832  0.5989 -0.0412
 1367TIP3   OH225515   5.746   4.173   6.155  0.3080  0.7872  0.3227
 1367TIP3    H125516   5.818   4.158   6.093  0.2083  1.1884  0.1069
 1367TIP3    H225517   5.704   4.087   6.164  0.6170  0.6213  0.2042
 1368TIP3   OH225518   1.527   4.404  16.612 -0.1164  0.0860  0.0261
 1368TIP3    H125519   1.467   4.365  16.676 -0.4021  1.0996  0.3967
 1368TIP3    H225520   1.569   4.476  16.660  2.0871 -1.1443  0.0590
 1369TIP3   OH225521   3.113   3.131  14.633  0.1136  0.2297 -0.5755
 1369TIP3    H125522   3.088   3.206  14.688 -0.8035 -0.1807 -0.4028
 1369TIP3    H225523   3.030   3.102  14.594  0.4253 -0.8135 -0.4941
 1370TIP3   OH225524   0.361   5.657   4.472  0.4505  0.6965 -0.4403
 1370TIP3    H125525   0.335   5.749   4.482 -0.1172  0.4906  0.0434
 1370TIP3    H225526   0.397   5.633   4.557 -1.7174 -0.2380  0.2995
 1371TIP3   OH225527   3.734   0.162   0.014 -0.4014 -0.0673 -0.4358
 1371TIP3    H125528   3.748   0.255   0.028 -1.0671 -0.1777  1.2342
 1371TIP3    H225529   3.822   0.125   0.006 -0.0869  0.5591  0.0426
 1372TIP3   OH225530   3.786   4.372   0.900 -0.2465  0.0673 -0.2992
 1372TIP3    H125531   3.783   4.277   0.885  0.4672 -0.0556  0.2743
 1372TIP3    H225532   3.873   4.398   0.869 -0.5482  0.5927 -0.7286
 1373TIP3   OH225533   6.561   0.637   5.989 -0.7228  0.1891 -0.0004
 1373TIP3    H125534   6.510   0.628   5.909 -0.0494 -1.2858 -0.2942
 1373TIP3    H225535   6.497   0.644   6.059 -1.3105  0.2123 -0.5359
 1374TIP3   OH225536   6.049   3.006  14.830 -0.2946 -0.2547 -0.6156
 1374TIP3    H125537   6.041   3.042  14.742 -0.6360  1.4328  0.0702
 1374TIP3    H225538   6.075   3.080  14.885  0.8823 -1.4802  0.5570
 1375TIP3   OH225539   5.413   0.617  11.437 -0.1033  0.0721  1.0983
 1375TIP3    H125540   5.481   0.565  11.395 -1.0780 -0.7563  0.4772
 1375TIP3    H225541   5.384   0.564  11.511  0.3322  0.6954  1.7259
 1376TIP3   OH225542   1.475   0.774  15.807 -0.1930  0.7289 -0.2364
 1376TIP3    H125543   1.547   0.741  15.860 -2.4612 -1.6287  1.6562
 1376TIP3    H225544   1.473   0.868  15.824  1.5918  0.6420  0.6862
 1377TIP3   OH225545   6.749   1.963  10.763 -0.3063 -0.2286 -0.3413
 1377TIP3    H125546   6.804   1.885  10.752  1.3438  1.0487 -1.7487
 1377TIP3    H225547   6.679   1.952  10.699  0.0236 -0.4697 -0.6659
 1378TIP3   OH225548   3.114   4.594   2.731 -0.4129  0.3648 -0.5344
 1378TIP3    H125549   3.148   4.683   2.730 -0.9543  0.5892  0.4980
 1378TIP3    H225550   3.172   4.546   2.671  0.3324  1.2330 -0.5269
 1379TIP3   OH225551   1.173   5.478  14.559  0.0285  0.3181 -0.1480
 1379TIP3    H125552   1.155   5.453  14.468 -0.5049 -0.1580  0.0813
 1379TIP3    H225553   1.127   5.413  14.611 -1.0256  1.5222  0.4765
 1380TIP3   OH225554   2.710   4.940   3.441  0.0581  0.0683  0.3470
 1380TIP3    H125555   2.734   4.896   3.360 -0.2211 -0.2415  0.4296
 1380TIP3    H225556   2.643   4.884   3.480 -0.2228  0.5130  0.5067
 1381TIP3   OH225557   4.630   4.207  12.869  0.2546 -0.1219 -0.4807
 1381TIP3    H125558   4.614   4.251  12.953 -0.7640 -0.1259 -0.6631
 1381TIP3    H225559   4.549   4.219  12.820  0.3341 -1.3224 -0.9338
 1382TIP3   OH225560   4.509   2.638  10.581  0.0265 -0.1719  0.0394
 1382TIP3    H125561   4.422   2.636  10.541 -0.0147  0.4144  0.0946
 1382TIP3    H225562   4.527   2.731  10.595  1.2063 -0.1890 -1.1491
 1383TIP3   OH225563   6.726   5.190  12.233 -0.2795 -0.1517 -0.0175
 1383TIP3    H125564   6.803   5.233  12.271  1.4431 -0.1903 -3.2036
 1383TIP3    H225565   6.753   5.099  12.221 -1.3879 -0.5170  0.1723
 1384TIP3   OH225566   4.132   3.867   3.174 -0.1826  0.4962  0.3377
 1384TIP3    H125567   4.103   3.865   3.265 -2.2110  0.7028 -0.2490
 1384TIP3    H225568   4.222   3.836   3.176 -0.9367 -1.8716  2.1545
 1385TIP3   OH225569   6.375   4.909   1.715 -0.5550 -0.6625 -0.2350
 1385TIP3    H125570   6.399   5.000   1.694 -0.3612 -1.1368 -2.2053
 1385TIP3    H225571   6.279   4.910   1.718 -0.5425 -0.3033  0.2714
 1386TIP3   OH225572   4.809   3.278   2.799  0.5069  0.1494  0.2843
 1386TIP3    H125573   4.900   3.279   2.827  0.1499  0.2641  1.4938
 1386TIP3    H225574   4.805   3.343   2.728  1.6372 -0.8963 -0.7809
 1387TIP3   OH225575   1.912   3.883  17.056 -0.3513 -0.3452 -0.3347
 1387TIP3    H125576   1.887   3.965  17.014 -0.9672 -0.6581 -0.5868
 1387TIP3    H225577   1.987   3.907  17.111  0.0125  0.2146 -1.0507
 1388TIP3   OH225578   2.527   1.735  17.185  0.2383 -0.1883  0.4536
 1388TIP3    H125579   2.548   1.643  17.199  1.3703 -0.2071 -1.1335
 1388TIP3    H225580   2.474   1.736  17.105 -0.0598  0.5172  0.6539
 1389TIP3   OH225581   0.947   2.655   5.750  0.0093  0.3995 -0.8437
 1389TIP3    H125582   0.905   2.740   5.734 -0.5717 -0.0363 -1.7314
 1389TIP3    H225583   0.892   2.592   5.703 -0.4556 -0.6939  1.0863
 1390TIP3   OH225584   2.971   6.224   1.698 -0.1754  0.2290 -0.1308
 1390TIP3    H125585   2.945   6.206   1.607 -0.4983  0.1873 -0.0305
 1390TIP3    H225586   2.891   6.255   1.740 -0.8129 -2.5860  0.9376
 1391TIP3   OH225587   0.913   5.489   3.830  0.1259 -0.8889  0.5249
 1391TIP3    H125588   0.921   5.573   3.786  0.3511 -1.8625 -1.4233
 1391TIP3    H225589   0.915   5.510   3.923  0.4787  1.2111  0.0969
 1392TIP3   OH225590   2.758   4.239   3.196 -0.1617  0.3239 -0.5378
 1392TIP3    H125591   2.723   4.157   3.160 -1.3560  0.9094 -0.7915
 1392TIP3    H225592   2.681   4.296   3.202  0.5726  1.2737  0.0583
 1393TIP3   OH225593   0.656   3.998  11.051  0.0611  0.4251  0.3978
 1393TIP3    H125594   0.681   4.013  10.960 -0.4505  1.7094  0.4408
 1393TIP3    H225595   0.697   3.915  11.074  0.0848  0.0082 -1.0401
 1394TIP3   OH225596   5.496   6.676   0.029  0.4006  0.3969 -0.1780
 1394TIP3    H125597   5.523   6.584   0.037 -2.3892 -0.6278 -1.4050
 1394TIP3    H225598   5.470   6.702   0.117  1.4710  0.1621  0.2329
 1395TIP3   OH225599   1.926   2.460   1.393 -0.0637 -0.0395 -0.0653
 1395TIP3    H125600   1.862   2.488   1.329  0.2591 -2.0053 -1.3446
 1395TIP3    H225601   1.875   2.437   1.471 -0.8702 -0.9267 -0.8352
 1396TIP3   OH225602   3.543   4.665   1.700 -0.8633 -0.6425  0.1878
 1396TIP3    H125603   3.545   4.731   1.769 -2.9154  0.1744 -0.4515
 1396TIP3    H225604   3.630   4.670   1.659 -0.0629 -0.2512  1.8484
 1397TIP3   OH225605   3.709   0.552   4.103  0.5928  0.3708  0.4038
 1397TIP3    H125606   3.732   0.565   4.011 -2.6581 -1.1521 -0.8169
 1397TIP3    H225607   3.692   0.459   4.110 -1.0394  0.7333  2.0311
 1398TIP3   OH225608   4.732   4.213  10.925 -0.4216  0.2479 -0.2787
 1398TIP3    H125609   4.772   4.290  10.884  3.0079 -0.7590  0.8420
 1398TIP3    H225610   4.707   4.157  10.851  3.4396 -0.4952 -1.2418
 1399TIP3   OH225611   3.696   1.633  15.338 -0.1242  0.1899 -0.0670
 1399TIP3    H125612   3.608   1.643  15.303 -0.0325 -1.2498 -0.7814
 1399TIP3    H225613   3.753   1.665  15.268 -0.0349  0.1437 -0.0144
 1400TIP3   OH225614   3.825   0.809  16.521  0.3783  0.2228  0.2067
 1400TIP3    H125615   3.738   0.791  16.555  0.4812 -1.0885 -0.1537
 1400TIP3    H225616   3.873   0.727  16.534  1.7466  1.1021  0.9320
 1401TIP3   OH225617   1.280   1.432  12.120 -0.0548  0.6345  0.0131
 1401TIP3    H125618   1.264   1.487  12.043 -4.0484  0.4212  0.5174
 1401TIP3    H225619   1.243   1.347  12.097  1.7598 -0.5028  1.0158
 1402TIP3   OH225620   1.055   0.178  16.260  0.4767  0.0639  0.1917
 1402TIP3    H125621   1.051   0.169  16.165 -0.8853 -0.4890  0.2733
 1402TIP3    H225622   1.046   0.272  16.275  0.8188  0.1662 -0.2309
 1403TIP3   OH225623   0.444   1.592   1.513  0.1202 -0.3213 -0.2952
 1403TIP3    H125624   0.474   1.507   1.544  0.6835 -0.2418 -0.6131
 1403TIP3    H225625   0.353   1.597   1.541  0.2949 -0.7210  0.3562
 1404TIP3   OH225626   5.287   1.975  12.944  0.1233  0.2755 -0.6238
 1404TIP3    H125627   5.201   1.972  12.903 -0.2705  1.4576  0.0597
 1404TIP3    H225628   5.311   1.883  12.958 -0.5174 -0.0883 -1.8388
 1405TIP3   OH225629   4.529   1.392  11.079  0.0991  0.2374  0.5819
 1405TIP3    H125630   4.602   1.410  11.138 -0.3979  1.2675  0.9175
 1405TIP3    H225631   4.480   1.322  11.122  2.0053 -1.9635 -0.6719
 1406TIP3   OH225632   4.943   3.651  16.369 -0.1775  0.1108 -0.2609
 1406TIP3    H125633   4.861   3.673  16.414 -0.5898 -0.7843 -0.5594
 1406TIP3    H225634   4.952   3.720  16.303 -1.5216 -0.6053 -1.2591
 1407TIP3   OH225635   3.924   6.499  14.104  0.8316  0.0818 -0.3833
 1407TIP3    H125636   3.939   6.537  14.191  0.6176  0.3976 -0.4795
 1407TIP3    H225637   3.928   6.405  14.117 -1.1448  0.0488  0.3504
 1408TIP3   OH225638   1.569   1.075   5.858 -0.6396 -0.7946  0.0426
 1408TIP3    H125639   1.548   1.168   5.847 -1.1806 -0.9916 -0.6148
 1408TIP3    H225640   1.661   1.068   5.833 -1.3959 -0.9572 -3.0626
 1409TIP3   OH225641   5.743   4.090   1.788  0.2486 -0.5838  0.1748
 1409TIP3    H125642   5.673   4.026   1.803 -0.0443 -0.3566 -0.1765
 1409TIP3    H225643   5.702   4.156   1.732  0.4173  0.1354  0.8834
 1410TIP3   OH225644   0.662   5.808  13.857  0.3330 -0.2038 -0.0439
 1410TIP3    H125645   0.731   5.779  13.797 -1.4529 -0.5813 -2.0214
 1410TIP3    H225646   0.634   5.892  13.822 -1.0249 -0.6186 -0.0153
 1411TIP3   OH225647   6.169   6.410  17.042 -0.2209 -0.2199 -0.7559
 1411TIP3    H125648   6.108   6.409  16.969  0.0073 -0.2170 -0.9470
 1411TIP3    H225649   6.184   6.503  17.059  0.8400 -0.2149 -1.6457
 1412TIP3   OH225650   0.536   1.589   3.238  0.0409 -0.2404 -0.4449
 1412TIP3    H125651   0.592   1.588   3.316  0.0372  1.3270 -0.3849
 1412TIP3    H225652   0.459   1.539   3.264  0.0702  0.2015  0.5637
 1413TIP3   OH225653   3.655   6.295  12.853  0.1275  0.4812 -0.0201
 1413TIP3    H125654   3.602   6.362  12.896  0.8808  0.9656  0.1534
 1413TIP3    H225655   3.601   6.216  12.859 -0.8040  1.0728 -0.3009
 1414TIP3   OH225656   4.928   1.257   5.141 -0.4207 -0.1941 -0.5511
 1414TIP3    H125657   4.947   1.226   5.229  1.3834  1.4207 -0.2986
 1414TIP3    H225658   5.010   1.246   5.093 -1.2465 -0.6338 -1.9343
 1415TIP3   OH225659   4.304   6.596  16.280 -0.1325 -0.4861 -0.3949
 1415TIP3    H125660   4.213   6.626  16.277 -0.1871 -0.0716  2.5170
 1415TIP3    H225661   4.297   6.503  16.301  0.0468 -0.0008  2.0755
 1416TIP3   OH225662   6.350   1.267   0.424  0.4337  0.0471  0.2699
 1416TIP3    H125663   6.258   1.245   0.437  1.0171 -3.4298 -0.5792
 1416TIP3    H225664   6.356   1.359   0.452 -3.1156  0.2545  0.9046
 1417TIP3   OH225665   0.090   1.832  11.839 -0.6334  0.1226 -0.3082
 1417TIP3    H125666   0.009   1.879  11.818 -0.3617 -0.0669 -1.9570
 1417TIP3    H225667   0.113   1.787  11.758  0.8791 -0.2052  0.2605
 1418TIP3   OH225668   4.515   0.223  16.148 -0.4815 -0.2424  0.0634
 1418TIP3    H125669   4.576   0.224  16.222 -1.4478  1.0168  0.8805
 1418TIP3    H225670   4.428   0.221  16.188 -1.0009 -1.0250 -1.0691
 1419TIP3   OH225671   2.021   0.167  12.017 -0.4682 -0.3401  0.0603
 1419TIP3    H125672   1.988   0.203  11.935 -1.2355 -1.7918 -0.3156
 1419TIP3    H225673   2.023   0.241  12.078 -3.1631  0.1386 -0.3086
 1420TIP3   OH225674   3.229   1.572  14.772 -0.2194  0.0219 -0.2078
 1420TIP3    H125675   3.239   1.625  14.852  1.5384  0.7524 -0.8677
 1420TIP3    H225676   3.146   1.600  14.735 -0.2244  0.9466  0.4622
 1421TIP3   OH225677   5.532   0.685   0.963 -0.1935 -0.6239  0.2901
 1421TIP3    H125678   5.438   0.704   0.962 -0.3299 -1.1401  1.4630
 1421TIP3    H225679   5.551   0.663   1.054  1.0208 -0.7739  0.0172
 1422TIP3   OH225680   4.392   1.198  14.201 -0.3721  0.0777 -0.5868
 1422TIP3    H125681   4.466   1.196  14.140  0.1554  1.4896 -0.0309
 1422TIP3    H225682   4.423   1.249  14.276 -1.3608 -0.7153  0.4087
 1423TIP3   OH225683   0.451   6.344  12.628  0.5544 -0.5628  0.0358
 1423TIP3    H125684   0.524   6.284  12.612  0.5900 -0.4958 -0.0535
 1423TIP3    H225685   0.434   6.336  12.722 -1.6922 -3.2873 -0.4694
 1424TIP3   OH225686   3.239   0.958   4.781 -0.0849  0.4066 -0.4090
 1424TIP3    H125687   3.295   0.986   4.709 -1.1066  1.5944 -0.7625
 1424TIP3    H225688   3.251   0.863   4.785 -0.8539  0.1449 -2.8885
 1425TIP3   OH225689   0.424   1.884   4.626 -0.0757  0.2798 -0.4205
 1425TIP3    H125690   0.331   1.871   4.642  0.1841 -0.0267  0.9739
 1425TIP3    H225691   0.454   1.802   4.588 -0.9269  1.3997 -3.9243
 1426TIP3   OH225692   4.464   3.907   1.699 -0.7212  0.0487  0.0402
 1426TIP3    H125693   4.463   3.980   1.762  1.6218  0.5916 -0.4808
 1426TIP3    H225694   4.384   3.919   1.648 -1.6870  0.7240  1.6388
 1427TIP3   OH225695   0.127   0.506   0.013 -0.2118 -0.7274 -0.0126
 1427TIP3    H125696   0.101   0.533   0.102  3.2749  1.7625  0.4685
 1427TIP3    H225697   0.206   0.455   0.026  0.6822  0.1568 -1.6847
 1428TIP3   OH225698   6.176   1.996  13.624 -0.0444 -0.0368  0.2740
 1428TIP3    H125699   6.222   1.961  13.548  0.0224 -1.1732  0.8121
 1428TIP3    H225700   6.154   2.086  13.600  1.0752  0.0245 -0.5922
 1429TIP3   OH225701   1.847   2.227   1.858 -0.5552  0.4078 -0.0689
 1429TIP3    H125702   1.808   2.142   1.876  0.6113  0.1186  1.3026
 1429TIP3    H225703   1.933   2.207   1.823 -0.5469  1.0239 -0.4066
 1430TIP3   OH225704   6.423   6.253   0.821 -0.2523 -0.3546  0.4311
 1430TIP3    H125705   6.329   6.238   0.817 -0.5302  0.8588  1.7918
 1430TIP3    H225706   6.439   6.286   0.909  1.4404 -0.4100  0.1828
 1431TIP3   OH225707   3.062   0.671   2.408  0.1657  0.1920 -0.0126
 1431TIP3    H125708   2.990   0.707   2.357  0.8408  1.0580 -0.3685
 1431TIP3    H225709   3.026   0.590   2.445 -0.5128 -0.1611 -1.3749
 1432TIP3   OH225710   4.247   3.335  11.759  0.5817 -0.5210  0.0364
 1432TIP3    H125711   4.301   3.310  11.834  0.5088 -0.5976  0.0642
 1432TIP3    H225712   4.245   3.256  11.704  0.1518 -0.6535  0.2401
 1433TIP3   OH225713   4.026   0.904   0.079  0.1827 -0.1081  0.2674
 1433TIP3    H125714   4.024   0.994   0.047  1.9329 -0.3587 -0.6946
 1433TIP3    H225715   4.108   0.898   0.128  0.4349 -1.3388 -0.2643
 1434TIP3   OH225716   0.329   3.874   4.826 -0.1617  0.0628  0.0744
 1434TIP3    H125717   0.238   3.860   4.851 -0.7534  0.0748 -1.9515
 1434TIP3    H225718   0.374   3.794   4.855 -1.1534 -0.6821 -0.3977
 1435TIP3   OH225719   3.361   6.505  17.252 -1.0125  0.1883 -0.2876
 1435TIP3    H125720   3.358   6.488  17.346  1.7664  2.2844  0.2853
 1435TIP3    H225721   3.298   6.575  17.238 -1.0859  0.1959  0.0798
 1436TIP3   OH225722   0.614   1.382   1.570  0.5347  0.2622 -0.2938
 1436TIP3    H125723   0.592   1.301   1.524  0.1624  0.1467  0.0818
 1436TIP3    H225724   0.709   1.380   1.578  0.7172  0.7559 -1.9247
 1437TIP3   OH225725   0.167   1.419   4.441  0.9130 -0.3255  0.1517
 1437TIP3    H125726   0.248   1.392   4.396  1.3913 -1.5244  1.6605
 1437TIP3    H225727   0.106   1.348   4.424  0.0313  0.7069 -1.2142
 1438TIP3   OH225728   2.544   3.871   3.639  0.6566 -0.4920  0.1299
 1438TIP3    H125729   2.593   3.947   3.607  1.0788 -0.8724 -0.1506
 1438TIP3    H225730   2.594   3.841   3.715  1.1817 -1.2119 -0.4844
 1439TIP3   OH225731   5.170   3.335   1.419  0.5056 -0.2550  0.1064
 1439TIP3    H125732   5.103   3.402   1.406  1.7015  0.6799 -1.6466
 1439TIP3    H225733   5.122   3.253   1.424 -0.7745  0.3430 -1.4308
 1440TIP3   OH225734   2.972   1.459  16.167 -0.4885  0.0235 -0.3736
 1440TIP3    H125735   3.041   1.394  16.180  2.0116  2.3133 -1.3945
 1440TIP3    H225736   2.967   1.507  16.249 -0.2047  0.4793 -0.6253
 1441TIP3   OH225737   3.987   2.391  15.362  0.2581  0.3802 -0.6587
 1441TIP3    H125738   3.946   2.463  15.410 -0.7494  0.5392 -1.7038
 1441TIP3    H225739   4.068   2.429  15.328  0.9072  0.3071  0.7452
 1442TIP3   OH225740   5.918   2.215  17.290 -0.1330 -0.5631 -0.0257
 1442TIP3    H125741   5.855   2.185  17.225  0.3603 -1.0384 -0.2988
 1442TIP3    H225742   6.004   2.194  17.252  0.1579 -1.1487  0.9146
 1443TIP3   OH225743   0.432   2.162   4.062 -0.0974 -0.5423  0.0541
 1443TIP3    H125744   0.409   2.120   3.979  1.2382 -0.9929 -0.1248
 1443TIP3    H225745   0.382   2.243   4.063 -0.7735 -0.9387 -0.7972
 1444TIP3   OH225746   0.090   1.281  10.739 -1.1735 -0.0869 -0.0662
 1444TIP3    H125747   0.174   1.282  10.693  0.5450 -1.0153  2.7764
 1444TIP3    H225748   0.049   1.364  10.715  0.4004  0.2813 -1.7788
 1445TIP3   OH225749   5.865   5.891   2.470  0.0566  0.0549  0.0304
 1445TIP3    H125750   5.925   5.905   2.543 -1.0257 -0.4360  1.0524
 1445TIP3    H225751   5.796   5.834   2.506 -1.5183  1.3411 -0.8139
 1446TIP3   OH225752   1.099   1.614  15.777  0.1585  0.1873 -0.0943
 1446TIP3    H125753   1.068   1.529  15.808 -1.3889  1.2850  1.6362
 1446TIP3    H225754   1.079   1.615  15.683 -2.0818 -0.5009  0.3046
 1447TIP3   OH225755   6.553   2.883  12.484  0.3892  0.2044  0.0781
 1447TIP3    H125756   6.512   2.948  12.540  0.2697 -0.8555  1.2870
 1447TIP3    H225757   6.616   2.932  12.431  1.8973  1.0564  2.4854
 1448TIP3   OH225758   0.100   3.248  11.499 -0.7863  0.8148  0.1301
 1448TIP3    H125759   0.053   3.184  11.446  2.5420 -3.0308  1.3585
 1448TIP3    H225760   0.059   3.243  11.585 -0.4882  0.2582  0.2417
 1449TIP3   OH225761   4.575   6.761  15.960  0.4750  0.0034  0.9488
 1449TIP3    H125762   4.568   6.830  16.026  2.3310  1.7990 -0.6155
 1449TIP3    H225763   4.508   6.783  15.895  1.1728  0.4653  0.3696
 1450TIP3   OH225764   3.544   1.167  13.314 -0.0887 -0.4100  0.7934
 1450TIP3    H125765   3.548   1.259  13.287  0.5493 -0.6538  0.0493
 1450TIP3    H225766   3.450   1.145  13.311 -0.1298 -0.1167 -0.1498
 1451TIP3   OH225767   1.754   3.928   4.526  0.1001 -0.5270  0.0865
 1451TIP3    H125768   1.833   3.874   4.521  0.2258 -0.5000  1.4249
 1451TIP3    H225769   1.780   4.012   4.489  0.7096 -0.5072  0.5479
 1452TIP3   OH225770   6.585   2.439  11.766 -0.2720 -0.0896 -0.1404
 1452TIP3    H125771   6.491   2.428  11.784 -0.4049  0.5725 -0.4154
 1452TIP3    H225772   6.627   2.373  11.822 -0.7658  0.9542  1.5411
 1453TIP3   OH225773   1.728   6.673  15.639  0.2941  0.2047  1.0362
 1453TIP3    H125774   1.701   6.757  15.675 -1.0808  0.7563 -1.0812
 1453TIP3    H225775   1.823   6.679  15.631  0.1263  2.0187 -0.0692
 1454TIP3   OH225776   4.874   1.100  15.927  0.4403  0.4982  0.1888
 1454TIP3    H125777   4.813   1.027  15.919 -1.9011  2.4634 -1.4306
 1454TIP3    H225778   4.953   1.070  15.882 -0.6689 -0.8334 -0.9635
 1455TIP3   OH225779   4.168   0.583  15.517 -0.2672 -0.3078  0.3588
 1455TIP3    H125780   4.170   0.542  15.603 -0.5162  0.1650  0.5951
 1455TIP3    H225781   4.084   0.629  15.514 -0.4531 -0.6752 -0.3041
 1456TIP3   OH225782   2.711   3.043  13.675  0.4811 -0.4973  0.8744
 1456TIP3    H125783   2.777   3.099  13.635 -0.9171  1.7563  1.5456
 1456TIP3    H225784   2.662   3.008  13.601 -0.7788  1.9744  0.4462
 1457TIP3   OH225785   6.310   3.412   3.603  0.2629  0.2417  0.0071
 1457TIP3    H125786   6.335   3.472   3.673 -0.4894  0.6278 -0.0447
 1457TIP3    H225787   6.298   3.467   3.526  1.5223 -0.2344 -0.5684
 1458TIP3   OH225788   5.083   6.419  12.180 -0.2466 -0.6521  0.0579
 1458TIP3    H125789   5.039   6.399  12.097 -0.3035  2.6843 -0.8861
 1458TIP3    H225790   5.141   6.345  12.195  1.0195 -0.6847 -3.8996
 1459TIP3   OH225791   6.076   0.958   5.656  0.1225  0.1470  0.1800
 1459TIP3    H125792   6.049   0.926   5.569  0.2635  1.6929 -0.4640
 1459TIP3    H225793   6.021   0.909   5.717 -0.7740 -0.1793 -0.8402
 1460TIP3   OH225794   0.197   2.800  14.667  0.2993  0.5458 -0.1437
 1460TIP3    H125795   0.280   2.769  14.630 -0.1392 -0.0898 -0.6385
 1460TIP3    H225796   0.207   2.895  14.674  1.8426  0.2931  1.8022
 1461TIP3   OH225797   3.858   4.458  11.800 -0.5331 -0.1797 -0.5417
 1461TIP3    H125798   3.798   4.509  11.855  1.8760  2.9817 -0.5532
 1461TIP3    H225799   3.812   4.449  11.717 -1.9017  0.0789  0.1534
 1462TIP3   OH225800   0.409   1.373   3.366  0.6068 -0.3435 -0.4473
 1462TIP3    H125801   0.350   1.304   3.396  1.2560  0.1354  2.1594
 1462TIP3    H225802   0.483   1.326   3.327  0.3053 -1.0664 -0.1695
 1463TIP3   OH225803   2.483   3.312  13.589  0.0352 -1.1665 -0.0318
 1463TIP3    H125804   2.565   3.327  13.543  0.4597 -1.2092  0.6994
 1463TIP3    H225805   2.415   3.336  13.526  0.6264  0.2480 -0.1717
 1464TIP3   OH225806   5.029   2.094  11.412  0.7588 -0.4588 -0.1825
 1464TIP3    H125807   5.108   2.107  11.465 -1.3504 -1.2260  3.5370
 1464TIP3    H225808   4.989   2.181  11.406 -0.3957 -0.7620  2.1214
 1465TIP3   OH225809   3.002   1.402  17.237 -0.4973 -0.0773 -1.0624
 1465TIP3    H125810   2.992   1.491  17.269 -1.1004 -0.8452  1.0620
 1465TIP3    H225811   3.072   1.408  17.172  1.6206  1.4887  1.1754
 1466TIP3   OH225812   2.509   4.687   2.873  0.0749 -0.3128 -0.3254
 1466TIP3    H125813   2.508   4.782   2.877 -2.1601 -0.1570 -2.2341
 1466TIP3    H225814   2.589   4.665   2.825 -0.0964  0.7239 -1.1104
 1467TIP3   OH225815   3.200   5.387   6.040 -0.1234 -0.9060  0.1201
 1467TIP3    H125816   3.111   5.379   6.006  0.2307 -1.9258 -0.6166
 1467TIP3    H225817   3.188   5.405   6.134 -1.1055  1.3051 -0.3651
 1468TIP3   OH225818   0.564   3.035  15.962  0.1699  0.1423 -0.3767
 1468TIP3    H125819   0.483   2.984  15.966  0.1777  0.0691 -1.0246
 1468TIP3    H225820   0.630   2.973  15.929  0.2972  0.4249 -0.6642
 1469TIP3   OH225821   5.448   1.704  13.374 -0.5994 -0.2818  0.1259
 1469TIP3    H125822   5.397   1.750  13.308 -0.2235 -0.8392 -0.5648
 1469TIP3    H225823   5.422   1.745  13.457 -0.8953  0.5900 -0.3829
 1470TIP3   OH225824   6.308   3.974  15.835 -0.2962 -0.1116 -0.1213
 1470TIP3    H125825   6.220   4.011  15.829  0.4697  1.7214 -0.7786
 1470TIP3    H225826   6.355   4.010  15.760  0.6573 -2.1527 -0.5846
 1471TIP3   OH225827   0.954   3.082   2.906 -0.1590 -0.0355 -0.2556
 1471TIP3    H125828   0.946   2.991   2.877 -1.9493  0.4065 -1.2962
 1471TIP3    H225829   1.044   3.090   2.936  0.0620 -2.1259 -0.2305
 1472TIP3   OH225830   3.581   4.303   2.085  0.0919 -0.6984 -0.5767
 1472TIP3    H125831   3.610   4.328   1.998  0.3271  0.6015 -0.1494
 1472TIP3    H225832   3.649   4.336   2.144  1.1096 -3.5458 -0.0204
 1473TIP3   OH225833   3.196   5.262   3.377  0.1816  0.1549 -0.4676
 1473TIP3    H125834   3.276   5.300   3.414  0.0845 -0.8947  0.8900
 1473TIP3    H225835   3.225   5.216   3.299  0.4464  2.1430 -1.6147
 1474TIP3   OH225836   3.384   4.121   0.820 -0.1986  0.1821 -0.4253
 1474TIP3    H125837   3.310   4.061   0.818  0.0666 -0.2286  1.2023
 1474TIP3    H225838   3.461   4.065   0.831  0.3322  0.6396 -1.5685
 1475TIP3   OH225839   4.387   0.291  11.195 -0.0963  0.2330  0.7208
 1475TIP3    H125840   4.410   0.384  11.188  0.6606  0.0566  0.7460
 1475TIP3    H225841   4.292   0.290  11.198 -0.1145  1.0067  0.6499
 1476TIP3   OH225842   0.954   1.482  12.668 -0.1695 -0.1812  0.0242
 1476TIP3    H125843   0.879   1.541  12.677 -0.4358 -0.6062  0.6674
 1476TIP3    H225844   0.948   1.449  12.579  0.5829  1.5454 -0.7192
 1477TIP3   OH225845   0.605   6.105   3.335  0.4944  0.3250  0.3931
 1477TIP3    H125846   0.660   6.178   3.365  0.4859  0.3715  0.2932
 1477TIP3    H225847   0.627   6.094   3.243  1.6343 -0.7909  0.7527
 1478TIP3   OH225848   3.935   0.031  11.657 -0.3841  0.1056 -0.5118
 1478TIP3    H125849   3.950  -0.061  11.678 -2.0791  0.1012  0.8736
 1478TIP3    H225850   3.981   0.044  11.574  4.2575 -0.6710  1.6319
 1479TIP3   OH225851   4.505   6.559  14.219 -0.1751  0.1926 -0.2900
 1479TIP3    H125852   4.489   6.485  14.160 -2.2837  0.6361 -0.3762
 1479TIP3    H225853   4.474   6.635  14.170  2.5143  1.3040 -0.4542
 1480TIP3   OH225854   4.827   5.275   2.667  0.0356 -0.1113 -0.0933
 1480TIP3    H125855   4.788   5.276   2.754  1.5254 -1.4345  0.6397
 1480TIP3    H225856   4.758   5.243   2.609 -1.4528  2.1964  0.2829
 1481TIP3   OH225857   5.142   1.099   0.318 -0.0823  0.2336  0.1240
 1481TIP3    H125858   5.199   1.022   0.327  1.7121  1.5639  0.7964
 1481TIP3    H225859   5.093   1.101   0.400  2.4985  1.7247  1.7953
 1482TIP3   OH225860   6.553   3.937  12.166 -0.2453 -0.3483 -0.4107
 1482TIP3    H125861   6.512   4.011  12.120  0.3003  0.4884  0.4133
 1482TIP3    H225862   6.644   3.938  12.137  0.1148  0.2127  0.6807
 1483TIP3   OH225863   5.393   4.845  12.249  0.0867 -0.0624  0.2639
 1483TIP3    H125864   5.351   4.866  12.332  0.9203 -1.4160  1.0768
 1483TIP3    H225865   5.354   4.761  12.223 -0.9734  0.8696 -1.3112
 1484TIP3   OH225866   1.058   3.529  14.089  0.0613 -0.2012  0.5714
 1484TIP3    H125867   1.110   3.604  14.118 -0.1875 -0.3347  1.3915
 1484TIP3    H225868   1.071   3.463  14.157 -1.4464 -0.1157  0.9755
 1485TIP3   OH225869   4.893   2.042   4.729 -0.1815  0.6530 -0.4520
 1485TIP3    H125870   4.810   2.086   4.747 -0.9702 -0.8987 -0.1781
 1485TIP3    H225871   4.873   1.978   4.661  1.2790  1.6915 -1.9489
 1486TIP3   OH225872   6.009   5.786  10.573 -0.7842 -0.1495  0.1446
 1486TIP3    H125873   5.974   5.866  10.612  2.1297  2.2834 -1.7158
 1486TIP3    H225874   6.089   5.768  10.623  0.1218 -0.1451 -1.2571
 1487TIP3   OH225875   0.662   3.594  15.977  0.8403 -0.3361  0.7560
 1487TIP3    H125876   0.710   3.572  16.057  2.2771  0.7467  0.2346
 1487TIP3    H225877   0.726   3.640  15.923 -0.7605  1.0576 -0.0336
 1488TIP3   OH225878   2.395   4.943  11.392  0.2838  0.3598  0.0004
 1488TIP3    H125879   2.413   4.858  11.352 -0.7157 -0.3020  0.9004
 1488TIP3    H225880   2.325   4.926  11.455  0.6362  1.6921  0.8037
 1489TIP3   OH225881   1.172   3.322  14.542 -0.2324  0.1440  0.0210
 1489TIP3    H125882   1.144   3.345  14.630  1.5735 -1.0261  0.9421
 1489TIP3    H225883   1.167   3.227  14.539 -2.7763  0.2262 -2.0635
 1490TIP3   OH225884   1.114   2.220  15.830 -0.2722 -0.5874 -0.6287
 1490TIP3    H125885   1.114   2.292  15.766  0.3011  1.0376  1.1045
 1490TIP3    H225886   1.203   2.184  15.823 -0.4174 -0.8573 -1.1874
 1491TIP3   OH225887   3.597   2.829  15.214  0.4917 -0.4079 -0.5400
 1491TIP3    H125888   3.576   2.912  15.172 -2.0036 -0.5659  0.2286
 1491TIP3    H225889   3.536   2.766  15.176 -2.0757 -0.5229  3.2262
 1492TIP3   OH225890   0.421   5.045   0.067  0.2530 -0.2867  0.0656
 1492TIP3    H125891   0.339   5.009   0.035 -0.6851  0.3026  1.6823
 1492TIP3    H225892   0.414   5.139   0.051 -0.6039  0.1507  2.5703
 1493TIP3   OH225893   0.070   5.978   2.001  0.2441  0.8110  0.5480
 1493TIP3    H125894   0.144   6.003   2.057  0.9911 -0.2729  0.0813
 1493TIP3    H225895   0.028   5.905   2.048  1.2312 -0.5105 -0.5286
 1494TIP3   OH225896   1.879   0.966   1.468  0.2425 -0.1963  0.3784
 1494TIP3    H125897   1.842   0.913   1.398 -1.1517 -0.9280  1.5968
 1494TIP3    H225898   1.851   1.055   1.448 -1.8249 -0.6456  0.9488
 1495TIP3   OH225899   3.784   2.446   2.146  0.1002  0.1161 -0.2581
 1495TIP3    H125900   3.857   2.506   2.162  1.2586 -1.3952  0.3702
 1495TIP3    H225901   3.813   2.393   2.072  0.1777 -1.3012  0.7659
 1496TIP3   OH225902   1.485   2.776   4.445 -0.5471  0.5239  0.4665
 1496TIP3    H125903   1.551   2.714   4.413  0.6236  1.0597  1.7494
 1496TIP3    H225904   1.486   2.847   4.381  1.3716  1.3245  1.3012
 1497TIP3   OH225905   0.627   5.206  13.974 -0.0568 -0.7047  0.0436
 1497TIP3    H125906   0.661   5.296  13.972  0.1258 -0.7796 -0.4397
 1497TIP3    H225907   0.563   5.206  14.045 -0.1196 -0.1666 -0.0076
 1498TIP3   OH225908   0.330   3.389  16.543 -0.2163  0.3262  0.0231
 1498TIP3    H125909   0.413   3.389  16.591 -0.3601  2.3486  0.3611
 1498TIP3    H225910   0.301   3.299  16.546  2.4038 -0.6601 -0.8978
 1499TIP3   OH225911   4.354   4.899  13.058 -0.1449  0.0737  0.4222
 1499TIP3    H125912   4.298   4.886  13.135 -1.2492  1.2557 -0.1589
 1499TIP3    H225913   4.300   4.947  12.996  2.1772  3.3094  0.6595
 1500TIP3   OH225914   1.414   1.567   5.903  0.4440 -0.2295 -0.0602
 1500TIP3    H125915   1.432   1.528   5.989  1.1285 -1.8793 -0.8960
 1500TIP3    H225916   1.495   1.612   5.880  0.2893  0.1421  0.1185
 1501TIP3   OH225917   2.707   2.436  16.875 -0.4297  0.2295 -0.2770
 1501TIP3    H125918   2.614   2.420  16.889 -0.3675 -0.4332 -0.5665
 1501TIP3    H225919   2.735   2.365  16.816 -0.2620  1.7385 -2.0831
 1502TIP3   OH225920   0.190   3.253  15.924 -0.3253 -1.1761 -0.4824
 1502TIP3    H125921   0.281   3.237  15.896  0.7136  0.9220  1.3792
 1502TIP3    H225922   0.171   3.181  15.985  0.8295 -0.6032  0.5966
 1503TIP3   OH225923   1.968   6.115   3.576 -0.1615 -0.4724  0.5818
 1503TIP3    H125924   1.923   6.114   3.661 -0.8366  1.4485  0.2911
 1503TIP3    H225925   2.020   6.195   3.577  0.9017 -1.1140 -0.3163
 1504TIP3   OH225926   3.753   1.881   3.637  0.5905  0.3123 -0.5480
 1504TIP3    H125927   3.809   1.948   3.676 -1.6865  0.4308  3.0570
 1504TIP3    H225928   3.773   1.802   3.687 -1.8322  0.2166  0.4134
 1505TIP3   OH225929   0.860   0.568   3.267  0.5063 -0.0522  0.2123
 1505TIP3    H125930   0.928   0.635   3.267  1.0565 -0.5902  1.0621
 1505TIP3    H225931   0.908   0.485   3.271 -0.1665 -0.4192  2.0604
 1506TIP3   OH225932   0.235   3.580  12.817 -0.2346 -0.1535  0.2666
 1506TIP3    H125933   0.259   3.521  12.746 -1.6291 -2.3548  1.5179
 1506TIP3    H225934   0.176   3.643  12.775 -0.3299 -0.8629 -0.7141
 1507TIP3   OH225935   2.337   2.143  14.341  0.0715 -0.0325 -0.3153
 1507TIP3    H125936   2.244   2.156  14.318  0.0989 -0.4098 -0.6468
 1507TIP3    H225937   2.383   2.148  14.257  0.4860  1.2881 -0.0272
 1508TIP3   OH225938   2.353   0.576  12.759 -0.2746 -0.3187  0.4353
 1508TIP3    H125939   2.266   0.539  12.746  0.6130 -1.9514 -1.4066
 1508TIP3    H225940   2.413   0.504  12.739  1.5290  1.3818 -0.6647
 1509TIP3   OH225941   3.675   1.554  16.149 -0.7714 -0.3662 -0.7096
 1509TIP3    H125942   3.648   1.600  16.229 -0.6125 -1.5084  0.0288
 1509TIP3    H225943   3.727   1.480  16.181  1.2803  0.4577 -1.9819
 1510TIP3   OH225944   2.100   2.966  16.020  0.7333  0.1078  0.3133
 1510TIP3    H125945   2.052   2.901  15.970 -0.4331  0.9409  0.2918
 1510TIP3    H225946   2.178   2.985  15.968 -1.0997  1.9657 -1.9921
 1511TIP3   OH225947   6.374   5.218  15.422  0.1131  0.2632  0.2708
 1511TIP3    H125948   6.314   5.258  15.359  0.7995  1.0635  0.0951
 1511TIP3    H225949   6.324   5.212  15.503 -0.8917 -1.0836 -0.4183
 1512TIP3   OH225950   6.295   1.988  16.998 -0.5626  0.6683  0.5193
 1512TIP3    H125951   6.284   1.899  17.032  0.1578  0.3512 -0.0267
 1512TIP3    H225952   6.210   2.030  17.012 -1.0706 -0.2592  0.3634
 1513TIP3   OH225953   0.120   0.045   6.634 -0.1000 -0.0211 -0.4662
 1513TIP3    H125954   0.173  -0.033   6.617 -0.4090 -0.5781  1.0393
 1513TIP3    H225955   0.178   0.103   6.683 -0.8844 -0.7207  1.3796
 1514TIP3   OH225956   3.585   1.699  10.998  0.5339 -0.2448 -0.1361
 1514TIP3    H125957   3.531   1.719  10.921 -0.1823 -1.0892  0.1353
 1514TIP3    H225958   3.525   1.710  11.072  0.9332 -0.4930  0.2222
 1515TIP3   OH225959   6.293   5.848  13.806 -0.3849 -0.2650 -0.3141
 1515TIP3    H125960   6.214   5.902  13.806 -0.6815 -0.6793  0.4192
 1515TIP3    H225961   6.275   5.779  13.743  0.4607  1.1125 -2.1502
 1516TIP3   OH225962   1.953   0.911   2.771 -0.1258 -0.6314 -0.6587
 1516TIP3    H125963   1.978   0.992   2.815 -0.2827 -1.3319  0.7687
 1516TIP3    H225964   1.863   0.895   2.800  0.3678 -2.0245  0.1843
 1517TIP3   OH225965   0.341   5.304   3.589 -0.1773 -0.0787  0.5613
 1517TIP3    H125966   0.298   5.310   3.504  3.8975 -1.2999 -1.8727
 1517TIP3    H225967   0.293   5.235   3.635 -1.3025 -0.8168 -1.5908
 1518TIP3   OH225968   3.691   0.864   5.324  0.3097  0.4951  0.2479
 1518TIP3    H125969   3.707   0.954   5.296  2.1582  0.3819  0.8149
 1518TIP3    H225970   3.618   0.870   5.384 -0.0114  1.5209 -0.2277
 1519TIP3   OH225971   4.118   3.551   4.706 -0.0308  0.2232 -0.0791
 1519TIP3    H125972   4.042   3.597   4.668  0.8049  1.7115 -0.0444
 1519TIP3    H225973   4.136   3.598   4.787  1.0366  0.0046 -0.1787
 1520TIP3   OH225974   1.185   4.843   3.838 -0.0254 -0.0498  0.3270
 1520TIP3    H125975   1.133   4.822   3.916 -0.9608  0.0785 -0.2433
 1520TIP3    H225976   1.212   4.758   3.803  0.5587 -0.1009  0.8905
 1521TIP3   OH225977   5.833   4.652  11.016  0.0943 -0.2820 -0.3534
 1521TIP3    H125978   5.748   4.678  10.982 -1.0065 -1.1305  1.5644
 1521TIP3    H225979   5.834   4.556  11.010  0.0814 -0.4253  1.3415
 1522TIP3   OH225980   2.840   3.326   3.836 -0.1090 -0.2224  0.0731
 1522TIP3    H125981   2.903   3.396   3.820  0.6370 -0.8602  0.1783
 1522TIP3    H225982   2.893   3.247   3.845 -0.9828 -0.9521 -0.8696
 1523TIP3   OH225983   4.810   3.409  15.215 -0.5315 -0.5407 -0.4038
 1523TIP3    H125984   4.851   3.490  15.185  0.9463 -0.7911  0.8563
 1523TIP3    H225985   4.718   3.418  15.190 -0.1937  1.0773 -1.1644
 1524TIP3   OH225986   5.502   0.259  12.418  0.1923 -0.6202 -0.8087
 1524TIP3    H125987   5.543   0.275  12.332  1.4028  0.0863 -0.1279
 1524TIP3    H225988   5.451   0.338  12.435  0.1836 -0.6357 -0.7629
 1525TIP3   OH225989   2.920   4.418   5.957 -0.0528  0.2083 -0.0521
 1525TIP3    H125990   2.985   4.486   5.940  0.8090 -0.7751 -0.8521
 1525TIP3    H225991   2.916   4.411   6.052  0.4575  0.7943  0.0165
 1526TIP3   OH225992   0.794   1.605   4.668 -0.1455  0.5824 -0.2861
 1526TIP3    H125993   0.700   1.616   4.660 -0.2586 -0.8676 -1.4062
 1526TIP3    H225994   0.814   1.528   4.615  1.1824 -1.2985  2.6634
 1527TIP3   OH225995   2.406   5.464   2.735 -0.2117  0.1751 -0.2023
 1527TIP3    H125996   2.421   5.388   2.791 -2.7875 -0.3435 -0.0622
 1527TIP3    H225997   2.487   5.474   2.686  0.5881 -2.0147  0.5348
 1528TIP3   OH225998   2.129   3.408   1.488 -0.0275 -0.5459 -0.5104
 1528TIP3    H125999   2.093   3.330   1.531 -3.2274  1.4782  0.8600
 1528TIP3    H226000   2.063   3.432   1.423 -0.8139  2.7552  1.3069
 1529TIP3   OH226001   6.156   4.397   5.525 -0.2327 -0.3310 -0.2864
 1529TIP3    H126002   6.239   4.444   5.534 -0.9567  1.1126 -0.9137
 1529TIP3    H226003   6.182   4.307   5.504  1.1743 -0.0502  0.1586
 1530TIP3   OH226004   3.752   0.974   1.373  0.1111 -0.0588 -0.6070
 1530TIP3    H126005   3.667   0.987   1.415  0.7938  1.6537  0.3429
 1530TIP3    H226006   3.754   1.039   1.303  0.9188  0.4366 -0.1372
 1531TIP3   OH226007   3.773   2.989   3.693 -0.1846  0.0959 -0.2676
 1531TIP3    H126008   3.791   3.054   3.762 -4.0585  0.4156  0.6749
 1531TIP3    H226009   3.776   2.905   3.738  0.3204  0.0199 -0.4386
 1532TIP3   OH226010   3.687   4.964   3.299 -0.2492 -0.2435 -0.1366
 1532TIP3    H126011   3.762   5.020   3.322  0.5089 -1.2430 -0.0898
 1532TIP3    H226012   3.644   4.947   3.382 -0.8178  0.6996 -0.2175
 1533TIP3   OH226013   0.222   1.188   3.457  0.2073  0.3729  0.6818
 1533TIP3    H126014   0.298   1.131   3.458  0.5027  0.7722  1.1682
 1533TIP3    H226015   0.175   1.164   3.377  0.5092 -0.3052  0.7030
 1534TIP3   OH226016   4.450   6.455   5.989 -0.6136  0.5392 -0.5512
 1534TIP3    H126017   4.379   6.508   5.952 -2.1913 -0.4730  0.8653
 1534TIP3    H226018   4.494   6.416   5.914 -0.8502  2.0517 -1.5077
 1535TIP3   OH226019   2.931   5.990  13.410  0.0951  0.0320  0.1277
 1535TIP3    H126020   3.002   6.029  13.461 -0.5518  0.4600  0.7161
 1535TIP3    H226021   2.966   5.985  13.320  0.2887  1.7466  0.0729
 1536TIP3   OH226022   6.149   0.160  17.137  0.1208  0.4086  0.2737
 1536TIP3    H126023   6.170   0.248  17.106 -1.0089  1.1203  1.4145
 1536TIP3    H226024   6.200   0.150  17.217  0.8050 -0.2878 -0.2279
 1537TIP3   OH226025   0.500   4.523  12.898 -0.1109 -0.2923  0.5008
 1537TIP3    H126026   0.523   4.430  12.905  2.1539  0.3249  2.5311
 1537TIP3    H226027   0.409   4.527  12.929 -0.0526 -1.7586  0.9449
 1538TIP3   OH226028   4.617   5.947   2.476  0.3231  0.3008  0.1336
 1538TIP3    H126029   4.656   5.993   2.402  1.1276  0.0834  0.4173
 1538TIP3    H226030   4.636   5.854   2.459  0.4150  0.2396  0.5561
 1539TIP3   OH226031   6.602   0.805   4.210  0.2743  0.0230  0.2960
 1539TIP3    H126032   6.624   0.893   4.241  1.5338 -0.8990  2.1839
 1539TIP3    H226033   6.507   0.799   4.223  0.2780  0.8624  0.8214
 1540TIP3   OH226034   5.343   5.541   5.478  0.4322 -0.1607 -0.5326
 1540TIP3    H126035   5.423   5.591   5.497 -0.2271  0.7962 -0.1947
 1540TIP3    H226036   5.308   5.581   5.398  1.3482 -1.9122 -1.8679
 1541TIP3   OH226037   4.486   3.359   4.894 -0.5367 -0.2931 -0.4621
 1541TIP3    H126038   4.550   3.317   4.951 -0.6680  1.4916  1.1107
 1541TIP3    H226039   4.531   3.371   4.810  1.5699  1.6263  0.8178
 1542TIP3   OH226040   2.186   5.857  13.104  0.0729  0.3760 -0.0190
 1542TIP3    H126041   2.247   5.833  13.174 -0.3463  0.3882  0.3541
 1542TIP3    H226042   2.242   5.891  13.034  0.6105 -0.8490 -0.2103
 1543TIP3   OH226043   0.254   1.916   1.641  0.1955  0.1407  0.1384
 1543TIP3    H126044   0.300   1.859   1.702  0.3031  0.4574  0.3554
 1543TIP3    H226045   0.288   1.891   1.555 -0.9735 -1.2811  0.0390
 1544TIP3   OH226046   5.717   1.084  14.611  0.3643 -0.6024  0.1537
 1544TIP3    H126047   5.734   0.992  14.630  1.0999 -0.7135 -0.9563
 1544TIP3    H226048   5.803   1.121  14.592  0.0452  0.2545  0.3289
 1545TIP3   OH226049   6.215   0.695  16.802  0.3946 -0.1317 -0.2220
 1545TIP3    H126050   6.125   0.673  16.826  0.9917 -0.8208  1.5142
 1545TIP3    H226051   6.261   0.703  16.885  1.8603  0.6276 -1.0652
 1546TIP3   OH226052   4.091   2.440   0.322  0.2553 -0.0823  0.0102
 1546TIP3    H126053   4.087   2.386   0.244  2.9235 -1.5401  0.7672
 1546TIP3    H226054   4.140   2.518   0.295  0.0071  0.0452 -0.0773
 1547TIP3   OH226055   6.134   5.762  16.367 -0.2404 -0.5843  0.2929
 1547TIP3    H126056   6.109   5.671  16.351  0.1893 -0.3378 -2.1651
 1547TIP3    H226057   6.225   5.758  16.396 -0.6454 -0.9880  1.5681
 1548TIP3   OH226058   1.152   2.627   5.492 -0.4251  0.0721  0.3069
 1548TIP3    H126059   1.229   2.579   5.462 -0.3469  0.7282 -0.5863
 1548TIP3    H226060   1.086   2.559   5.509 -0.3404 -0.3599 -0.9984
 1549TIP3   OH226061   1.751   0.840  16.398 -0.3553  0.0504 -0.3258
 1549TIP3    H126062   1.789   0.825  16.311 -0.1936  1.2750 -0.4977
 1549TIP3    H226063   1.658   0.819  16.387 -0.0596 -1.2787 -0.3724
 1550TIP3   OH226064   1.686   2.380   0.825  0.2236  0.1912  0.1109
 1550TIP3    H126065   1.606   2.356   0.872 -0.3139 -0.0423 -0.8855
 1550TIP3    H226066   1.718   2.297   0.789  1.0729  0.2420  0.7081
 1551TIP3   OH226067   6.161   3.711   2.476  0.1618 -0.7415  0.8175
 1551TIP3    H126068   6.099   3.738   2.409 -0.0426 -0.2946  1.1794
 1551TIP3    H226069   6.242   3.756   2.454  0.0813 -0.5572  0.8933
 1552TIP3   OH226070   4.326   6.485   0.713  0.1131 -0.0020  0.1533
 1552TIP3    H126071   4.357   6.543   0.782  0.1281 -1.1538  1.1414
 1552TIP3    H226072   4.399   6.425   0.697 -0.9662 -1.7816  1.4417
 1553TIP3   OH226073   0.085   4.049   2.607 -0.4048  0.3366  0.1442
 1553TIP3    H126074   0.108   3.985   2.540 -0.9446 -0.2193  0.4845
 1553TIP3    H226075   0.015   4.008   2.657  0.7507  0.2525  1.7811
 1554TIP3   OH226076   4.758   2.096   2.777 -0.3249  0.6434  0.3574
 1554TIP3    H126077   4.704   2.156   2.725 -2.8132 -0.5110  1.4378
 1554TIP3    H226078   4.747   2.011   2.734  2.0769  0.6464 -0.3770
 1555TIP3   OH226079   3.052   2.383  15.713 -0.3396  0.5041  0.1407
 1555TIP3    H126080   3.125   2.444  15.700 -0.3179  0.1780 -1.4232
 1555TIP3    H226081   3.022   2.401  15.802 -0.2312  2.7080 -0.2021
 1556TIP3   OH226082   1.678   2.136   6.716  0.6025 -0.0004 -0.2326
 1556TIP3    H126083   1.656   2.075   6.786 -0.1064  0.4235 -0.0776
 1556TIP3    H226084   1.774   2.136   6.714  0.6225 -1.2434 -0.3578
 1557TIP3   OH226085   0.930   4.861  11.284  0.5248  0.2850  0.1389
 1557TIP3    H126086   0.999   4.805  11.249  0.0839  0.1599 -0.5485
 1557TIP3    H226087   0.854   4.804  11.290  0.4977  0.3982  0.9919
 1558TIP3   OH226088   4.028   0.373  13.726  0.4078  0.3387  0.2339
 1558TIP3    H126089   4.106   0.428  13.722 -0.7402  1.9588 -2.0652
 1558TIP3    H226090   4.027   0.338  13.815  2.9558  1.4201  0.7548
 1559TIP3   OH226091   5.668   3.384  11.582 -0.0232 -0.2617 -0.2708
 1559TIP3    H126092   5.637   3.462  11.628  0.6893 -0.5523  0.7515
 1559TIP3    H226093   5.634   3.311  11.635  0.0778 -0.6198 -0.6993
 1560TIP3   OH226094   5.929   1.743  14.926  0.5980 -0.1747 -0.2646
 1560TIP3    H126095   5.875   1.703  14.859 -0.8636  0.7378  0.3250
 1560TIP3    H226096   5.990   1.798  14.877  0.9172 -1.0938 -0.9257
 1561TIP3   OH226097   0.612   3.552   2.616  0.1024 -0.2756  0.0220
 1561TIP3    H126098   0.587   3.578   2.527  0.6429  0.7949  0.1710
 1561TIP3    H226099   0.563   3.611   2.672 -1.0817 -1.6621  0.4956
 1562TIP3   OH226100   2.839   3.963  16.931 -0.2273  0.3482  0.1704
 1562TIP3    H126101   2.760   3.941  16.981  0.5400 -0.6266  0.9940
 1562TIP3    H226102   2.841   3.901  16.859 -0.6156  0.8761 -0.3002
 1563TIP3   OH226103   4.237   2.087   0.508 -0.4916  0.1292 -0.3153
 1563TIP3    H126104   4.154   2.133   0.524 -0.0496  0.8099  0.0528
 1563TIP3    H226105   4.290   2.107   0.584 -0.6704 -1.9094  0.3910
 1564TIP3   OH226106   0.379   1.762  13.479 -0.2177  0.3311  0.5431
 1564TIP3    H126107   0.341   1.700  13.542  0.0246  0.5552  0.9144
 1564TIP3    H226108   0.470   1.772  13.507  0.2359 -0.4866 -0.5630
 1565TIP3   OH226109   3.574   4.869   0.766  0.1911 -0.2884 -0.1759
 1565TIP3    H126110   3.593   4.925   0.691 -0.5925  1.1553  0.6566
 1565TIP3    H226111   3.480   4.881   0.782  0.1713 -1.2351  0.5073
 1566TIP3   OH226112   1.917   6.100  16.220 -0.2978  0.0798 -0.2572
 1566TIP3    H126113   1.822   6.099  16.230 -0.6380 -0.5479 -2.9839
 1566TIP3    H226114   1.932   6.141  16.135  1.9656  1.1591  0.5784
 1567TIP3   OH226115   0.914   3.883   4.372 -0.4215  0.4518  0.1103
 1567TIP3    H126116   0.934   3.806   4.425 -1.0162  0.4512  0.3343
 1567TIP3    H226117   0.820   3.896   4.382 -1.0486 -0.9731 -2.7985
 1568TIP3   OH226118   1.031   3.972  13.458 -0.0503 -0.2376 -0.2326
 1568TIP3    H126119   0.966   3.904  13.473 -1.5326  0.1339 -3.9609
 1568TIP3    H226120   1.083   3.940  13.385  0.2433  1.9133 -1.0391
 1569TIP3   OH226121   3.759   3.874  16.687 -0.3044  0.3054  0.4621
 1569TIP3    H126122   3.667   3.900  16.685 -0.7326 -1.1354  0.3954
 1569TIP3    H226123   3.762   3.792  16.638  0.8603 -0.1494  1.2440
 1570TIP3   OH226124   2.753   4.681   6.069  0.5316 -0.3571  0.4682
 1570TIP3    H126125   2.830   4.642   6.111  2.0380  1.3659 -0.5380
 1570TIP3    H226126   2.773   4.775   6.065 -0.5646 -0.1596 -1.9411
 1571TIP3   OH226127   4.542   1.673   2.652 -0.0758 -0.3580  0.1717
 1571TIP3    H126128   4.579   1.589   2.679  1.9849  0.5331  0.2235
 1571TIP3    H226129   4.580   1.689   2.566 -0.0106  0.7853  0.4063
 1572TIP3   OH226130   3.153   6.227  13.848  0.8707 -0.3096  0.6943
 1572TIP3    H126131   3.211   6.237  13.923 -0.4484  0.1812  1.6887
 1572TIP3    H226132   3.145   6.315  13.812 -0.1278 -0.1521  1.2611
 1573TIP3   OH226133   4.713   5.671   0.993 -0.5537 -0.1906 -0.2124
 1573TIP3    H126134   4.666   5.590   0.974 -1.8974  0.6787 -0.6668
 1573TIP3    H226135   4.805   5.644   0.998 -1.0043 -1.7863 -0.0549
 1574TIP3   OH226136   1.003   3.927  15.865  0.8991 -0.7461  0.6182
 1574TIP3    H126137   0.979   3.844  15.823 -0.9117 -0.8200  1.6777
 1574TIP3    H226138   0.981   3.994  15.799  0.2451 -0.9980  0.5683
 1575TIP3   OH226139   2.842   3.215   4.988 -0.1087  0.0736 -0.0028
 1575TIP3    H126140   2.867   3.174   5.071  0.9121 -1.8852 -1.1873
 1575TIP3    H226141   2.759   3.172   4.964  1.0367 -1.5392 -1.3205
 1576TIP3   OH226142   6.727   3.200  16.755  0.4551  0.4688 -0.0212
 1576TIP3    H126143   6.813   3.243  16.752  0.8265 -0.3003 -0.8687
 1576TIP3    H226144   6.686   3.224  16.671  0.7867 -1.0606 -0.6385
 1577TIP3   OH226145   1.968   1.132   4.626 -0.3076 -0.5494 -0.1683
 1577TIP3    H126146   1.929   1.054   4.666 -0.9370 -0.3550 -0.4087
 1577TIP3    H226147   1.895   1.191   4.610  0.3914  1.0301  2.0184
 1578TIP3   OH226148   6.284   0.850   2.388  0.7318 -0.5095 -0.1589
 1578TIP3    H126149   6.283   0.939   2.421  0.5665 -0.6373  0.1849
 1578TIP3    H226150   6.370   0.816   2.411 -0.1454 -1.3398  2.1688
 1579TIP3   OH226151   0.737   0.717  15.649  0.1872  0.5813 -0.4983
 1579TIP3    H126152   0.782   0.634  15.665 -0.6609  0.1442 -0.2896
 1579TIP3    H226153   0.649   0.704  15.685 -0.3972  1.0933 -1.6635
 1580TIP3   OH226154   0.189   6.554  15.900 -0.1823 -0.1560 -0.6141
 1580TIP3    H126155   0.139   6.631  15.876 -0.8316 -0.1149  0.8290
 1580TIP3    H226156   0.136   6.509  15.965  1.3626 -0.4378  0.5062
 1581TIP3   OH226157   2.651   4.051  14.563  0.3417 -0.0577  0.0480
 1581TIP3    H126158   2.593   4.026  14.491 -0.2817 -0.5132  0.6953
 1581TIP3    H226159   2.604   4.121  14.608  0.5068 -0.1060  0.2962
 1582TIP3   OH226160   6.399   5.838  16.496 -0.0546 -0.4300 -0.3474
 1582TIP3    H126161   6.462   5.875  16.558  0.9050  0.0370 -1.5607
 1582TIP3    H226162   6.334   5.794  16.551  0.2252  0.7880  1.0272
 1583TIP3   OH226163   4.535   2.408   0.933 -0.4235  0.0938  0.4530
 1583TIP3    H126164   4.559   2.343   0.867 -0.9295  0.2667  0.0958
 1583TIP3    H226165   4.516   2.357   1.012 -1.2792 -0.2239  0.0433
 1584TIP3   OH226166   1.402   4.102  11.981  0.3817  0.6224 -0.8544
 1584TIP3    H126167   1.364   4.174  12.031  0.2207 -0.0876  0.0633
 1584TIP3    H226168   1.329   4.043  11.963  1.0016 -0.8435  1.0844
 1585TIP3   OH226169   5.201   4.872  13.316  0.1066 -0.1065 -0.0514
 1585TIP3    H126170   5.183   4.862  13.223  1.5517  0.1270 -0.3824
 1585TIP3    H226171   5.116   4.893  13.355 -1.0747 -2.9254 -0.8620
 1586TIP3   OH226172   2.030   4.030  12.168 -0.2934 -0.2793 -0.2579
 1586TIP3    H126173   2.079   3.999  12.093  0.7611  0.2386  0.1956
 1586TIP3    H226174   2.082   4.103  12.202 -1.6156  0.5889 -0.0372
 1587TIP3   OH226175   0.871   0.160   6.823 -0.3969 -0.4957  0.0603
 1587TIP3    H126176   0.885   0.251   6.798 -1.5483 -0.4474 -0.4757
 1587TIP3    H226177   0.856   0.114   6.740 -1.7846 -0.7940  0.4453
 1588TIP3   OH226178   4.634   0.899   2.297  0.2667 -0.2775  0.3426
 1588TIP3    H126179   4.570   0.863   2.236 -1.3138  0.4671  1.5055
 1588TIP3    H226180   4.597   0.983   2.324  1.0622 -0.4541  2.0995
 1589TIP3   OH226181   1.296   2.578  14.694 -0.1211  0.2387 -0.1805
 1589TIP3    H126182   1.276   2.579  14.600 -3.1545 -0.0645  0.3512
 1589TIP3    H226183   1.319   2.487  14.712 -0.8583 -0.0031 -0.4238
 1590TIP3   OH226184   4.569   1.936  15.607  0.4364  0.4221  0.3457
 1590TIP3    H126185   4.580   1.890  15.524  0.1568 -1.4673  1.3042
 1590TIP3    H226186   4.596   2.026  15.588 -0.1585  0.2010 -1.9238
 1591TIP3   OH226187   3.294   4.884   0.791  0.3395 -0.7498  0.2859
 1591TIP3    H126188   3.205   4.910   0.814  0.6522  1.6086 -0.8677
 1591TIP3    H226189   3.284   4.798   0.750 -1.1648 -1.2703  1.6387
 1592TIP3   OH226190   1.932   5.246  13.885 -0.7890  0.1130 -0.4781
 1592TIP3    H126191   1.941   5.269  13.978  0.4286  1.9504 -0.9865
 1592TIP3    H226192   1.896   5.158  13.885  0.6183 -0.5333  1.7538
 1593TIP3   OH226193   6.509   0.630  11.741  0.0500 -0.4921 -0.4149
 1593TIP3    H126194   6.435   0.637  11.802  0.7359 -1.3635  0.5642
 1593TIP3    H226195   6.480   0.567  11.675  0.0244 -1.1047  0.1621
 1594TIP3   OH226196   2.371   0.730  16.432 -0.3223 -0.4880  0.0107
 1594TIP3    H126197   2.380   0.792  16.505 -0.6266 -0.7043  0.2323
 1594TIP3    H226198   2.448   0.674  16.438 -0.5322 -0.7406  0.3906
 1595TIP3   OH226199   1.956   3.540  12.530 -0.1807  0.4163  0.7196
 1595TIP3    H126200   1.874   3.561  12.576 -0.3852  1.3182 -0.0241
 1595TIP3    H226201   2.015   3.611  12.556 -0.6988  1.6999 -1.3882
 1596TIP3   OH226202   0.261   2.182   0.869  0.2402  0.2753 -0.0821
 1596TIP3    H126203   0.177   2.221   0.844  1.2891  2.4910 -0.3593
 1596TIP3    H226204   0.309   2.175   0.787  0.4080 -0.8756  0.0971
 1597TIP3   OH226205   3.619   0.670   2.235  0.0182  0.2994 -0.1299
 1597TIP3    H126206   3.533   0.692   2.270 -0.0778 -1.5136  0.9264
 1597TIP3    H226207   3.654   0.605   2.297  1.1027 -0.8068 -1.8156
 1598TIP3   OH226208   2.093   4.882   2.974  0.1880 -0.7415 -0.2195
 1598TIP3    H126209   2.106   4.961   2.923  2.9268 -1.6939 -1.1713
 1598TIP3    H226210   2.101   4.910   3.065 -1.4701  0.4194 -0.3806
 1599TIP3   OH226211   1.562   0.077   5.470  0.4984 -0.1846  0.3911
 1599TIP3    H126212   1.556   0.088   5.375 -1.7926 -1.6710  0.2926
 1599TIP3    H226213   1.597  -0.012   5.481 -1.1215 -0.7947  0.8721
 1600TIP3   OH226214   1.427   1.962   5.262 -1.0960  0.0546  0.2925
 1600TIP3    H126215   1.446   1.893   5.199  0.3099 -0.0456  0.8103
 1600TIP3    H226216   1.492   2.030   5.244 -0.3691 -0.1729  1.9320
 1601TIP3   OH226217   4.300   1.145   1.496  0.1194  0.6595  0.3167
 1601TIP3    H126218   4.268   1.068   1.544  1.2661  0.2340  0.4192
 1601TIP3    H226219   4.353   1.192   1.559  1.9024 -0.0670 -0.5814
 1602TIP3   OH226220   0.327   4.869  11.309 -0.0522  0.2851  0.2492
 1602TIP3    H126221   0.246   4.914  11.332  0.2634  1.4442 -0.7951
 1602TIP3    H226222   0.315   4.780  11.342 -0.6506  1.1180  2.4799
 1603TIP3   OH226223   2.231   3.055   1.902 -0.1784  0.0145  0.0590
 1603TIP3    H126224   2.236   3.005   1.984 -1.0450  1.7916  1.2460
 1603TIP3    H226225   2.268   3.140   1.923  0.2080  0.3000 -1.6219
 1604TIP3   OH226226   0.046   5.195   3.239  0.1805  0.2243 -0.1872
 1604TIP3    H126227   0.058   5.290   3.242  0.4748  0.1797  0.1016
 1604TIP3    H226228  -0.016   5.181   3.167  0.6441  0.5776 -0.6621
 1605TIP3   OH226229   3.742   2.970  14.038 -0.1349 -0.3167 -0.1778
 1605TIP3    H126230   3.654   2.993  14.067 -0.9019 -3.1642 -0.0242
 1605TIP3    H226231   3.799   3.000  14.110 -1.1366  0.0057  0.5075
 1606TIP3   OH226232   3.009   4.883   4.774  0.3784 -0.6012 -0.0958
 1606TIP3    H126233   2.957   4.950   4.730 -0.7160 -0.8034  0.8375
 1606TIP3    H226234   3.099   4.898   4.745  0.3382  1.9688  0.9124
 1607TIP3   OH226235   4.061   4.332  11.580 -0.2972 -0.3608 -0.0127
 1607TIP3    H126236   4.069   4.304  11.489  0.1252  1.5538 -0.6244
 1607TIP3    H226237   4.015   4.260  11.624 -1.9342 -0.6830 -2.0796
 1608TIP3   OH226238   4.303   1.122   4.870 -0.2038 -0.1016 -0.4338
 1608TIP3    H126239   4.328   1.073   4.949  0.4793 -0.7066 -1.0054
 1608TIP3    H226240   4.338   1.069   4.798  0.9971  1.4772 -1.0514
 1609TIP3   OH226241   5.291   1.078   0.041  0.2494  0.4670  0.0752
 1609TIP3    H126242   5.385   1.066   0.056  0.3682 -0.9488 -1.5254
 1609TIP3    H226243   5.255   1.095   0.128  2.0084  1.3329  0.6862
 1610TIP3   OH226244   2.456   0.751  15.521  0.4097 -0.2947 -0.1932
 1610TIP3    H126245   2.381   0.796  15.482 -0.0276 -0.7561  0.1054
 1610TIP3    H226246   2.463   0.788  15.609  0.9062  0.1793 -0.4314
 1611TIP3   OH226247   5.681   6.661  14.808  0.0702  0.3234  0.1991
 1611TIP3    H126248   5.674   6.624  14.720 -1.2825  0.9911  0.0007
 1611TIP3    H226249   5.772   6.689  14.815  0.7563 -1.6729 -0.1781
 1612TIP3   OH226250   2.635   5.131  12.427 -0.2032 -0.3824  0.2666
 1612TIP3    H126251   2.633   5.198  12.359  3.6377 -0.4076 -0.0772
 1612TIP3    H226252   2.561   5.153  12.485 -0.9742  2.1969 -1.5354
 1613TIP3   OH226253   0.373   2.555   3.364  0.0228 -0.4390 -0.5718
 1613TIP3    H126254   0.375   2.618   3.291  2.4333  1.0295  0.6387
 1613TIP3    H226255   0.436   2.488   3.339  0.1087 -0.4698 -0.2704
 1614TIP3   OH226256   0.356   5.420   6.115 -0.2707 -0.5537 -0.5837
 1614TIP3    H126257   0.349   5.348   6.178 -0.6308  0.8477  1.0550
 1614TIP3    H226258   0.450   5.428   6.098  0.0408  0.0955  1.1404
 1615TIP3   OH226259   1.262   6.534   3.445 -0.1547  0.2066  0.6466
 1615TIP3    H126260   1.256   6.626   3.471  0.9059  0.6879 -0.7060
 1615TIP3    H226261   1.179   6.495   3.473 -0.7471  1.6374  0.9411
 1616TIP3   OH226262   6.079   3.316   2.420  0.0857  0.1023  0.0954
 1616TIP3    H126263   6.162   3.270   2.414 -1.2099 -2.4522  0.3360
 1616TIP3    H226264   6.029   3.286   2.344 -0.3157  2.3237 -0.5727
 1617TIP3   OH226265   1.099   6.128  11.209 -0.2763 -0.6182 -0.5897
 1617TIP3    H126266   1.137   6.113  11.295 -0.7647 -0.2345 -0.3051
 1617TIP3    H226267   1.149   6.202  11.174 -1.4509  0.6080  0.2334
 1618TIP3   OH226268   5.636   3.825   2.810 -0.1544 -0.2954  0.1035
 1618TIP3    H126269   5.704   3.779   2.761 -0.7830 -1.3144  0.1759
 1618TIP3    H226270   5.554   3.797   2.769 -0.6321 -0.4695  1.1686
 1619TIP3   OH226271   4.385   6.196   4.477 -0.1109 -0.8306 -0.5380
 1619TIP3    H126272   4.456   6.249   4.513  0.4645 -0.4605 -2.1096
 1619TIP3    H226273   4.343   6.253   4.413 -0.1766 -1.8850 -1.4678
 1620TIP3   OH226274   5.883   1.761   3.283 -0.6051  0.1302  0.4567
 1620TIP3    H126275   5.894   1.837   3.340 -0.5543 -0.4495  1.2489
 1620TIP3    H226276   5.926   1.689   3.330 -0.8483 -0.4391 -0.1648
 1621TIP3   OH226277   5.204   0.997  10.338 -0.0899  0.0162  0.3433
 1621TIP3    H126278   5.294   0.996  10.370 -0.0585 -1.4803  0.2722
 1621TIP3    H226279   5.150   0.988  10.417 -0.2200  1.3957  0.4363
 1622TIP3   OH226280   2.255   0.569   3.035  0.2055  1.1844  0.1178
 1622TIP3    H126281   2.231   0.482   3.002  0.7359  1.0991 -0.0532
 1622TIP3    H226282   2.227   0.629   2.966 -0.8962  1.2378  0.5803
 1623TIP3   OH226283   6.458   3.193  12.105  0.1828  0.4198 -0.4282
 1623TIP3    H126284   6.440   3.215  12.196 -0.9068 -1.0113 -0.2671
 1623TIP3    H226285   6.532   3.132  12.108 -1.5954 -1.8374 -0.2170
 1624TIP3   OH226286   6.086   2.562  11.765 -0.0349 -0.0321  0.4396
 1624TIP3    H126287   6.179   2.568  11.744  0.6656 -2.2511  2.4525
 1624TIP3    H226288   6.043   2.619  11.701  2.5236 -0.3724 -1.7543
 1625TIP3   OH226289   5.850   6.265   6.496  0.1527 -0.4881 -0.3013
 1625TIP3    H126290   5.809   6.195   6.547  1.0815 -0.0157  1.1348
 1625TIP3    H226291   5.934   6.229   6.469  0.0998 -0.3561 -0.6602
 1626TIP3   OH226292   1.239   0.657  16.399  0.0048 -0.3095 -0.3325
 1626TIP3    H126293   1.181   0.728  16.373 -2.1443 -1.4607  0.9853
 1626TIP3    H226294   1.313   0.662  16.339 -2.2088  0.2695 -3.1929
 1627TIP3   OH226295   0.273   3.191  16.721 -0.0591  0.2282 -0.0626
 1627TIP3    H126296   0.288   3.188  16.815 -1.5129 -0.9632  0.1739
 1627TIP3    H226297   0.358   3.173  16.682 -0.0148 -2.4834  1.0894
 1628TIP3   OH226298   3.319   2.974  11.561 -0.2802  0.3185 -0.3632
 1628TIP3    H126299   3.302   3.025  11.640 -1.7261  1.7822 -1.5593
 1628TIP3    H226300   3.275   2.891  11.576 -0.8942  0.7385  0.2118
 1629TIP3   OH226301   3.899   4.086   6.731 -0.0554 -0.5619  0.6803
 1629TIP3    H126302   3.871   4.058   6.644 -0.5633  1.4178  0.1469
 1629TIP3    H226303   3.957   4.161   6.715  2.0828 -1.8158  1.9625
 1630TIP3   OH226304   1.365   1.157   1.151 -0.4067 -0.2579  0.0426
 1630TIP3    H126305   1.284   1.130   1.194 -0.0754  1.1891  1.6834
 1630TIP3    H226306   1.434   1.122   1.207  0.1092 -0.6547 -0.8193
 1631TIP3   OH226307   0.793   4.639   3.292 -0.5956  0.3601  0.3172
 1631TIP3    H126308   0.701   4.652   3.316 -0.7614  0.5896 -0.4060
 1631TIP3    H226309   0.790   4.574   3.221 -0.3503  1.5545 -0.8279
 1632TIP3   OH226310   6.701   4.203   3.026 -0.4410  0.2233  0.4802
 1632TIP3    H126311   6.663   4.221   3.112 -0.7252  0.1881  0.3631
 1632TIP3    H226312   6.625   4.199   2.967 -0.2603  0.0830  0.2578
 1633TIP3   OH226313   1.520   1.438  16.137 -0.0364  0.2076 -0.2530
 1633TIP3    H126314   1.496   1.530  16.130  1.6445  0.7334  0.2318
 1633TIP3    H226315   1.523   1.406  16.047  1.7624  1.3404 -0.6540
 1634TIP3   OH226316   0.462   2.372  15.097 -0.4526 -0.2450 -0.2590
 1634TIP3    H126317   0.512   2.452  15.110 -2.6480  0.8601  2.6871
 1634TIP3    H226318   0.373   2.402  15.078 -1.2833 -1.9226  0.7019
 1635TIP3   OH226319   5.950   6.094   4.758  0.1952  0.8888 -0.5432
 1635TIP3    H126320   5.897   6.132   4.688  0.9067 -0.4654 -1.8542
 1635TIP3    H226321   6.040   6.110   4.731  0.4941 -0.7747 -0.5900
 1636TIP3   OH226322   3.682   2.369   4.703  0.7153  0.3344  0.8856
 1636TIP3    H126323   3.647   2.304   4.642  2.3235  2.7033 -2.9003
 1636TIP3    H226324   3.609   2.427   4.722  0.6770  0.8433 -0.6989
 1637TIP3   OH226325   1.419   1.444   2.559  0.3685 -0.4984 -0.3121
 1637TIP3    H126326   1.447   1.501   2.631  3.5199 -1.1374 -0.9123
 1637TIP3    H226327   1.372   1.372   2.602 -0.6590  0.7415  0.7430
 1638TIP3   OH226328   1.132   0.511   4.561  0.6571 -0.2930  0.1551
 1638TIP3    H126329   1.092   0.556   4.487 -0.0465  0.7461  1.1406
 1638TIP3    H226330   1.066   0.449   4.591  0.2301  0.5571  1.0164
 1639TIP3   OH226331   3.740   6.677   4.841  0.6641 -0.2384  0.4813
 1639TIP3    H126332   3.652   6.641   4.830  0.3254  0.6920  0.0226
 1639TIP3    H226333   3.799   6.601   4.834  0.0099 -0.6421 -0.9472
 1640TIP3   OH226334   2.783   4.909   3.810  0.2992  0.3117  0.6919
 1640TIP3    H126335   2.715   4.855   3.771  1.8060 -1.0859 -0.1218
 1640TIP3    H226336   2.841   4.931   3.736  2.7057 -1.6078  1.8461
 1641TIP3   OH226337   2.485   4.051  16.204  0.0295  0.0841  0.1309
 1641TIP3    H126338   2.571   4.071  16.240 -0.3419  0.4564  0.8177
 1641TIP3    H226339   2.426   4.051  16.279 -0.2273 -2.3633  0.0152
 1642TIP3   OH226340   3.309   2.449  13.186  0.0469  0.3247  0.2159
 1642TIP3    H126341   3.234   2.392  13.169 -0.3454  0.4179  1.5891
 1642TIP3    H226342   3.272   2.535  13.203  0.5946  0.8299 -0.9872
 1643TIP3   OH226343   3.502   4.262   3.735 -0.2977 -0.3686  0.0031
 1643TIP3    H126344   3.520   4.279   3.642  3.3331 -0.9623  0.4601
 1643TIP3    H226345   3.499   4.348   3.776 -1.0392 -0.1424 -0.5128
 1644TIP3   OH226346   1.533   5.768  14.517  0.5160 -0.1641 -0.5975
 1644TIP3    H126347   1.553   5.705  14.587  2.2683 -0.0184 -0.9463
 1644TIP3    H226348   1.586   5.740  14.443 -0.5308  0.3133 -1.5621
 1645TIP3   OH226349   3.938   5.671   1.136 -0.5261  0.2562 -0.4953
 1645TIP3    H126350   3.960   5.623   1.056 -2.9337 -1.5686 -0.1752
 1645TIP3    H226351   3.910   5.603   1.198 -0.5648  1.7869  1.2552
 1646TIP3   OH226352   5.670   5.681   2.594  0.2570  0.0712  0.3965
 1646TIP3    H126353   5.612   5.637   2.657  1.6949  0.7268  2.2893
 1646TIP3    H226354   5.671   5.624   2.518 -2.9845  0.1167  0.1672
 1647TIP3   OH226355   2.404   4.487  15.244  0.2768  0.2699 -0.2024
 1647TIP3    H126356   2.499   4.490  15.242  0.2692  0.6928 -0.1146
 1647TIP3    H226357   2.380   4.427  15.174  0.5635  1.2459 -1.1765
 1648TIP3   OH226358   0.431   0.880  15.211  0.5462  0.1191 -0.2085
 1648TIP3    H126359   0.506   0.937  15.203  0.6878 -0.0760 -0.2826
 1648TIP3    H226360   0.358   0.930  15.174  0.5306  0.5139  0.3563
 1649TIP3   OH226361   0.561   3.980  12.933  0.3089 -0.0469 -0.0982
 1649TIP3    H126362   0.597   3.955  13.018 -1.1590 -1.4301  0.1578
 1649TIP3    H226363   0.467   3.964  12.941  0.1905 -0.6861 -2.1435
 1650TIP3   OH226364   0.858   6.039  14.004  1.3967  0.0056  0.5085
 1650TIP3    H126365   0.826   6.097  13.935 -0.7051 -1.5906  0.0291
 1650TIP3    H226366   0.909   5.972  13.957  1.1004 -0.3216  0.6469
 1651TIP3   OH226367   2.416   4.544   4.203 -0.2294  0.0279  0.7179
 1651TIP3    H126368   2.427   4.457   4.165 -0.6694  0.3351 -0.1423
 1651TIP3    H226369   2.485   4.551   4.269  1.3073 -0.0818 -0.8151
 1652TIP3   OH226370   2.850   5.085  14.714  0.1262  0.0003  0.1370
 1652TIP3    H126371   2.825   5.125  14.631  0.8819 -2.1926 -1.2373
 1652TIP3    H226372   2.801   5.002  14.716  2.6891 -1.6370  0.1592
 1653TIP3   OH226373   2.369   3.454   0.723  0.5034 -0.4272 -0.1468
 1653TIP3    H126374   2.361   3.470   0.817 -2.1910 -1.7589 -0.0699
 1653TIP3    H226375   2.445   3.507   0.696  0.0619  1.6552  2.3573
 1654TIP3   OH226376   2.837   3.721  10.865  0.2754  0.0420 -1.0162
 1654TIP3    H126377   2.865   3.750  10.779  0.0393 -1.3440 -1.5918
 1654TIP3    H226378   2.889   3.641  10.881  0.9457  0.7307  0.5040
 1655TIP3   OH226379   1.258   4.560  11.996 -0.5296 -0.1605 -0.2513
 1655TIP3    H126380   1.265   4.539  11.902  0.8286 -1.7953  0.1688
 1655TIP3    H226381   1.264   4.656  11.999 -0.3438 -0.0850 -1.8178
 1656TIP3   OH226382   6.034   5.719   0.979 -0.3178 -0.6501 -0.3016
 1656TIP3    H126383   5.966   5.695   1.042 -1.5974  0.6620 -1.1127
 1656TIP3    H226384   6.045   5.640   0.925 -1.7366 -0.6844 -0.5984
 1657TIP3   OH226385   2.142   5.368   0.194 -0.5132 -0.1658  0.1314
 1657TIP3    H126386   2.155   5.275   0.210  0.6569  0.1593  1.3274
 1657TIP3    H226387   2.136   5.376   0.099  1.0527 -1.2928 -0.1044
 1658TIP3   OH226388   3.851   0.887  11.215  0.0714 -0.2950  0.2016
 1658TIP3    H126389   3.767   0.841  11.207 -0.5264  0.5657  1.2423
 1658TIP3    H226390   3.875   0.908  11.125 -1.2430  0.1478 -0.0734
 1659TIP3   OH226391   5.988   6.429  16.842 -0.1821  0.1776  0.6073
 1659TIP3    H126392   5.896   6.427  16.817 -0.1102 -1.7551  0.2721
 1659TIP3    H226393   6.035   6.415  16.760  0.4829  2.1272  0.6261
 1660TIP3   OH226394   4.812   3.021  15.075 -0.1238  0.2513 -0.9282
 1660TIP3    H126395   4.718   3.002  15.071 -0.1870 -0.2153  1.3668
 1660TIP3    H226396   4.821   3.080  15.150  1.4486  0.0304 -0.9151
 1661TIP3   OH226397   1.423   3.472  13.996 -0.3034  0.8047 -0.0611
 1661TIP3    H126398   1.404   3.385  13.961 -1.8409  0.5705  1.2487
 1661TIP3    H226399   1.519   3.479  13.992 -0.2863 -0.0008 -2.3171
 1662TIP3   OH226400   1.865   3.212   3.157  0.4846  0.0125 -0.2023
 1662TIP3    H126401   1.891   3.260   3.236 -0.2728 -0.3098  0.2528
 1662TIP3    H226402   1.828   3.130   3.190 -1.3731  0.5700 -0.7834
 1663TIP3   OH226403   0.665   4.792  16.229  0.9164  0.5580 -0.2413
 1663TIP3    H126404   0.755   4.790  16.196  0.7380 -0.3304 -0.7173
 1663TIP3    H226405   0.654   4.707  16.272  0.5491  0.9712  0.5040
 1664TIP3   OH226406   3.599   3.023  14.844 -0.3430  0.0153 -1.0273
 1664TIP3    H126407   3.606   2.930  14.868 -1.5622  0.1041 -0.2533
 1664TIP3    H226408   3.513   3.050  14.876  0.2941  1.6168 -0.5787
 1665TIP3   OH226409   0.535   5.316   5.829 -0.5956  0.3583  0.4741
 1665TIP3    H126410   0.601   5.258   5.791 -0.2720  0.7902  0.3693
 1665TIP3    H226411   0.480   5.258   5.882 -0.0802  0.0030  0.6322
 1666TIP3   OH226412   0.339   0.505  15.333  0.2545  0.1054  0.1724
 1666TIP3    H126413   0.426   0.543  15.340  0.6371 -1.0538  3.7645
 1666TIP3    H226414   0.285   0.557  15.393 -0.6189 -1.2757  0.6505
 1667TIP3   OH226415   4.296   1.087  17.276  0.0380  0.5545  0.3354
 1667TIP3    H126416   4.280   1.061  17.185 -2.2103  1.5079  0.4059
 1667TIP3    H226417   4.371   1.148  17.270  1.6513 -1.3907 -0.4842
 1668TIP3   OH226418   3.268   4.147   0.078 -0.2442  0.1635 -0.7416
 1668TIP3    H126419   3.310   4.061   0.086 -0.0590  0.3672  0.6082
 1668TIP3    H226420   3.292   4.177  -0.010  1.3651 -0.2897 -0.4953
 1669TIP3   OH226421   2.195   4.769  13.806 -0.1672 -0.7828  0.0705
 1669TIP3    H126422   2.173   4.762  13.899  0.6490 -0.4404  0.3010
 1669TIP3    H226423   2.224   4.860  13.795 -1.5082 -0.4411 -0.8085
 1670TIP3   OH226424   3.821   3.882   5.794  0.2573 -0.2488  0.2241
 1670TIP3    H126425   3.759   3.912   5.727 -0.5820 -0.7270  0.7787
 1670TIP3    H226426   3.864   3.963   5.823 -0.1730  0.1046 -0.0951
 1671TIP3   OH226427   6.687   2.634  17.028 -0.6943 -0.5914 -0.1087
 1671TIP3    H126428   6.756   2.587  16.981 -1.8014 -1.0538 -1.3345
 1671TIP3    H226429   6.641   2.567  17.077 -2.2916 -0.8534 -1.8753
 1672TIP3   OH226430   2.711   5.738   3.839 -0.3774 -0.2568  0.1027
 1672TIP3    H126431   2.737   5.691   3.760  0.3669  0.5800 -0.1662
 1672TIP3    H226432   2.644   5.799   3.809 -1.7117 -1.4352  0.5415
 1673TIP3   OH226433   5.362   0.984  13.409 -0.0718  0.6709  0.0953
 1673TIP3    H126434   5.420   0.920  13.368 -0.5121  1.0472 -1.1719
 1673TIP3    H226435   5.421   1.053  13.441  0.3564 -0.0978  0.9725
 1674TIP3   OH226436   5.489   1.180   3.839  0.1136  0.6626 -0.7298
 1674TIP3    H126437   5.421   1.113   3.845  0.0325  0.6757 -1.3728
 1674TIP3    H226438   5.561   1.146   3.892 -0.2354  0.4541 -0.3828
 1675TIP3   OH226439   3.928   0.749  12.774  0.1076  0.3667 -0.3345
 1675TIP3    H126440   3.938   0.655  12.786  0.7748  0.5754  0.9902
 1675TIP3    H226441   3.945   0.786  12.861 -0.3110  1.6961 -0.7891
 1676TIP3   OH226442   0.956   2.397   1.047 -1.0677 -0.1721  0.0907
 1676TIP3    H126443   0.926   2.309   1.068 -1.1885  0.5088  3.1923
 1676TIP3    H226444   1.045   2.385   1.015 -0.1192 -1.3175  2.8785
 1677TIP3   OH226445   3.632   1.926   5.480 -0.2039  0.2755 -0.1531
 1677TIP3    H126446   3.542   1.910   5.450 -1.0322 -1.9920  3.0392
 1677TIP3    H226447   3.678   1.844   5.462  0.9604  1.0220 -0.7051
 1678TIP3   OH226448   4.545   2.153   1.970  0.6885 -0.1250  0.0422
 1678TIP3    H126449   4.573   2.121   2.056 -0.9039 -0.6645  0.4073
 1678TIP3    H226450   4.468   2.207   1.989 -0.2866 -1.0479 -1.0907
 1679TIP3   OH226451   1.454   1.011  15.341 -0.2666 -0.2129  0.6902
 1679TIP3    H126452   1.437   0.938  15.280  0.4610 -0.9328  1.3357
 1679TIP3    H226453   1.497   0.970  15.416  0.6608  0.9710  0.8278
 1680TIP3   OH226454   4.694   0.551   0.168 -0.7572 -0.4337 -0.0311
 1680TIP3    H126455   4.716   0.467   0.128 -3.0471 -0.7271 -0.8042
 1680TIP3    H226456   4.717   0.616   0.101 -0.9126 -0.6208 -0.2699
 1681TIP3   OH226457   3.735   3.099  10.715 -0.0263  0.0961 -0.1494
 1681TIP3    H126458   3.707   3.098  10.624 -3.2082  0.7524  0.6705
 1681TIP3    H226459   3.703   3.017  10.751  2.0066 -0.5827  0.2424
 1682TIP3   OH226460   0.936   6.415  12.986 -0.0822 -0.0415  0.3950
 1682TIP3    H126461   0.965   6.497  12.945  0.0967 -1.0048 -1.5333
 1682TIP3    H226462   1.011   6.387  13.039 -0.8642  2.0121  2.8001
 1683TIP3   OH226463   3.308   0.932   1.888  0.0633 -0.0277 -0.1515
 1683TIP3    H126464   3.299   1.004   1.951 -2.9785  0.0271 -0.4920
 1683TIP3    H226465   3.245   0.867   1.918 -0.1019 -0.8185 -2.0847
 1684TIP3   OH226466   6.678   6.703  16.370  0.1528 -0.1020 -0.0520
 1684TIP3    H126467   6.715   6.634  16.427 -0.7725 -1.5343 -1.1185
 1684TIP3    H226468   6.639   6.766  16.431  1.3022 -0.3288  0.9672
 1685TIP3   OH226469   0.183   2.918   5.727 -0.4001  0.4491  0.0314
 1685TIP3    H126470   0.165   3.001   5.771 -0.9106  0.9374 -1.0548
 1685TIP3    H226471   0.271   2.894   5.756 -0.4794  1.0695  0.8109
 1686TIP3   OH226472   0.145   4.844  11.628 -0.1247 -0.1455 -0.1939
 1686TIP3    H126473   0.065   4.855  11.578 -1.1426 -0.8954  1.1902
 1686TIP3    H226474   0.166   4.931  11.662  0.6104  0.3802 -1.9005
 1687TIP3   OH226475   1.206   1.429   3.879 -0.5627  0.2247  0.3380
 1687TIP3    H126476   1.176   1.365   3.814 -1.1287  0.0810  0.7379
 1687TIP3    H226477   1.253   1.376   3.944  1.0441  0.4982 -0.5337
 1688TIP3   OH226478   1.188   3.367  12.360 -0.2044  0.1838 -0.0143
 1688TIP3    H126479   1.128   3.344  12.431  0.2307  1.7319  0.9036
 1688TIP3    H226480   1.273   3.335  12.389 -0.0394  0.7540  0.1527
 1689TIP3   OH226481   2.183   3.410  12.401  0.3730 -0.6080 -0.3182
 1689TIP3    H126482   2.158   3.319  12.416 -0.9701 -0.3230 -0.6958
 1689TIP3    H226483   2.106   3.461  12.429  1.3020  0.4546  0.4272
 1690TIP3   OH226484   1.139   6.753   5.902 -0.4393  0.0699 -0.0575
 1690TIP3    H126485   1.093   6.715   5.827 -0.6239  0.4842 -0.1572
 1690TIP3    H226486   1.114   6.845   5.901 -0.3470  0.1010  0.4476
 1691TIP3   OH226487   3.942   2.660  16.597  0.0079  0.5295  0.3806
 1691TIP3    H126488   3.901   2.596  16.655 -2.2720  1.2764 -0.2885
 1691TIP3    H226489   3.951   2.739  16.650  0.1847  0.4895  0.4085
 1692TIP3   OH226490   4.432   4.156   5.417 -0.1242 -0.1320 -0.0180
 1692TIP3    H126491   4.443   4.214   5.493  0.7111 -2.3805  1.7123
 1692TIP3    H226492   4.393   4.077   5.454  0.1074 -1.2276 -2.0059
 1693TIP3   OH226493   3.918   1.046   5.930  0.0084 -0.0663  0.7909
 1693TIP3    H126494   3.829   1.014   5.919 -0.4729  0.0542  3.6345
 1693TIP3    H226495   3.913   1.140   5.910 -0.7757  0.1627  1.9791
 1694TIP3   OH226496   6.415   3.148  12.369 -0.5804 -0.4137  0.6890
 1694TIP3    H126497   6.484   3.150  12.435  0.0044  1.5385  0.0932
 1694TIP3    H226498   6.357   3.221  12.392 -1.2997 -0.7546  0.0022
 1695TIP3   OH226499   5.733   5.580  12.786  0.2475  0.2002 -0.1270
 1695TIP3    H126500   5.712   5.647  12.721 -0.7620 -1.7803 -1.9436
 1695TIP3    H226501   5.770   5.508  12.735  0.4427 -1.0162  1.6511
 1696TIP3   OH226502   5.235   6.499  15.573  0.0365  0.2012 -0.2071
 1696TIP3    H126503   5.307   6.442  15.600 -1.1845 -1.4865 -0.3215
 1696TIP3    H226504   5.187   6.517  15.655 -0.1796  0.1774 -0.3262
 1697TIP3   OH226505   3.359   2.007  13.310  0.0275 -0.2270  0.1188
 1697TIP3    H126506   3.325   1.982  13.224  2.7853  0.0275 -1.1296
 1697TIP3    H226507   3.400   1.927  13.344  0.9382  0.2595  0.1797
 1698TIP3   OH226508   0.422   4.727  15.523  0.0302  0.5339 -0.1226
 1698TIP3    H126509   0.478   4.804  15.514  0.5639  0.0577 -1.1192
 1698TIP3    H226510   0.464   4.661  15.468 -1.4197  0.1053 -0.7545
 1699TIP3   OH226511   1.162   6.302   0.504 -0.0677  0.4294  0.1281
 1699TIP3    H126512   1.181   6.287   0.412 -0.3950  1.4319 -0.1175
 1699TIP3    H226513   1.074   6.341   0.505 -0.4890 -0.4787  0.9389
 1700TIP3   OH226514   2.322   3.257  10.745 -0.2267 -0.1977 -0.4603
 1700TIP3    H126515   2.364   3.341  10.729 -0.7597  0.0951 -0.3407
 1700TIP3    H226516   2.246   3.278  10.799  0.2451 -0.8834  0.4969
 1701TIP3   OH226517   2.607   6.099   6.249 -0.3646 -0.0485 -0.4513
 1701TIP3    H126518   2.547   6.096   6.323 -0.4662 -1.4598 -0.5578
 1701TIP3    H226519   2.596   6.187   6.212 -2.4410 -0.3005 -0.5341
 1702TIP3   OH226520   1.900   2.463  13.875 -0.3694  0.5095  0.0541
 1702TIP3    H126521   1.895   2.475  13.780 -1.1454 -1.4499 -0.1775
 1702TIP3    H226522   1.809   2.462  13.904 -0.2356 -1.3146  0.4731
 1703TIP3   OH226523   5.783   3.147  15.839  0.3591  0.6332 -0.1685
 1703TIP3    H126524   5.754   3.213  15.775 -1.9204  0.2223  0.3336
 1703TIP3    H226525   5.772   3.190  15.924  2.8962  1.0039  0.0538
 1704TIP3   OH226526   4.530   0.371   2.746 -0.6336 -0.0240 -0.2750
 1704TIP3    H126527   4.524   0.348   2.654 -0.7695 -2.0824  0.1924
 1704TIP3    H226528   4.545   0.466   2.747  0.4672 -0.1284 -2.4265
 1705TIP3   OH226529   2.811   2.480   1.321 -0.0094  0.6265 -0.5136
 1705TIP3    H126530   2.852   2.418   1.381 -0.7071  2.3725  1.9144
 1705TIP3    H226531   2.859   2.469   1.239  0.0852 -2.8311 -0.1511
 1706TIP3   OH226532   2.331   4.765   5.749  0.0878  0.3387 -0.3656
 1706TIP3    H126533   2.323   4.809   5.665 -1.4620 -0.3919 -0.6303
 1706TIP3    H226534   2.298   4.827   5.813  1.3833  0.9428 -0.2546
 1707TIP3   OH226535   1.260   0.564  11.432  0.4967 -0.2551 -0.1832
 1707TIP3    H126536   1.344   0.575  11.388  0.5763 -1.5898 -0.4101
 1707TIP3    H226537   1.207   0.515  11.369 -0.7344  1.2670 -0.3788
 1708TIP3   OH226538   5.356   3.571   3.745 -0.4930 -0.6146  0.5472
 1708TIP3    H126539   5.431   3.609   3.700 -0.2462  0.7132  2.0115
 1708TIP3    H226540   5.354   3.480   3.715  0.6189 -0.2132 -0.8612
 1709TIP3   OH226541   5.478   6.045   1.284  0.3574 -0.1765 -0.6560
 1709TIP3    H126542   5.525   6.114   1.329 -0.5422 -0.0668  0.1613
 1709TIP3    H226543   5.536   6.017   1.214  2.2460 -1.0075  1.1281
 1710TIP3   OH226544   4.603   5.879  13.911  0.2667  0.1691  0.1087
 1710TIP3    H126545   4.555   5.797  13.897  0.4249  0.1686 -0.4311
 1710TIP3    H226546   4.534   5.945  13.921  0.1528  0.1880 -0.7843
 1711TIP3   OH226547   2.578   0.965   2.072 -0.2802 -0.4183 -0.0487
 1711TIP3    H126548   2.520   0.901   2.114  0.0413 -0.6112  0.0985
 1711TIP3    H226549   2.567   0.948   1.979  1.6589 -2.3787 -0.0136
 1712TIP3   OH226550   5.174   2.239  10.677  0.5554 -0.2035  0.0817
 1712TIP3    H126551   5.203   2.325  10.647 -0.2048  0.5376  1.3623
 1712TIP3    H226552   5.111   2.211  10.611 -0.4530  1.0051  0.4735
 1713TIP3   OH226553   4.616   0.182  15.215  0.0355 -0.0145  0.0508
 1713TIP3    H126554   4.578   0.269  15.223  0.9914  0.4404 -0.2364
 1713TIP3    H226555   4.671   0.173  15.293 -2.1128 -1.4473  1.5194
 1714TIP3   OH226556   3.748   0.366  13.319 -0.1890 -0.7822 -0.2382
 1714TIP3    H126557   3.792   0.363  13.234 -0.2817  1.3898 -0.4238
 1714TIP3    H226558   3.670   0.313  13.307 -1.0113  0.6929 -2.0554
 1715TIP3   OH226559   3.623   0.984   0.203  0.4319  0.4810 -0.4855
 1715TIP3    H126560   3.704   0.970   0.251  1.6539  0.7590 -2.3529
 1715TIP3    H226561   3.555   0.946   0.259  1.7745  0.5741  1.3012
 1716TIP3   OH226562   5.481   0.922   5.136 -0.2071 -1.0596  0.3410
 1716TIP3    H126563   5.396   0.948   5.100  0.7723 -0.7502 -1.8906
 1716TIP3    H226564   5.467   0.833   5.169 -1.5752 -0.7186  0.7254
 1717TIP3   OH226565   4.468   3.755   1.992  0.1474 -0.2694 -0.1302
 1717TIP3    H126566   4.385   3.733   1.949  1.3686 -1.2007 -2.1465
 1717TIP3    H226567   4.482   3.847   1.969 -0.4028 -0.0436  0.3979
 1718TIP3   OH226568   1.334   6.746   2.729 -0.3821  0.2473 -0.0062
 1718TIP3    H126569   1.286   6.743   2.646 -0.4470 -0.9712  0.0638
 1718TIP3    H226570   1.424   6.768   2.704 -0.4542  0.1284 -0.3725
 1719TIP3   OH226571   1.093   4.419   0.673 -0.2295  0.5058 -0.2136
 1719TIP3    H126572   1.151   4.350   0.704 -0.5186  0.6731  0.7446
 1719TIP3    H226573   1.146   4.499   0.673 -0.2972  0.5538  0.1214
 1720TIP3   OH226574   6.240   0.961  16.743 -0.3279 -0.4826 -0.0508
 1720TIP3    H126575   6.239   0.867  16.760  0.0167 -0.5457 -0.3715
 1720TIP3    H226576   6.196   0.999  16.819 -0.8180 -0.9317 -0.1054
 1721TIP3   OH226577   3.144   6.643  11.689 -0.6562 -0.6835 -0.0369
 1721TIP3    H126578   3.082   6.716  11.680 -0.8674 -0.7608  0.7552
 1721TIP3    H226579   3.172   6.646  11.780  0.9265 -0.3315 -0.4995
 1722TIP3   OH226580   3.559   3.989   6.404  0.6660 -0.6492 -0.3500
 1722TIP3    H126581   3.472   3.967   6.437 -0.4535  0.9043 -2.0528
 1722TIP3    H226582   3.570   3.935   6.326  1.2779 -0.9017 -0.0963
 1723TIP3   OH226583   5.223   2.557   4.076 -0.6653  0.0640  0.8808
 1723TIP3    H126584   5.280   2.518   4.141 -1.0652 -0.2478  1.0475
 1723TIP3    H226585   5.277   2.625   4.035  0.0312 -0.6298  0.6075
 1724TIP3   OH226586   2.105   4.182  16.280 -0.5310 -0.3208  0.3596
 1724TIP3    H126587   2.129   4.209  16.368  0.8712 -0.7800  0.1373
 1724TIP3    H226588   2.128   4.089  16.275  2.1283  0.3318 -1.3429
 1725TIP3   OH226589   1.362   5.350   0.092 -0.0177  0.1702  0.5253
 1725TIP3    H126590   1.384   5.431   0.137 -1.1509  1.3625 -0.9745
 1725TIP3    H226591   1.286   5.316   0.139 -0.2027  0.5475  0.4974
 1726TIP3   OH226592   2.765   3.619  16.981  0.1092 -0.0373 -0.9726
 1726TIP3    H126593   2.725   3.571  17.054  0.4499 -1.1146 -1.4787
 1726TIP3    H226594   2.857   3.626  17.005 -0.0443  0.9163 -0.6213
 1727TIP3   OH226595   6.747   4.879   1.546 -0.5696 -0.5467 -0.8869
 1727TIP3    H126596   6.752   4.866   1.640  0.8735 -3.2736 -1.2458
 1727TIP3    H226597   6.666   4.835   1.520  0.1832 -1.8554 -1.1295
 1728TIP3   OH226598   0.432   6.270  11.706  0.0830 -0.1843  0.2707
 1728TIP3    H126599   0.368   6.342  11.710  0.8789  0.5194  0.8408
 1728TIP3    H226600   0.449   6.258  11.613 -0.0352  0.4021  0.1674
 1729TIP3   OH226601   0.720   2.465  13.048  0.5875 -0.2424  0.5543
 1729TIP3    H126602   0.720   2.385  12.996 -1.5230 -1.2751  1.9676
 1729TIP3    H226603   0.730   2.536  12.984 -2.5273 -1.3870 -1.4546
 1730TIP3   OH226604   2.566   3.636   0.672 -0.2491  0.0953  0.2556
 1730TIP3    H126605   2.612   3.706   0.717  0.9698 -0.1360 -0.5928
 1730TIP3    H226606   2.582   3.653   0.579 -2.2499  0.2611 -0.1191
 1731TIP3   OH226607   2.466   1.675  16.405  0.1328 -0.5148 -0.0097
 1731TIP3    H126608   2.533   1.719  16.457 -0.0867 -1.1203  0.7981
 1731TIP3    H226609   2.451   1.734  16.331 -2.1267  2.2191  2.3902
 1732TIP3   OH226610   5.424   5.048  12.726  0.2818 -0.0732 -0.0884
 1732TIP3    H126611   5.519   5.062  12.728 -0.0842  3.2676 -0.0668
 1732TIP3    H226612   5.390   5.103  12.797 -1.7318 -1.0506 -0.2043
 1733TIP3   OH226613   2.085   6.713   4.601  0.0191 -0.5546  0.3489
 1733TIP3    H126614   2.005   6.737   4.647 -0.6756 -2.4773  0.2382
 1733TIP3    H226615   2.093   6.778   4.531 -0.7031  0.4457  1.1628
 1734TIP3   OH226616   5.959   0.069   5.373 -0.3427  0.5920 -0.3233
 1734TIP3    H126617   6.045   0.087   5.334 -0.9257  2.0759 -0.9884
 1734TIP3    H226618   5.896   0.103   5.310 -1.4173  0.1846  0.4922
 1735TIP3   OH226619   5.544   1.994  16.267  0.0186  0.6082  0.3416
 1735TIP3    H126620   5.557   2.053  16.341  0.0993 -1.4191  2.0352
 1735TIP3    H226621   5.486   1.925  16.300 -1.3447  0.4856 -2.0107
 1736TIP3   OH226622   1.439   6.690  11.968 -0.5925  0.4084 -0.3916
 1736TIP3    H126623   1.505   6.730  11.913 -0.6458 -0.3130 -0.9909
 1736TIP3    H226624   1.357   6.731  11.941 -1.1256 -2.1249 -3.1409
 1737TIP3   OH226625   5.110   1.983  16.828 -0.1227  0.0784 -0.2521
 1737TIP3    H126626   5.100   1.908  16.770 -0.1839 -0.1619  0.0694
 1737TIP3    H226627   5.119   1.945  16.915  1.5204  0.3555 -0.2704
 1738TIP3   OH226628   5.041   2.705   4.412  0.2278 -0.5869 -0.2251
 1738TIP3    H126629   4.952   2.722   4.381 -0.4062  0.1083  1.8156
 1738TIP3    H226630   5.033   2.626   4.466  1.0115 -0.9539 -0.6286
 1739TIP3   OH226631   5.218   2.951   5.205 -0.1141  0.1213  0.2592
 1739TIP3    H126632   5.236   2.900   5.125 -1.8614  0.9267 -0.7075
 1739TIP3    H226633   5.122   2.952   5.211 -0.0562  1.6025  1.3746
 1740TIP3   OH226634   0.418   6.610  16.954  0.1814  0.1238  0.1047
 1740TIP3    H126635   0.333   6.636  16.988  0.7947 -0.2182  2.0641
 1740TIP3    H226636   0.437   6.527  16.998  0.9528 -0.4776 -1.3042
 1741TIP3   OH226637   4.858   0.207   3.504  0.5797  0.6348  0.5782
 1741TIP3    H126638   4.763   0.208   3.496  0.6774  0.5214 -0.9295
 1741TIP3    H226639   4.876   0.157   3.583 -0.5582 -1.4285 -0.3930
 1742TIP3   OH226640   2.492   1.036  16.178 -0.0152 -0.3444  0.5935
 1742TIP3    H126641   2.423   0.970  16.182  0.4893 -1.0955 -1.5663
 1742TIP3    H226642   2.573   0.987  16.196  0.2421 -0.0841  0.1737
 1743TIP3   OH226643   6.579   5.056   5.603 -0.0977  0.4558 -0.3923
 1743TIP3    H126644   6.514   5.112   5.646  0.8874  2.8587 -1.8172
 1743TIP3    H226645   6.533   5.019   5.527 -0.9000 -1.1795  0.8362
 1744TIP3   OH226646   3.905   4.807   5.878  0.2680  0.2843 -0.1461
 1744TIP3    H126647   3.979   4.833   5.824 -1.0209  1.4474 -1.4286
 1744TIP3    H226648   3.866   4.733   5.832  1.0021 -0.7831  0.8913
 1745TIP3   OH226649   6.621   3.257  16.496 -0.2401 -0.1069 -0.9448
 1745TIP3    H126650   6.528   3.238  16.492  0.1364 -2.1101 -0.9720
 1745TIP3    H226651   6.636   3.320  16.426 -1.2156 -1.4315 -2.3975
 1746TIP3   OH226652   1.748   4.405   2.074 -0.0457  0.3698  0.1274
 1746TIP3    H126653   1.667   4.455   2.062 -0.8901 -0.7202  1.1083
 1746TIP3    H226654   1.787   4.441   2.153 -1.8260 -1.9124  2.2070
 1747TIP3   OH226655   2.139   0.138  14.487  0.2958  0.5148  0.7136
 1747TIP3    H126656   2.121   0.226  14.453 -1.8416  0.1673  0.8297
 1747TIP3    H226657   2.137   0.148  14.582 -0.2115  0.2988  0.7271
 1748TIP3   OH226658   4.448   3.038  13.573 -0.3725 -0.3471 -1.0308
 1748TIP3    H126659   4.502   3.063  13.647 -2.3736  1.8449 -0.2200
 1748TIP3    H226660   4.410   3.120  13.541 -0.9443 -1.4424 -3.3972
 1749TIP3   OH226661   5.619   0.526  15.579  0.0399 -0.3009 -0.3242
 1749TIP3    H126662   5.563   0.449  15.570  0.5752 -0.6580 -0.7304
 1749TIP3    H226663   5.596   0.564  15.664 -0.1548 -0.9777 -0.0692
 1750TIP3   OH226664   4.432   4.567   5.484 -0.1009 -0.3862  0.3180
 1750TIP3    H126665   4.501   4.558   5.418 -0.8545  1.1261 -0.7410
 1750TIP3    H226666   4.477   4.603   5.560  1.1114 -3.7068  1.3375
 1751TIP3   OH226667   2.116   1.195   4.852  0.1796 -0.7452 -0.6229
 1751TIP3    H126668   2.080   1.128   4.794  2.2151 -2.9115  0.4662
 1751TIP3    H226669   2.067   1.187   4.933 -0.2060 -0.2268 -0.7961
 1752TIP3   OH226670   4.236   0.696   3.260  0.1117  0.7176 -0.3803
 1752TIP3    H126671   4.327   0.686   3.289  0.5869  1.9385 -1.3610
 1752TIP3    H226672   4.213   0.785   3.284 -0.2411  0.9866 -1.6232
 1753TIP3   OH226673   4.571   0.844   3.976 -0.3480 -0.3579  0.6502
 1753TIP3    H126674   4.629   0.893   4.034 -0.5337  0.6526  0.0103
 1753TIP3    H226675   4.604   0.754   3.978 -0.3553 -0.3512  2.3110
 1754TIP3   OH226676   3.773   0.941  14.808 -0.6624 -0.4373  0.1190
 1754TIP3    H126677   3.837   0.896  14.752  0.9920  0.1105  1.5049
 1754TIP3    H226678   3.713   0.872  14.835 -1.2174 -0.8139 -1.8810
 1755TIP3   OH226679   2.494   3.646   0.051 -0.5669  0.2228 -0.1614
 1755TIP3    H126680   2.405   3.679   0.068 -0.5487  0.6324 -0.8366
 1755TIP3    H226681   2.486   3.598  -0.031 -0.6414 -1.7041  0.9173
 1756TIP3   OH226682   0.267   2.027  15.651  0.2052 -0.1076  0.1066
 1756TIP3    H126683   0.199   2.012  15.585  1.0226 -1.1981 -0.5299
 1756TIP3    H226684   0.349   2.001  15.607  1.6730  4.7383 -0.5575
 1757TIP3   OH226685   1.772   5.879   0.246  0.5349 -0.0764  0.5972
 1757TIP3    H126686   1.845   5.844   0.195  0.1573  0.7062 -0.5337
 1757TIP3    H226687   1.695   5.834   0.212  0.3536 -0.0217  0.9324
 1758TIP3   OH226688   0.504   6.336  12.220 -0.2228  0.4336 -0.1410
 1758TIP3    H126689   0.410   6.318  12.231  0.0837 -0.6856  0.7640
 1758TIP3    H226690   0.531   6.281  12.146  0.2602 -1.3310  1.2855
 1759TIP3   OH226691   6.202   4.041   5.840  0.2933 -0.7079  0.2834
 1759TIP3    H126692   6.283   4.055   5.889  0.1619  1.5381 -0.0346
 1759TIP3    H226693   6.155   3.974   5.889  0.9368  0.2300  2.2736
 1760TIP3   OH226694   0.012   4.492  12.823  0.7348  0.0425  0.1109
 1760TIP3    H126695   0.012   4.551  12.747  2.2187 -0.4431 -0.2919
 1760TIP3    H226696   0.074   4.531  12.884  0.5709 -0.2956  0.4950
 1761TIP3   OH226697   2.511   4.731   2.041 -0.5018  0.0316 -0.7439
 1761TIP3    H126698   2.472   4.654   2.083  0.3583  0.4807  0.9730
 1761TIP3    H226699   2.474   4.731   1.952 -1.4837 -1.6356 -0.3874
 1762TIP3   OH226700   3.047   0.141  13.594 -0.4402 -0.4572  0.4250
 1762TIP3    H126701   2.952   0.132  13.596 -0.3640 -1.1590  2.2778
 1762TIP3    H226702   3.069   0.140  13.501 -2.4329  2.1853 -0.2030
 1763TIP3   OH226703   2.040   5.831  10.754  0.4071 -0.7379 -0.0215
 1763TIP3    H126704   2.131   5.859  10.763  0.6846 -1.7307  0.4018
 1763TIP3    H226705   2.041   5.737  10.774 -0.4932 -1.0635 -1.3281
 1764TIP3   OH226706   6.462   5.178   1.128  0.3228 -0.2342  0.1960
 1764TIP3    H126707   6.436   5.099   1.175 -0.1928  0.6509  1.4576
 1764TIP3    H226708   6.513   5.228   1.192 -1.6448  1.6842  0.3770
 1765TIP3   OH226709   0.535   3.183   6.066 -0.3165  0.2961 -0.8975
 1765TIP3    H126710   0.495   3.269   6.073 -1.4488 -0.1249 -1.9707
 1765TIP3    H226711   0.609   3.196   6.006  1.4788  1.1410  1.3402
 1766TIP3   OH226712   6.320   1.261  16.707  0.2714  0.3210 -1.2866
 1766TIP3    H126713   6.227   1.275  16.693 -0.1349  1.3745  1.7311
 1766TIP3    H226714   6.350   1.339  16.753  2.4537 -0.3869 -1.3690
 1767TIP3   OH226715   6.422   1.159   2.046 -0.1637 -0.1107 -0.8009
 1767TIP3    H126716   6.336   1.189   2.017  0.4133  1.2151 -1.2026
 1767TIP3    H226717   6.424   1.066   2.023 -2.1284 -0.5950  0.7631
 1768TIP3   OH226718   5.278   1.924  12.385 -0.7111 -0.0059  0.6582
 1768TIP3    H126719   5.195   1.968  12.364 -2.0914 -3.0195 -0.6839
 1768TIP3    H226720   5.264   1.887  12.472 -0.8751 -0.7158  0.3329
 1769TIP3   OH226721   1.810   2.199   2.823 -0.1180 -0.7563 -0.1202
 1769TIP3    H126722   1.862   2.145   2.764 -0.1873 -0.0721 -0.8393
 1769TIP3    H226723   1.873   2.236   2.884  0.1368 -0.5498 -0.5010
 1770TIP3   OH226724   2.147   0.205  16.906  0.3581  0.7834  0.4083
 1770TIP3    H126725   2.197   0.255  16.971  1.5231  0.3466 -0.1312
 1770TIP3    H226726   2.162   0.114  16.930 -0.1148  0.6407  0.1741
 1771TIP3   OH226727   0.123   5.215  13.142 -0.6204  0.0418  0.3890
 1771TIP3    H126728   0.063   5.159  13.191 -0.4397  0.7554  1.4499
 1771TIP3    H226729   0.088   5.303  13.152 -1.0220  0.1412 -1.4379
 1772TIP3   OH226730   5.396   0.953  17.082 -0.2448 -0.2544 -0.4956
 1772TIP3    H126731   5.395   0.925  16.990  0.3559  0.4247 -0.7165
 1772TIP3    H226732   5.304   0.964  17.104 -0.4114 -0.7114 -0.9272
 1773TIP3   OH226733   3.190   4.861   2.731  0.0184  0.0902 -1.1174
 1773TIP3    H126734   3.152   4.906   2.656 -0.3630  0.0554 -0.9486
 1773TIP3    H226735   3.284   4.858   2.713 -0.1131 -0.2345 -1.7530
 1774TIP3   OH226736   3.138   1.173   5.050  0.2467 -0.0507 -0.1891
 1774TIP3    H126737   3.206   1.168   4.982  0.4318 -2.3074  0.0942
 1774TIP3    H226738   3.182   1.145   5.130 -0.5366  0.4434  0.4336
 1775TIP3   OH226739   6.758   1.562  11.370 -0.3814 -0.5938  0.4439
 1775TIP3    H126740   6.685   1.624  11.374 -1.8238 -1.9242 -2.1760
 1775TIP3    H226741   6.813   1.594  11.299  0.1565 -1.0338  0.6530
 1776TIP3   OH226742   4.983   2.479   4.569  0.2883  0.6233 -0.2113
 1776TIP3    H126743   4.977   2.426   4.648  1.5567  0.4746 -0.1887
 1776TIP3    H226744   4.902   2.461   4.521 -0.9431  1.4195  1.4628
 1777TIP3   OH226745   3.429   3.194   1.331 -0.2478 -0.2087  0.4907
 1777TIP3    H126746   3.336   3.172   1.319 -0.7817  1.4286  1.2655
 1777TIP3    H226747   3.476   3.122   1.291 -1.8515 -1.7465  1.2408
 1778TIP3   OH226748   6.075   5.210  16.795  0.1330 -0.3204  0.1651
 1778TIP3    H126749   6.113   5.140  16.848  3.6249  0.6278 -0.8169
 1778TIP3    H226750   6.097   5.291  16.842  1.1775  0.3915 -1.4395
 1779TIP3   OH226751   5.034   1.387  11.545 -0.4657  0.0696  0.0990
 1779TIP3    H126752   5.041   1.392  11.640 -2.0125  1.4149  0.1794
 1779TIP3    H226753   5.119   1.353  11.516  0.0261 -0.3542  1.9440
 1780TIP3   OH226754   6.517   0.533   1.772 -0.1490 -0.7822 -0.4762
 1780TIP3    H126755   6.461   0.466   1.811 -1.1725 -0.0524 -0.6469
 1780TIP3    H226756   6.496   0.613   1.822  0.1566 -0.3292 -1.0638
 1781TIP3   OH226757   6.183   6.117  12.029  0.4651  0.0551 -0.1156
 1781TIP3    H126758   6.155   6.029  12.053 -0.1004 -0.3148 -2.0024
 1781TIP3    H226759   6.248   6.104  11.960 -0.4112  1.1143 -1.1829
 1782TIP3   OH226760   4.145   4.852  14.440  0.4510  0.6454  0.2862
 1782TIP3    H126761   4.093   4.869  14.518 -3.0412 -0.7097 -1.5470
 1782TIP3    H226762   4.184   4.766  14.455 -0.7373  0.0984  0.3337
 1783TIP3   OH226763   6.668   1.948   2.515 -0.3591 -0.2894 -0.5102
 1783TIP3    H126764   6.609   1.886   2.472 -0.5869 -0.9459  0.6843
 1783TIP3    H226765   6.755   1.923   2.486 -0.4000 -1.5393  0.3486
 1784TIP3   OH226766   0.722   0.245  11.323 -0.3144 -0.0662  1.1976
 1784TIP3    H126767   0.687   0.328  11.293 -0.7117 -0.9605 -0.9519
 1784TIP3    H226768   0.687   0.235  11.412 -2.9591  0.5413  0.3052
 1785TIP3   OH226769   1.673   4.874   5.802  0.1202  0.6284  0.2618
 1785TIP3    H126770   1.737   4.804   5.791 -0.8645 -0.4012  0.9383
 1785TIP3    H226771   1.724   4.955   5.794  1.3056 -0.1564 -0.3133
 1786TIP3   OH226772   4.791   2.879  14.362 -0.0194  0.1931 -0.4672
 1786TIP3    H126773   4.731   2.890  14.288  0.4291  1.1265 -0.7064
 1786TIP3    H226774   4.746   2.818  14.421 -0.7366  0.0717 -1.1309
 1787TIP3   OH226775   2.159   0.245  15.538 -0.4393 -0.9125  0.2238
 1787TIP3    H126776   2.069   0.261  15.511 -0.0842 -0.9672 -1.0583
 1787TIP3    H226777   2.212   0.299  15.479  0.2978  0.8736  2.3642
 1788TIP3   OH226778   2.808   2.227   3.824  0.3867  0.4444  0.6145
 1788TIP3    H126779   2.715   2.224   3.845  0.3564 -2.6392  0.4806
 1788TIP3    H226780   2.852   2.196   3.903  1.1507  0.0813  0.0587
 1789TIP3   OH226781   4.423   1.658   2.325 -0.4525 -0.3387 -0.0317
 1789TIP3    H126782   4.347   1.600   2.334 -1.6289  1.0197 -0.8579
 1789TIP3    H226783   4.450   1.649   2.234 -0.1673 -0.1292  0.0289
 1790TIP3   OH226784   3.305   2.327  12.555  0.5003 -0.1059  0.0972
 1790TIP3    H126785   3.241   2.383  12.512  0.7153  1.5753  1.7913
 1790TIP3    H226786   3.254   2.261  12.601  0.1222 -0.1451 -0.3808
 1791TIP3   OH226787   4.737   2.126  14.705 -0.7901 -0.2961  0.1302
 1791TIP3    H126788   4.732   2.120  14.609 -0.9636 -0.2873  0.1379
 1791TIP3    H226789   4.672   2.063  14.736 -1.1749  0.1458  0.2341
 1792TIP3   OH226790   4.259   0.463  15.757  1.1082  0.4487  0.2653
 1792TIP3    H126791   4.329   0.517  15.793  0.6214  1.8652 -0.7972
 1792TIP3    H226792   4.187   0.472  15.819  1.7917 -0.9081  1.2934
 1793TIP3   OH226793   4.187   6.612   1.243  0.0713 -0.1680  0.0156
 1793TIP3    H126794   4.206   6.684   1.183  0.7656  1.4847  2.0750
 1793TIP3    H226795   4.118   6.562   1.200  0.4802  0.9591 -2.0812
 1794TIP3   OH226796   5.807   6.171  12.284  0.1692 -0.0841  0.0260
 1794TIP3    H126797   5.782   6.136  12.199  0.0767  1.1371 -0.4725
 1794TIP3    H226798   5.760   6.116  12.347  0.7150 -1.3914 -0.6664
 1795TIP3   OH226799   0.075   0.481  12.794 -0.6947  0.6747 -0.0616
 1795TIP3    H126800   0.011   0.551  12.781 -0.5129  0.6885 -0.9493
 1795TIP3    H226801   0.067   0.458  12.887 -0.1185  2.4827  0.4773
 1796TIP3   OH226802   3.784   2.271  11.999  0.5676  0.3804 -0.4397
 1796TIP3    H126803   3.823   2.275  11.912  0.2464  0.4124 -0.5821
 1796TIP3    H226804   3.825   2.343  12.047  2.4470 -0.9834  0.1410
 1797TIP3   OH226805   1.075   4.500  10.670 -0.0907  1.0131 -0.4320
 1797TIP3    H126806   1.044   4.558  10.739 -0.3000  1.1924 -0.6772
 1797TIP3    H226807   1.049   4.543  10.589  0.0297  0.7329 -0.6198
 1798TIP3   OH226808   0.453   6.445   1.406 -0.1575 -0.2498  0.3461
 1798TIP3    H126809   0.395   6.390   1.353 -1.4764 -1.3813  2.7952
 1798TIP3    H226810   0.522   6.385   1.435 -0.3106 -0.0455  1.1464
 1799TIP3   OH226811   4.108   5.321   2.601  0.0908  0.2626  0.2823
 1799TIP3    H126812   4.169   5.315   2.674  0.8750  0.5976 -0.3272
 1799TIP3    H226813   4.136   5.398   2.552 -0.9979  0.5857  0.1320
 1800TIP3   OH226814   6.753   0.570   2.262 -0.5746 -0.0074  0.3669
 1800TIP3    H126815   6.799   0.567   2.346  0.6171  0.3609 -0.2542
 1800TIP3    H226816   6.798   0.506   2.207 -1.5634 -0.4937  0.0989
 1801TIP3   OH226817   4.919   2.287  15.300  0.3116 -0.1513  0.0723
 1801TIP3    H126818   5.001   2.266  15.345 -0.7854 -0.5411  1.9961
 1801TIP3    H226819   4.874   2.347  15.359 -1.1998 -0.6794 -0.4940
 1802TIP3   OH226820   1.794   6.131  11.432  0.6173 -0.1709  0.7998
 1802TIP3    H126821   1.769   6.194  11.499  1.7966  0.9203  0.2554
 1802TIP3    H226822   1.831   6.184  11.361  1.3765 -1.4435  0.1933
 1803TIP3   OH226823   1.540   3.503  13.036 -0.0899 -0.2457  0.2741
 1803TIP3    H126824   1.592   3.533  12.962 -0.3184  1.6472  0.8384
 1803TIP3    H226825   1.449   3.523  13.011 -0.3009 -0.9420  0.4645
 1804TIP3   OH226826   6.252   5.139   3.567 -0.2009 -0.2362  0.3838
 1804TIP3    H126827   6.191   5.084   3.616 -0.5772 -0.3442 -0.1923
 1804TIP3    H226828   6.296   5.192   3.634  0.2171 -1.2738  0.9542
 1805TIP3   OH226829   2.094   5.634  15.709  0.2517 -0.3517 -0.0418
 1805TIP3    H126830   2.033   5.560  15.709 -2.0373  1.4095 -0.6453
 1805TIP3    H226831   2.064   5.689  15.781  2.8631 -0.6543  1.3817
 1806TIP3   OH226832   5.520   0.754  11.173 -0.2081  0.4469 -0.4001
 1806TIP3    H126833   5.461   0.680  11.162  0.3974 -0.0931 -0.0938
 1806TIP3    H226834   5.476   0.811  11.236 -0.1873 -0.1888  0.2019
 1807TIP3   OH226835   4.434   3.599   6.509 -0.6807 -0.2465 -0.2856
 1807TIP3    H126836   4.509   3.611   6.451 -0.1548 -0.3054  0.3641
 1807TIP3    H226837   4.364   3.651   6.470  0.2513  1.3566  0.0841
 1808TIP3   OH226838   2.510   2.773   5.834  0.2685  0.3266 -0.3010
 1808TIP3    H126839   2.486   2.851   5.883 -1.6097  0.6862 -1.6433
 1808TIP3    H226840   2.476   2.790   5.746  0.2405 -1.8053 -0.7426
 1809TIP3   OH226841   2.957   5.579  12.152  0.4769  0.1916 -0.1961
 1809TIP3    H126842   2.886   5.534  12.197  1.7629  0.1474  1.8777
 1809TIP3    H226843   2.920   5.664  12.127 -0.9787 -0.7064 -1.2829
 1810TIP3   OH226844   0.926   6.134   3.529 -0.4358 -0.2538 -0.4442
 1810TIP3    H126845   0.991   6.089   3.475  1.4295 -0.1718  1.6125
 1810TIP3    H226846   0.881   6.193   3.468  0.6470 -1.1149 -2.1402
 1811TIP3   OH226847   5.124   5.319   0.039 -1.2886  0.1277 -0.3668
 1811TIP3    H126848   5.094   5.344   0.126 -4.9914 -0.4689 -1.3102
 1811TIP3    H226849   5.129   5.401  -0.010  0.2941  0.4041  0.2044
 1812TIP3   OH226850   1.753   5.322   6.826 -0.6002  0.0427  0.7323
 1812TIP3    H126851   1.686   5.292   6.765 -0.6017 -0.1760  0.8373
 1812TIP3    H226852   1.729   5.413   6.846 -1.6328 -0.4269  1.7796
 1813TIP3   OH226853   4.489   3.747   2.293 -0.2737 -0.4740 -0.8130
 1813TIP3    H126854   4.500   3.668   2.347  0.8661  0.5039  0.4210
 1813TIP3    H226855   4.482   3.713   2.203 -2.1390 -2.1321 -0.1159
 1814TIP3   OH226856   3.235   3.864   6.288 -0.0163 -0.4933  0.6437
 1814TIP3    H126857   3.245   3.769   6.282  0.5068 -0.4013 -0.1160
 1814TIP3    H226858   3.234   3.882   6.382 -0.2586 -1.2627  0.7921
 1815TIP3   OH226859   6.681   4.733  14.035  0.3857  0.4841  0.1134
 1815TIP3    H126860   6.624   4.663  14.003  1.1293  0.0689 -0.3493
 1815TIP3    H226861   6.637   4.767  14.113 -1.5107  1.5527 -1.3566
 1816TIP3   OH226862   6.085   5.283   2.155  0.4905 -0.5868  0.0393
 1816TIP3    H126863   6.113   5.204   2.110 -1.3551  0.7381 -3.9330
 1816TIP3    H226864   5.994   5.266   2.178  0.7388 -0.3658  1.2608
 1817TIP3   OH226865   5.745   2.698   0.723  0.5455 -0.0115  0.1143
 1817TIP3    H126866   5.835   2.707   0.695  0.3167 -0.9117 -0.9765
 1817TIP3    H226867   5.694   2.702   0.642 -0.2681 -0.9456  0.5645
 1818TIP3   OH226868   1.791   6.519   2.066  0.0217 -0.9086 -0.6499
 1818TIP3    H126869   1.783   6.574   1.988 -0.3123 -1.7389 -1.2217
 1818TIP3    H226870   1.771   6.430   2.035  1.0498 -1.4398  0.1379
 1819TIP3   OH226871   0.633   2.248   2.747 -0.6962  0.0315  0.3648
 1819TIP3    H126872   0.564   2.250   2.681 -0.2628  0.9289 -0.0784
 1819TIP3    H226873   0.708   2.290   2.704  0.8171 -2.7224  0.0680
 1820TIP3   OH226874   6.113   3.153   3.994 -0.3275  0.2065 -0.3464
 1820TIP3    H126875   6.133   3.246   3.986 -1.5039  0.5075 -0.0060
 1820TIP3    H226876   6.150   3.114   3.915  1.9183  0.6192  0.4395
 1821TIP3   OH226877   1.953   1.336   1.257 -0.2018 -0.4321 -0.6264
 1821TIP3    H126878   2.017   1.266   1.264 -0.8455 -0.9796 -0.0562
 1821TIP3    H226879   2.002   1.411   1.224  0.3991 -1.2807 -1.7325
 1822TIP3   OH226880   1.393   5.406   5.202  0.2366  0.2825 -0.1282
 1822TIP3    H126881   1.397   5.479   5.140 -0.0703  1.2983  1.0179
 1822TIP3    H226882   1.460   5.425   5.267  1.7480 -1.6630 -1.0203
 1823TIP3   OH226883   5.417   1.779   3.844  0.2471  0.1713  0.2267
 1823TIP3    H126884   5.457   1.866   3.849  2.5970 -0.9044  1.3798
 1823TIP3    H226885   5.389   1.760   3.934  0.6864 -0.6558  0.1990
 1824TIP3   OH226886   0.857   3.102  17.276  0.0760  0.2403  0.2017
 1824TIP3    H126887   0.898   3.019  17.254  0.6811  0.6386 -0.2017
 1824TIP3    H226888   0.796   3.120  17.205 -0.3183 -0.0275  0.4693
 1825TIP3   OH226889   0.333   6.726  14.001  0.4438  0.1037  0.0571
 1825TIP3    H126890   0.270   6.666  13.961  0.6560 -0.1283  0.0694
 1825TIP3    H226891   0.311   6.812  13.964  0.3607 -0.0366 -0.2245
 1826TIP3   OH226892   0.590   0.568  12.589 -0.2152 -0.2050  0.7532
 1826TIP3    H126893   0.679   0.552  12.621  0.7970 -0.6325 -1.9874
 1826TIP3    H226894   0.602   0.616  12.507 -2.6343  1.2219  1.1410
 1827TIP3   OH226895   1.597   3.138   1.704  0.4953 -0.0089 -0.1082
 1827TIP3    H126896   1.618   3.219   1.659  2.0037 -0.5636 -0.4722
 1827TIP3    H226897   1.665   3.077   1.676 -0.6171 -1.4143  0.1322
 1828TIP3   OH226898   4.908   3.126  15.659  0.7485  0.6694  0.2384
 1828TIP3    H126899   4.937   3.139  15.568  0.8511 -1.4745 -0.0902
 1828TIP3    H226900   4.882   3.213  15.689 -0.1709  1.2931 -2.1544
 1829TIP3   OH226901   3.704   2.762   0.271 -0.4400  0.2985  0.2878
 1829TIP3    H126902   3.743   2.786   0.355 -2.3861  0.0478  1.3262
 1829TIP3    H226903   3.768   2.790   0.206  0.9601  0.8449  1.8264
 1830TIP3   OH226904   4.927   2.711   4.760  0.1699 -0.0281 -0.2093
 1830TIP3    H126905   4.834   2.693   4.775  0.2153  1.0476  1.7825
 1830TIP3    H226906   4.967   2.625   4.746 -1.1465 -0.4794 -1.4126
 1831TIP3   OH226907   0.971   1.628  13.705 -0.1957  0.4346 -0.4784
 1831TIP3    H126908   0.907   1.574  13.751 -0.4775  0.5018 -0.7820
 1831TIP3    H226909   0.917   1.687  13.652  0.0967 -1.4110 -2.9826
 1832TIP3   OH226910   5.927   6.576   6.300  0.5902 -0.0074  0.7111
 1832TIP3    H126911   5.911   6.570   6.206  2.0993 -1.4667  0.5016
 1832TIP3    H226912   5.844   6.549   6.340 -0.0552  0.6003 -0.1694
 1833TIP3   OH226913   2.430   3.389  11.855 -0.3819  0.1689 -0.4635
 1833TIP3    H126914   2.375   3.353  11.925  0.0996 -2.1463 -1.1973
 1833TIP3    H226915   2.368   3.419  11.789 -0.8067  1.2798  0.4000
 1834TIP3   OH226916   3.143   1.979   4.487  0.0270  0.0488 -0.5604
 1834TIP3    H126917   3.078   1.908   4.482 -0.0029  0.0515 -0.2531
 1834TIP3    H226918   3.226   1.934   4.499 -0.0668  0.0789  0.2698
 1835TIP3   OH226919   3.610   3.984   0.176 -0.2621  0.4628  0.0748
 1835TIP3    H126920   3.562   4.025   0.248 -1.1571  2.9337 -1.7812
 1835TIP3    H226921   3.543   3.937   0.127  0.5129 -2.1004  1.3185
 1836TIP3   OH226922   1.506   0.617  13.211 -0.2115 -0.0688 -0.2886
 1836TIP3    H126923   1.553   0.700  13.209 -1.9549  1.1113  2.3909
 1836TIP3    H226924   1.422   0.636  13.170 -0.2027 -0.8595 -0.7053
 1837TIP3   OH226925   5.610   1.813  11.358  0.0779 -0.3283  0.1698
 1837TIP3    H126926   5.686   1.824  11.301  0.8459  0.7732  1.3219
 1837TIP3    H226927   5.578   1.726  11.339  1.2419 -0.5739 -0.8240
 1838TIP3   OH226928   6.225   2.290   1.024  0.9364 -0.3387  0.3953
 1838TIP3    H126929   6.257   2.375   0.994 -0.5147 -0.6674 -2.3651
 1838TIP3    H226930   6.132   2.304   1.044  0.7141 -1.2360  0.0456
 1839TIP3   OH226931   4.876   6.569  12.278  0.5708  0.7021 -0.5232
 1839TIP3    H126932   4.936   6.509  12.233  0.6468  1.4059 -1.3886
 1839TIP3    H226933   4.933   6.639  12.310  0.5702  0.0392  1.0213
 1840TIP3   OH226934   4.608   2.456   5.153 -0.0428 -0.0668  0.0856
 1840TIP3    H126935   4.626   2.472   5.060  1.5963 -2.3341 -0.0816
 1840TIP3    H226936   4.610   2.360   5.161  0.3177  0.0862  2.5353
 1841TIP3   OH226937   1.322   3.574   6.127  0.3312  0.1242 -0.0680
 1841TIP3    H126938   1.266   3.518   6.072  0.1329  0.5018 -0.2542
 1841TIP3    H226939   1.264   3.603   6.197  0.8641 -1.2494  0.9930
 1842TIP3   OH226940   4.274   5.739  12.453  0.1661  0.4073  0.4246
 1842TIP3    H126941   4.259   5.692  12.371 -1.5367  0.7079  0.5166
 1842TIP3    H226942   4.188   5.774  12.476  0.9072  1.5493  1.5985
 1843TIP3   OH226943   2.907   0.111   2.707 -0.3364 -0.0972 -0.2930
 1843TIP3    H126944   3.001   0.123   2.691 -0.3101  0.0691 -0.0200
 1843TIP3    H226945   2.873   0.079   2.624  0.0071 -0.4049 -0.3197
 1844TIP3   OH226946   1.039   6.208  10.843 -0.2361  0.6571 -1.0347
 1844TIP3    H126947   1.002   6.126  10.876 -1.6311  2.6203  2.7581
 1844TIP3    H226948   1.134   6.197  10.853 -0.4862  0.1449  1.3590
 1845TIP3   OH226949   3.334   4.328  11.955 -0.5169 -0.2318  0.9607
 1845TIP3    H126950   3.364   4.237  11.958 -0.1757 -0.2932 -1.9799
 1845TIP3    H226951   3.272   4.331  11.883 -1.1043  1.7505  1.4881
 1846TIP3   OH226952   5.550   3.516  14.846  1.2139 -0.1276  0.5634
 1846TIP3    H126953   5.510   3.487  14.928 -0.0459 -0.1970 -0.0378
 1846TIP3    H226954   5.521   3.607  14.837  1.9002  0.0892  0.5183
 1847TIP3   OH226955   5.959   0.978   1.135  1.0249 -0.5522 -0.4115
 1847TIP3    H126956   5.930   1.068   1.151  0.6460 -0.7867  0.2179
 1847TIP3    H226957   5.929   0.959   1.046 -1.3696 -1.0040  0.4038
 1848TIP3   OH226958   3.111   1.912  12.456  0.1368 -0.3274  0.4317
 1848TIP3    H126959   3.172   1.954  12.517  1.5459 -1.2783 -0.2596
 1848TIP3    H226960   3.062   1.984  12.417  1.8947  0.6387 -0.1201
 1849TIP3   OH226961   4.999   1.623   3.124 -0.1996  0.0621  0.0141
 1849TIP3    H126962   4.904   1.631   3.134  0.0389  1.2202  1.7457
 1849TIP3    H226963   5.012   1.602   3.031 -2.2130 -1.6090  0.0411
 1850TIP3   OH226964   4.224   1.537  11.714  0.2489  0.0888 -0.5266
 1850TIP3    H126965   4.274   1.604  11.760  0.7105 -0.7203  0.1699
 1850TIP3    H226966   4.254   1.454  11.751 -0.0616 -0.5340 -1.6126
 1851TIP3   OH226967   1.664   1.103  15.680 -0.0364  0.4434  0.5220
 1851TIP3    H126968   1.627   1.177  15.633 -1.0887  0.0805  0.7484
 1851TIP3    H226969   1.661   1.128  15.772  0.5980  0.5368  0.5231
 1852TIP3   OH226970   4.898   2.489  13.682  0.7726  0.1367  0.0732
 1852TIP3    H126971   4.882   2.478  13.776 -2.7255  0.1892 -0.3852
 1852TIP3    H226972   4.880   2.582  13.666 -0.5929 -0.2703 -0.9078
 1853TIP3   OH226973   5.660   4.120  12.043  0.1090  0.3520 -0.5024
 1853TIP3    H126974   5.703   4.036  12.029 -0.6758 -0.2578  0.6590
 1853TIP3    H226975   5.729   4.185  12.029  1.4365 -0.5940  1.2909
 1854TIP3   OH226976   2.789   0.761   1.016 -0.7104  0.6631  0.5555
 1854TIP3    H126977   2.821   0.841   1.057  1.4137 -0.9241  2.2030
 1854TIP3    H226978   2.694   0.775   1.009 -0.4974  3.0388  1.3607
 1855TIP3   OH226979   2.984   0.209   0.471 -0.0499  0.0162  0.0685
 1855TIP3    H126980   3.005   0.265   0.396 -1.2437  3.3769  2.0111
 1855TIP3    H226981   3.062   0.209   0.525 -0.4291  0.8322  0.6312
 1856TIP3   OH226982   2.570   4.046   0.078  0.1252 -0.2613 -0.2479
 1856TIP3    H126983   2.637   4.079   0.018  0.8804 -0.6488  0.3732
 1856TIP3    H226984   2.487   4.072   0.037  0.6523  0.4871 -0.8737
 1857TIP3   OH226985   4.467   6.632  16.506  0.6885 -0.4643 -0.1791
 1857TIP3    H126986   4.512   6.548  16.495 -2.5971 -2.6355  1.2142
 1857TIP3    H226987   4.406   6.636  16.432  0.6295  0.6095 -0.0860
 1858TIP3   OH226988   0.883   0.934  15.808 -0.3909 -0.0970  0.0680
 1858TIP3    H126989   0.970   0.970  15.796 -0.9180  1.0845 -0.3019
 1858TIP3    H226990   0.888   0.846  15.771  0.3579  0.3412 -0.9010
 1859TIP3   OH226991   4.039   6.394  13.856  0.1722 -0.3074  0.4063
 1859TIP3    H126992   3.994   6.448  13.790  2.7915  1.4162 -0.0975
 1859TIP3    H226993   3.988   6.409  13.936 -0.8187  0.6847 -0.3655
 1860TIP3   OH226994   1.208   3.561  16.753 -0.6040  0.1973  0.4477
 1860TIP3    H126995   1.295   3.524  16.772  0.0310  0.6768 -1.3222
 1860TIP3    H226996   1.227   3.639  16.700 -2.0987  0.7468  0.6929
 1861TIP3   OH226997   2.548   3.564   2.375  0.1598 -0.3502 -0.2737
 1861TIP3    H126998   2.573   3.492   2.317 -0.7314 -0.4706 -0.5291
 1861TIP3    H226999   2.629   3.613   2.389  0.8671 -1.5996  0.2028
 1862TIP3   OH227000   4.093   4.006   6.538 -0.5412  0.4014 -0.0247
 1862TIP3    H127001   4.030   3.987   6.607 -0.4160 -0.0579 -0.0287
 1862TIP3    H227002   4.053   3.970   6.458  0.3516 -1.2625  0.2124
 1863TIP3   OH227003   3.321   6.452   1.454 -0.2466 -0.0719  0.1351
 1863TIP3    H127004   3.307   6.379   1.515  0.3456 -0.1900  0.1348
 1863TIP3    H227005   3.335   6.528   1.510  0.9162 -0.2960  0.1603
 1864TIP3   OH227006   1.234   2.723  15.493 -0.1870 -0.0574 -0.0426
 1864TIP3    H127007   1.254   2.761  15.579 -0.2240  0.3434 -0.2121
 1864TIP3    H227008   1.139   2.714  15.493 -0.0303 -3.1698  1.2854
 1865TIP3   OH227009   3.766   4.324  16.403 -0.1295 -0.1498 -0.3640
 1865TIP3    H127010   3.763   4.275  16.485  2.6056 -0.7585 -0.5292
 1865TIP3    H227011   3.780   4.257  16.336 -0.4563  0.5119 -1.1109
 1866TIP3   OH227012   3.984   0.847  13.800 -0.4736  0.6974 -0.2683
 1866TIP3    H127013   4.014   0.937  13.796  1.4002  0.1265 -0.0902
 1866TIP3    H227014   4.021   0.813  13.882 -0.0092 -0.5827 -0.9671
 1867TIP3   OH227015   3.719   2.537   0.630 -0.0892 -0.0779 -0.4891
 1867TIP3    H127016   3.807   2.516   0.598  0.3466  0.1053  0.5649
 1867TIP3    H227017   3.664   2.465   0.597  0.7838 -1.1762  0.3583
 1868TIP3   OH227018   6.118   4.308   1.877 -0.3259  0.2912  0.7486
 1868TIP3    H127019   6.115   4.219   1.842  0.1043  0.1450  1.0688
 1868TIP3    H227020   6.122   4.296   1.972 -1.0792  0.6733  0.8347
 1869TIP3   OH227021   4.398   5.609   1.442 -0.2450 -0.2046  0.2215
 1869TIP3    H127022   4.484   5.623   1.402 -0.4226 -0.3463 -0.2185
 1869TIP3    H227023   4.358   5.696   1.443 -0.2865 -0.2206 -0.0221
 1870TIP3   OH227024   3.405   4.818  15.875  0.1295 -0.3318 -0.4797
 1870TIP3    H127025   3.310   4.821  15.888 -0.0118  0.7828 -1.6064
 1870TIP3    H227026   3.432   4.736  15.917 -1.3889 -0.9226 -0.5774
 1871TIP3   OH227027   0.920   0.797   6.590  0.0007 -0.7583  0.1148
 1871TIP3    H127028   0.900   0.795   6.684 -1.3677 -0.9583 -0.1494
 1871TIP3    H227029   1.013   0.817   6.585  0.4223 -2.1206  1.5618
 1872TIP3   OH227030   3.609   6.330   2.607 -0.5793  0.3563  0.1037
 1872TIP3    H127031   3.630   6.423   2.606 -0.4163  0.3420 -1.8353
 1872TIP3    H227032   3.517   6.326   2.631 -0.9444  1.1413 -1.0736
 1873TIP3   OH227033   2.266   4.214  10.715  0.2605  0.0344  0.4357
 1873TIP3    H127034   2.291   4.121  10.708  1.1192  0.1574  1.4993
 1873TIP3    H227035   2.172   4.215  10.699  0.4686 -0.8315 -0.9776
 1874TIP3   OH227036   2.360   2.825   4.925 -0.2742 -0.1291  0.4544
 1874TIP3    H127037   2.293   2.760   4.905 -1.2967  0.5975  1.4182
 1874TIP3    H227038   2.372   2.819   5.020  0.5514  0.2003  0.3739
 1875TIP3   OH227039   0.353   2.861  15.997 -0.3560  0.8491  0.3101
 1875TIP3    H127040   0.348   2.790  15.933  1.1181 -0.3362  1.4453
 1875TIP3    H227041   0.380   2.818  16.078  0.7457  2.7378  0.9925
 1876TIP3   OH227042   1.971   1.445  15.993  0.1845 -0.4195 -0.1815
 1876TIP3    H127043   2.037   1.505  15.959 -0.3021 -0.3662 -1.0599
 1876TIP3    H227044   1.910   1.501  16.042 -0.4066 -0.1418 -1.2061
 1877TIP3   OH227045   5.451   0.459  10.628  0.2894 -0.5799 -0.1379
 1877TIP3    H127046   5.400   0.539  10.640  1.2222 -0.3406  3.3790
 1877TIP3    H227047   5.391   0.389  10.653  0.4989 -0.6384  0.2108
 1878TIP3   OH227048   5.024   5.100  12.411  0.4383  0.6022  0.4745
 1878TIP3    H127049   4.955   5.072  12.351  0.1703  0.1055  0.9973
 1878TIP3    H227050   5.079   5.023  12.421  0.5548  0.7225  0.7613
 1879TIP3   OH227051   5.856   6.493  15.371  0.1285 -0.0386 -0.6028
 1879TIP3    H127052   5.780   6.552  15.371 -0.5565 -0.7755  1.8830
 1879TIP3    H227053   5.922   6.539  15.423  1.1987  0.3227 -2.2232
 1880TIP3   OH227054   2.023   6.663   5.959 -0.1795 -0.1225 -0.3860
 1880TIP3    H127055   1.987   6.716   6.030 -0.1339 -1.0423  0.3395
 1880TIP3    H227056   2.115   6.690   5.954 -0.2534  0.1528 -0.2870
 1881TIP3   OH227057   0.876   4.378  12.598  0.0240  0.3765  0.1383
 1881TIP3    H127058   0.786   4.374  12.630  0.0253 -1.7262  0.0284
 1881TIP3    H227059   0.889   4.294  12.553  2.3894  0.1484  1.1357
 1882TIP3   OH227060   2.076   5.322   2.352 -0.1196 -0.3913 -0.2783
 1882TIP3    H127061   2.081   5.236   2.311 -0.8148 -1.2230  1.2907
 1882TIP3    H227062   2.032   5.377   2.287  1.4510 -0.8368 -1.8160
 1883TIP3   OH227063   6.376   2.096  14.819 -0.1302 -0.2230  0.3082
 1883TIP3    H127064   6.390   2.108  14.913 -1.4709  1.6143  0.3279
 1883TIP3    H227065   6.366   2.001  14.808  0.9016 -0.5419  1.8755
 1884TIP3   OH227066   2.466   4.185   4.931 -0.2829 -0.4448 -0.4273
 1884TIP3    H127067   2.441   4.220   5.016  0.6478  0.3444 -0.4576
 1884TIP3    H227068   2.542   4.129   4.949  1.0194  1.0845 -0.9091
 1885TIP3   OH227069   5.046   5.836   5.006 -0.0070 -0.1455 -0.5669
 1885TIP3    H127070   5.042   5.861   4.914 -0.9455  0.0098 -0.4961
 1885TIP3    H227071   5.103   5.901   5.046  1.5754 -1.0459 -1.2805
 1886TIP3   OH227072   0.444   6.576  16.017  0.2710  0.5747  0.0404
 1886TIP3    H127073   0.392   6.555  15.939 -0.8958  0.2053  0.8921
 1886TIP3    H227074   0.515   6.631  15.984  1.5550 -1.9258 -1.7745
 1887TIP3   OH227075   0.529   2.331   3.002  0.0449 -0.3739  0.2060
 1887TIP3    H127076   0.565   2.328   2.913 -0.0961  1.3888  0.0497
 1887TIP3    H227077   0.559   2.250   3.043  1.4962 -0.4588 -0.9452
 1888TIP3   OH227078   2.882   2.402   5.584 -0.2887 -0.3283 -0.1383
 1888TIP3    H127079   2.899   2.332   5.520  0.3059  0.9030 -1.3789
 1888TIP3    H227080   2.958   2.460   5.577 -1.6009  1.4271 -0.5026
 1889TIP3   OH227081   5.896   6.597  13.393 -0.2420  0.3810 -0.8425
 1889TIP3    H127082   5.902   6.505  13.415  1.9507  0.5108 -0.6576
 1889TIP3    H227083   5.965   6.639  13.445 -1.7255  2.2625 -0.2968
 1890TIP3   OH227084   5.029   0.691   5.497 -0.3333 -0.3137  1.2964
 1890TIP3    H127085   5.095   0.627   5.471 -0.3687 -0.1703  0.8440
 1890TIP3    H227086   4.958   0.638   5.533 -0.3806 -0.5365  0.8896
 1891TIP3   OH227087   0.145   2.794  15.637  0.4604 -0.2956 -0.0513
 1891TIP3    H127088   0.101   2.807  15.721  3.1789  1.9570  1.2222
 1891TIP3    H227089   0.111   2.864  15.581  0.6089 -0.1086  0.0921
 1892TIP3   OH227090   5.993   2.314  16.287  0.2580 -0.4095  0.6621
 1892TIP3    H127091   5.944   2.358  16.357 -0.8303 -0.4024 -0.0683
 1892TIP3    H227092   6.051   2.381  16.252 -0.0825 -0.0632  0.7528
 1893TIP3   OH227093   5.267   5.881   3.588 -0.6852  0.2124 -0.0096
 1893TIP3    H127094   5.275   5.788   3.609 -3.2210 -0.1914 -0.5909
 1893TIP3    H227095   5.195   5.912   3.643 -0.6160  1.5810 -0.6507
 1894TIP3   OH227096   1.148   5.305  14.780  0.7412  0.2090 -0.2563
 1894TIP3    H127097   1.164   5.235  14.844 -0.7471 -1.3683 -1.4980
 1894TIP3    H227098   1.182   5.384  14.822  0.9098 -0.9432  1.9543
 1895TIP3   OH227099   2.737   3.386   1.951  0.0184  0.0506 -0.2082
 1895TIP3    H127100   2.832   3.394   1.960 -0.0797  1.5135 -0.2136
 1895TIP3    H227101   2.702   3.454   2.009 -1.0276 -0.4516 -0.2363
 1896TIP3   OH227102   1.337   1.454  16.436  0.4808 -0.2017  0.4884
 1896TIP3    H127103   1.386   1.440  16.518  0.6928 -1.8495  0.1059
 1896TIP3    H227104   1.248   1.427  16.456  0.1098  1.0815  0.6584
 1897TIP3   OH227105   5.703   2.677  11.431  0.1347 -0.3644 -0.8387
 1897TIP3    H127106   5.627   2.712  11.476  0.5995  0.7851 -0.9058
 1897TIP3    H227107   5.681   2.682  11.338  0.0719 -0.5927 -0.8387
 1898TIP3   OH227108   0.804   3.595   3.788  0.4655  0.0242 -0.0515
 1898TIP3    H127109   0.725   3.555   3.825  1.0639 -0.7937  0.3561
 1898TIP3    H227110   0.856   3.621   3.865  0.5816  0.6035 -0.3173
 1899TIP3   OH227111   1.577   4.140   4.786 -0.2523  0.0881 -0.3725
 1899TIP3    H127112   1.636   4.215   4.786 -2.1321  1.6413 -0.9912
 1899TIP3    H227113   1.533   4.145   4.701  1.6387 -3.4820 -1.7793
 1900TIP3   OH227114   4.150   2.219  15.053 -0.0024 -0.5758  0.3200
 1900TIP3    H127115   4.205   2.274  15.108  1.2610 -0.3255 -1.1256
 1900TIP3    H227116   4.072   2.272  15.035  0.8108  0.4160 -0.3485
 1901TIP3   OH227117   6.051   0.211   0.115 -0.0890  0.6058  0.4246
 1901TIP3    H127118   6.038   0.301   0.087  0.6128  0.9705  1.2452
 1901TIP3    H227119   6.126   0.180   0.065 -1.4080 -0.1273 -1.1814
 1902TIP3   OH227120   6.737   6.587  16.864 -0.3546 -0.2277 -0.0737
 1902TIP3    H127121   6.807   6.568  16.926  0.8124 -0.2110 -1.3480
 1902TIP3    H227122   6.675   6.640  16.913  0.1027 -0.9484  1.3248
 1903TIP3   OH227123   2.519   2.218   0.513  0.5574 -0.3039  0.3869
 1903TIP3    H127124   2.570   2.189   0.438 -0.1110 -0.1574 -0.1364
 1903TIP3    H227125   2.583   2.259   0.571  1.2697 -1.4590  0.4538
 1904TIP3   OH227126   5.041   2.384  11.093  0.2190 -0.3665 -0.0898
 1904TIP3    H127127   4.985   2.448  11.137  0.2170 -0.4848  0.0792
 1904TIP3    H227128   5.002   2.373  11.007 -0.4530 -1.0122  0.2881
 1905TIP3   OH227129   0.220   1.041   0.771 -0.0753  0.1076 -0.0512
 1905TIP3    H127130   0.172   0.999   0.699  0.4535  0.2362 -0.4830
 1905TIP3    H227131   0.172   1.122   0.788 -0.4778 -0.1510  0.0651
 1906TIP3   OH227132   0.344   0.643  14.475 -0.2050  0.3417  0.0141
 1906TIP3    H127133   0.404   0.709  14.511  1.0657  0.4122 -2.1224
 1906TIP3    H227134   0.312   0.681  14.394 -0.0948 -1.3198 -0.8510
 1907TIP3   OH227135   2.718   1.179  15.939 -0.2951 -0.4353  1.0617
 1907TIP3    H127136   2.709   1.274  15.943 -0.0683 -0.4135  1.0249
 1907TIP3    H227137   2.762   1.155  16.020  0.3986 -0.4249  0.6945
 1908TIP3   OH227138   1.846   3.844   5.786 -0.2091  0.1158  0.9182
 1908TIP3    H127139   1.812   3.877   5.702  5.3760 -0.6003 -2.0872
 1908TIP3    H227140   1.823   3.751   5.785  0.0734  0.0443 -0.0266
 1909TIP3   OH227141   2.375   6.186  13.613  0.0516 -0.2396  0.1491
 1909TIP3    H127142   2.441   6.255  13.623  2.1300 -2.2922  1.7735
 1909TIP3    H227143   2.298   6.220  13.658  0.9763  1.0926  0.7897
 1910TIP3   OH227144   1.475   1.028   6.690 -0.2653 -0.0173 -0.2788
 1910TIP3    H127145   1.481   1.042   6.595 -0.8038 -0.2919 -0.3563
 1910TIP3    H227146   1.555   0.981   6.712 -0.6549 -0.9477 -0.7873
 1911TIP3   OH227147   0.803   6.571  17.075 -0.6178 -0.1758  0.2193
 1911TIP3    H127148   0.740   6.501  17.055 -1.6207  0.8163 -0.2317
 1911TIP3    H227149   0.753   6.652  17.062  1.1138  0.6985 -1.5061
 1912TIP3   OH227150   2.126   5.368   5.417 -0.3507 -0.3420 -0.1327
 1912TIP3    H127151   2.189   5.417   5.364 -0.7442  1.7793  1.2541
 1912TIP3    H227152   2.158   5.278   5.415  2.8587  0.6609  0.6567
 1913TIP3   OH227153   1.831   2.683  12.334 -0.5634 -0.0023 -0.5627
 1913TIP3    H127154   1.871   2.762  12.298 -0.6879 -0.2368 -1.2324
 1913TIP3    H227155   1.746   2.677  12.289 -1.4213  0.5553  0.9230
 1914TIP3   OH227156   1.850   1.114  15.246 -0.2688  0.0704 -0.2582
 1914TIP3    H127157   1.855   1.096  15.152  1.1368  0.8312 -0.3492
 1914TIP3    H227158   1.843   1.210  15.252  1.4066  0.1827  0.4294
 1915TIP3   OH227159   2.840   0.128   5.615 -0.1671  0.0570 -0.2881
 1915TIP3    H127160   2.757   0.083   5.601 -0.0836 -0.7318  1.4362
 1915TIP3    H227161   2.817   0.210   5.658 -0.0479 -0.5856  1.0747
 1916TIP3   OH227162   0.586   6.269   5.077 -0.2400 -0.4724  0.1441
 1916TIP3    H127163   0.493   6.292   5.082 -0.6575 -2.3249  3.0062
 1916TIP3    H227164   0.592   6.202   5.009 -0.8735 -0.0664 -0.3242
 1917TIP3   OH227165   3.047   3.459   5.368 -0.1995  0.1122  0.4243
 1917TIP3    H127166   2.975   3.398   5.383  0.1855 -0.2147  0.9539
 1917TIP3    H227167   3.107   3.411   5.311 -0.0171  0.0912  0.6352
 1918TIP3   OH227168   0.776   3.191   4.891  0.3010  0.6213 -0.1063
 1918TIP3    H127169   0.822   3.197   4.974 -0.0348  0.2982  0.1068
 1918TIP3    H227170   0.684   3.177   4.916  0.2357  0.2839 -0.5297
 1919TIP3   OH227171   1.396   2.250   2.074 -0.3493  0.1820  0.0146
 1919TIP3    H127172   1.342   2.195   2.131 -2.5798  1.9412 -0.2631
 1919TIP3    H227173   1.468   2.193   2.047  0.4894 -0.9752  3.9732
 1920TIP3   OH227174   3.720   1.850  14.010  0.5539  0.1731 -0.3568
 1920TIP3    H127175   3.668   1.857  13.930 -1.0238  0.2344  0.6559
 1920TIP3    H227176   3.716   1.758  14.034  0.5383  0.2600 -0.0186
 1921TIP3   OH227177   1.936   1.139   5.080 -0.2810 -0.3550 -0.2452
 1921TIP3    H127178   1.948   1.181   5.165 -1.4738 -0.2285 -0.1223
 1921TIP3    H227179   1.881   1.063   5.098  3.9073 -3.7567  0.0292
 1922TIP3   OH227180   1.851   1.897   0.139 -0.1872  0.1279 -0.4014
 1922TIP3    H127181   1.901   1.884   0.058  0.3250 -1.7474  0.1719
 1922TIP3    H227182   1.864   1.816   0.188 -2.2807  0.3420  0.5933
 1923TIP3   OH227183   3.038   4.418   1.592  0.0963 -0.2398 -0.2123
 1923TIP3    H127184   2.959   4.468   1.617  0.3893  0.1570 -0.0628
 1923TIP3    H227185   3.042   4.347   1.656 -0.5150 -0.6667 -0.6334
 1924TIP3   OH227186   5.161   1.577   4.512  0.3840 -0.0361 -0.0084
 1924TIP3    H127187   5.201   1.631   4.580  0.0145  0.4802 -0.1935
 1924TIP3    H227188   5.162   1.632   4.433  0.4571 -0.4838 -0.3246
 1925TIP3   OH227189   6.100   3.432  13.022  0.3523  0.3636  0.0523
 1925TIP3    H127190   6.094   3.484  13.103  1.5404  1.2234 -0.3751
 1925TIP3    H227191   6.009   3.409  13.002  0.0979 -0.5511  2.0431
 1926TIP3   OH227192   2.610   1.738  12.408 -0.0560 -0.3834  0.0950
 1926TIP3    H127193   2.644   1.824  12.383  0.4770 -0.0616  1.8428
 1926TIP3    H227194   2.515   1.750  12.411  0.0415  0.2667  0.7521
 1927TIP3   OH227195   4.407   2.282   2.455 -0.0962  0.3963 -0.6340
 1927TIP3    H127196   4.433   2.220   2.523 -0.6509 -2.8951 -3.1926
 1927TIP3    H227197   4.317   2.305   2.477  0.6970  1.9346  1.3544
 1928TIP3   OH227198   6.048   3.762   2.899 -0.5206 -0.7373 -0.0852
 1928TIP3    H127199   6.111   3.703   2.939  0.6141  3.3913  5.3738
 1928TIP3    H227200   6.102   3.821   2.845 -0.6808 -0.7570 -0.2695
 1929TIP3   OH227201   4.118   5.428   1.021  0.2200  0.7144 -0.0818
 1929TIP3    H127202   4.169   5.385   0.952 -0.5312 -0.4962  0.0882
 1929TIP3    H227203   4.146   5.520   1.018  2.2189  0.1595 -0.1610
 1930TIP3   OH227204   6.688   1.407   3.075 -0.0094 -0.1967 -0.2606
 1930TIP3    H127205   6.622   1.340   3.095  1.1533 -1.4891 -0.5623
 1930TIP3    H227206   6.768   1.373   3.114  0.5600  1.1925 -0.1720
 1931TIP3   OH227207   3.714   2.713   1.097 -0.1967 -0.0833  0.1186
 1931TIP3    H127208   3.647   2.775   1.125 -1.7562 -2.0564  1.0618
 1931TIP3    H227209   3.796   2.763   1.100 -1.3372  1.8507  0.9966
 1932TIP3   OH227210   3.864   1.691   3.811  0.1729  0.2638 -0.3860
 1932TIP3    H127211   3.775   1.657   3.818  0.8970 -2.1956 -1.6687
 1932TIP3    H227212   3.912   1.647   3.882  0.4578  1.3046  0.0823
 1933TIP3   OH227213   6.104   2.519   1.574 -0.0253  0.3973 -0.0475
 1933TIP3    H127214   6.038   2.451   1.561  0.0573  0.1719  0.6890
 1933TIP3    H227215   6.107   2.533   1.669  0.0888  1.3010 -0.1744
 1934TIP3   OH227216   0.841   6.463   1.822  0.3846 -0.0535  0.4391
 1934TIP3    H127217   0.838   6.367   1.815 -1.1460  0.0625 -1.4187
 1934TIP3    H227218   0.759   6.492   1.782  0.6344  2.0446  1.3236
 1935TIP3   OH227219   4.756   1.910   3.845 -0.1184 -0.0712 -0.0308
 1935TIP3    H127220   4.827   1.849   3.823 -0.2170 -0.1723 -0.0643
 1935TIP3    H227221   4.732   1.949   3.761  0.5793  0.7011  0.1111
 1936TIP3   OH227222   1.223   0.857   2.493  0.3106  0.7711  0.0778
 1936TIP3    H127223   1.266   0.888   2.413  0.9847  0.1379  0.1766
 1936TIP3    H227224   1.296   0.843   2.554 -0.1101  0.3639  0.4906
 1937TIP3   OH227225   6.520   1.110  10.616 -0.2724 -0.0334  0.6874
 1937TIP3    H127226   6.465   1.057  10.558 -0.4975  1.5416 -0.5781
 1937TIP3    H227227   6.564   1.045  10.671  0.6541 -1.6999 -1.8187
 1938TIP3   OH227228   3.834   3.262  14.641 -0.1107 -0.2326 -0.1889
 1938TIP3    H127229   3.861   3.185  14.690  1.0231  0.3224  0.1020
 1938TIP3    H227230   3.793   3.319  14.706  1.2876  0.4526  0.1381
 1939TIP3   OH227231   2.494   4.655   6.763  0.1837 -0.6259 -0.5742
 1939TIP3    H127232   2.507   4.708   6.842  1.2157 -2.5749  0.6726
 1939TIP3    H227233   2.432   4.587   6.790  0.3466 -1.1569 -1.4946
 1940TIP3   OH227234   6.638   0.773  15.778 -0.5681  0.0953  0.6869
 1940TIP3    H127235   6.698   0.844  15.800 -0.4501  0.4896 -0.7883
 1940TIP3    H227236   6.553   0.802  15.811 -0.9642  1.9491 -1.6705
 1941TIP3   OH227237   1.395   0.273  16.727  0.7352 -0.4022 -0.4069
 1941TIP3    H127238   1.346   0.327  16.789  0.6056 -1.2277  0.2356
 1941TIP3    H227239   1.340   0.271  16.648 -0.3379 -1.3674  0.3262
 1942TIP3   OH227240   0.400   3.853  14.970  0.3791 -0.2954 -0.3031
 1942TIP3    H127241   0.458   3.802  14.913  2.3463  1.5373 -0.0345
 1942TIP3    H227242   0.350   3.908  14.910  0.4547 -0.3624 -0.4280
 1943TIP3   OH227243   0.463   2.985  13.800  0.7433 -0.5440 -0.4696
 1943TIP3    H127244   0.408   3.009  13.875 -1.2225 -0.7393 -1.7683
 1943TIP3    H227245   0.552   3.002  13.830 -0.0929  1.4278  1.1819
 1944TIP3   OH227246   1.314   4.751  14.699 -0.3367 -0.3829  0.6203
 1944TIP3    H127247   1.261   4.824  14.731  1.8607  0.8423  1.7066
 1944TIP3    H227248   1.254   4.699  14.645 -2.3645  1.3793  1.0583
 1945TIP3   OH227249   3.927   2.467   4.594 -0.0744 -0.1090  0.0269
 1945TIP3    H127250   3.837   2.438   4.605  0.1962 -1.2674 -0.6156
 1945TIP3    H227251   3.922   2.562   4.586 -1.0844 -0.0298  1.4418
 1946TIP3   OH227252   0.153   6.106  15.779 -0.2722  0.2455 -0.3470
 1946TIP3    H127253   0.208   6.028  15.771  1.5830  1.4907 -0.6815
 1946TIP3    H227254   0.092   6.101  15.705  1.1658  0.0618 -1.5796
 1947TIP3   OH227255   4.053   6.543   2.349  0.2451 -0.0338  0.1743
 1947TIP3    H127256   4.090   6.625   2.382  0.8012  0.0057 -0.5229
 1947TIP3    H227257   3.966   6.568   2.317 -0.1201  0.0154  1.1595
 1948TIP3   OH227258   1.671   4.992  17.036  0.6446 -0.4194 -0.3311
 1948TIP3    H127259   1.638   4.958  17.119  1.5050 -0.6909 -0.0817
 1948TIP3    H227260   1.708   4.916  16.992  2.0106  0.0396 -0.0477
 1949TIP3   OH227261   3.390   1.546   2.659  0.7794 -0.0474 -0.2111
 1949TIP3    H127262   3.329   1.524   2.588  0.2772 -1.9086  0.7339
 1949TIP3    H227263   3.475   1.515   2.628  0.7639  0.1199 -0.4258
 1950TIP3   OH227264   2.868   4.087  15.972  0.6994 -0.5236 -0.5607
 1950TIP3    H127265   2.867   4.098  16.067 -2.6109  2.6960 -0.7684
 1950TIP3    H227266   2.792   4.033  15.953  0.2633  0.3663 -1.4361
 1951TIP3   OH227267   3.256   0.466   0.687 -0.2400  0.1186 -0.0504
 1951TIP3    H127268   3.294   0.429   0.766  2.2930  1.7848 -0.3603
 1951TIP3    H227269   3.170   0.499   0.713  0.0161 -0.5019  1.6520
 1952TIP3   OH227270   3.188   2.137  17.377 -0.3235 -0.6325  0.1328
 1952TIP3    H127271   3.103   2.181  17.364  0.4801  0.2671 -2.9413
 1952TIP3    H227272   3.247   2.207  17.404 -0.3325 -1.1026  1.4404
 1953TIP3   OH227273   0.141   0.348  11.984  0.9692 -0.1469  0.4138
 1953TIP3    H127274   0.179   0.310  11.905 -1.3995  0.0744 -0.9526
 1953TIP3    H227275   0.092   0.276  12.024 -0.5992  0.5178 -0.2231
 1954TIP3   OH227276   6.393   3.570   6.361  0.5274  0.1092 -0.1163
 1954TIP3    H127277   6.375   3.593   6.452 -1.5705  0.6240 -0.6104
 1954TIP3    H227278   6.419   3.478   6.365  1.7771  0.4795  1.1099
 1955TIP3   OH227279   1.831   4.982  16.644  0.5412 -0.2763  0.4277
 1955TIP3    H127280   1.894   5.037  16.598  0.1771 -0.2399 -0.0293
 1955TIP3    H227281   1.750   4.990  16.594  0.1583 -0.2976  1.0259
 1956TIP3   OH227282   3.360   2.027   4.262  0.3059  0.1152 -0.2072
 1956TIP3    H127283   3.347   2.085   4.187  1.2737 -0.2761 -0.6976
 1956TIP3    H227284   3.271   2.003   4.289 -0.0605  0.0972 -1.3639
 1957TIP3   OH227285   5.209   4.270  12.797 -0.1208  0.4454 -0.0541
 1957TIP3    H127286   5.186   4.265  12.704  0.7275 -0.1309 -0.2480
 1957TIP3    H227287   5.133   4.309  12.839 -1.1802 -0.7718 -0.7580
 1958TIP3   OH227288   6.556   6.573  17.273  0.3972 -0.4761  0.0469
 1958TIP3    H127289   6.643   6.554  17.238  0.5001 -0.2781  0.1902
 1958TIP3    H227290   6.549   6.519  17.352 -0.4162 -2.0536 -1.0690
 1959TIP3   OH227291   1.336   4.732   1.151 -0.0510  0.0586 -0.4421
 1959TIP3    H127292   1.297   4.816   1.128 -0.9717 -0.3227 -0.3154
 1959TIP3    H227293   1.267   4.684   1.197  0.3213 -0.9233 -0.8631
 1960TIP3   OH227294   0.179   2.673   5.440  0.7043  0.0064  0.1457
 1960TIP3    H127295   0.102   2.724   5.467  0.2722  0.1288 -1.2460
 1960TIP3    H227296   0.198   2.617   5.515 -0.2651  0.5260  0.8040
 1961TIP3   OH227297   0.694   2.705   5.145  0.1467  0.1832 -0.1182
 1961TIP3    H127298   0.715   2.788   5.188  1.4317 -0.6376  0.9222
 1961TIP3    H227299   0.599   2.702   5.144  0.0701  0.8880  1.4204
 1962TIP3   OH227300   5.608   0.807  11.559  0.1632  0.6155  0.4878
 1962TIP3    H127301   5.522   0.782  11.525  0.0407  2.1992 -0.4346
 1962TIP3    H227302   5.670   0.750  11.512 -0.3227 -0.2880  0.9063
 1963TIP3   OH227303   6.658   6.256  12.386 -0.3195  0.5923 -0.0736
 1963TIP3    H127304   6.667   6.337  12.336 -0.3566  0.9818  0.5543
 1963TIP3    H227305   6.649   6.283  12.477 -1.1694 -0.0735  0.0620
 1964TIP3   OH227306   5.864   2.828   6.254 -0.8901  0.2391 -0.0067
 1964TIP3    H127307   5.828   2.834   6.342  2.8203  2.2964  1.6309
 1964TIP3    H227308   5.876   2.919   6.226  1.5656 -0.2739 -0.9094
 1965TIP3   OH227309   6.752   2.508  16.634 -0.6719 -0.0661 -0.1050
 1965TIP3    H127310   6.724   2.590  16.674 -2.1291 -0.6982  0.2239
 1965TIP3    H227311   6.760   2.528  16.541 -2.0382  0.2065 -0.1804
 1966TIP3   OH227312   2.119   0.234   1.977  0.1442 -0.5141 -0.2334
 1966TIP3    H127313   2.129   0.175   2.052  0.5908  0.9801  0.9210
 1966TIP3    H227314   2.208   0.246   1.945  0.2392  0.6207  0.4193
 1967TIP3   OH227315   4.832   6.165   0.613  0.0629 -0.2549 -0.2859
 1967TIP3    H127316   4.827   6.258   0.633  0.6113 -0.1675 -0.5381
 1967TIP3    H227317   4.904   6.132   0.668 -0.6723 -0.7058  0.4357
 1968TIP3   OH227318   3.372   1.686  14.546 -0.4679 -0.0910 -0.3074
 1968TIP3    H127319   3.341   1.625  14.612  1.3520 -0.6699  0.0763
 1968TIP3    H227320   3.428   1.748  14.594 -2.0707  1.7949 -0.7247
 1969TIP3   OH227321   1.007   0.804  13.303  0.1165  0.4432  0.5637
 1969TIP3    H127322   0.932   0.775  13.354  1.8263 -0.0442  3.0072
 1969TIP3    H227323   1.012   0.898  13.318 -0.3384  0.5796 -0.1067
 1970TIP3   OH227324   4.069   3.645  16.034 -0.1062  0.0155 -0.1732
 1970TIP3    H127325   4.064   3.730  16.077 -0.3746 -0.0263 -0.1164
 1970TIP3    H227326   4.008   3.651  15.961 -2.2737 -1.0212  1.4227
 1971TIP3   OH227327   3.395   3.554  17.364 -0.5739 -0.2978 -0.0881
 1971TIP3    H127328   3.419   3.547  17.456 -2.4254 -0.8719  0.3902
 1971TIP3    H227329   3.366   3.645  17.354  1.7465  0.4484 -0.7078
 1972TIP3   OH227330   3.595   3.792   6.223  0.3762  0.8413 -0.3936
 1972TIP3    H127331   3.676   3.771   6.177  0.2816  1.0569 -0.6580
 1972TIP3    H227332   3.566   3.708   6.259  1.0855  0.8844  0.3098
 1973TIP3   OH227333   4.085   5.012  17.350 -0.0406  0.1743 -0.7089
 1973TIP3    H127334   4.011   5.009  17.411 -0.7595  0.1475 -1.5502
 1973TIP3    H227335   4.050   5.057  17.273  1.3055  1.6472 -0.5027
 1974TIP3   OH227336   3.735   6.135  13.658 -0.3903  0.7596  0.0337
 1974TIP3    H127337   3.704   6.070  13.720 -1.1569  1.0772 -0.0045
 1974TIP3    H227338   3.664   6.198  13.651  0.3151  1.5763  0.0261
 1975TIP3   OH227339   0.195   1.375   3.174  0.6670 -0.0059  0.7914
 1975TIP3    H127340   0.210   1.295   3.124 -0.8976 -0.1250  0.4762
 1975TIP3    H227341   0.268   1.378   3.236  0.5772 -1.8524  1.0409
 1976TIP3   OH227342   4.234   4.504   2.479 -0.1845 -0.0628 -0.2662
 1976TIP3    H127343   4.150   4.541   2.505 -0.8573 -0.7594 -1.3316
 1976TIP3    H227344   4.275   4.572   2.426 -0.1472  0.2122  0.1129
 1977TIP3   OH227345   5.384   4.081   2.691  0.3453  0.2656  0.2507
 1977TIP3    H127346   5.335   4.160   2.669  1.1222  0.6764 -0.0410
 1977TIP3    H227347   5.461   4.113   2.739 -0.3101 -0.4602  1.8664
 1978TIP3   OH227348   5.523   5.247  13.291 -0.2131 -0.3877 -0.5687
 1978TIP3    H127349   5.445   5.281  13.247  0.4593  0.6700 -0.9702
 1978TIP3    H227350   5.504   5.153  13.303 -2.6355  0.2724  1.6928
 1979TIP3   OH227351   4.114   4.229   5.251  0.4899  0.4995  0.2177
 1979TIP3    H127352   4.159   4.314   5.255  0.7105  0.4653 -1.1152
 1979TIP3    H227353   4.031   4.249   5.208  0.8589 -0.0835 -0.7744
 1980TIP3   OH227354   0.664   3.421  15.684 -0.3856 -0.3553  0.5234
 1980TIP3    H127355   0.608   3.452  15.613 -2.3105 -0.6203  1.8498
 1980TIP3    H227356   0.704   3.500  15.720  0.0571 -0.1548 -0.3760
 1981TIP3   OH227357   4.829   5.213  16.048  0.1156  0.3912  0.0403
 1981TIP3    H127358   4.736   5.230  16.062 -0.1933  0.0059 -1.3494
 1981TIP3    H227359   4.836   5.118  16.052  0.4712  0.4289  0.2735
 1982TIP3   OH227360   3.207   1.940  16.284  0.3061  0.1620  0.4858
 1982TIP3    H127361   3.112   1.934  16.286  0.2989  0.3642  1.5075
 1982TIP3    H227362   3.231   1.916  16.195 -0.7172  0.4032  0.1299
 1983TIP3   OH227363   3.623   3.296   2.480 -0.0144 -0.4693 -0.1651
 1983TIP3    H127364   3.567   3.234   2.528  1.3114 -1.1024  0.6225
 1983TIP3    H227365   3.681   3.240   2.428  0.2812  0.1653 -0.5253
 1984TIP3   OH227366   3.274   5.613  15.858 -0.6036 -0.0648 -0.2357
 1984TIP3    H127367   3.302   5.522  15.850 -1.6123 -0.3211 -1.1322
 1984TIP3    H227368   3.350   5.664  15.830  0.2295 -0.5795  0.9940
 1985TIP3   OH227369   6.419   1.336  16.070 -0.4430 -0.1544  0.0275
 1985TIP3    H127370   6.344   1.288  16.106 -0.0184 -0.1759  0.9071
 1985TIP3    H227371   6.383   1.420  16.043 -0.7943 -0.1708  0.4319
 1986TIP3   OH227372   2.411   4.759  14.551  0.0525  0.3748  0.2802
 1986TIP3    H127373   2.344   4.801  14.604 -0.8672  0.6040 -1.0085
 1986TIP3    H227374   2.408   4.666  14.576 -0.8688  0.3563  0.1254
 1987TIP3   OH227375   3.703   2.487  10.921  0.0683  0.1628 -0.1051
 1987TIP3    H127376   3.661   2.457  11.001  1.4947 -0.9555  0.2813
 1987TIP3    H227377   3.714   2.408  10.868 -1.5801  1.0012 -1.8026
 1988TIP3   OH227378   6.730   0.512  15.769  0.2314  0.4250 -0.2400
 1988TIP3    H127379   6.775   0.492  15.687  1.3635 -0.3747  0.5480
 1988TIP3    H227380   6.697   0.601  15.758  1.0136  0.5909 -1.2804
 1989TIP3   OH227381   6.712   1.092  11.039 -0.1120 -0.3757  0.4642
 1989TIP3    H127382   6.710   0.999  11.061  0.5786 -0.6143 -0.4167
 1989TIP3    H227383   6.659   1.134  11.106  0.7763 -1.2225  1.7445
 1990TIP3   OH227384   3.246   4.948   0.013  0.5656 -0.2455  0.1462
 1990TIP3    H127385   3.198   4.951  -0.069 -0.2914 -1.8248  0.5405
 1990TIP3    H227386   3.337   4.931  -0.013  0.4575  0.1441 -0.4994
 1991TIP3   OH227387   3.754   1.290  13.072 -0.0646  0.4499  0.4892
 1991TIP3    H127388   3.672   1.314  13.028 -0.6322  0.6149  1.6076
 1991TIP3    H227389   3.747   1.195  13.082  0.5758  0.2562 -0.7584
 1992TIP3   OH227390   0.183   1.333  13.572 -0.0550 -0.1561 -0.5036
 1992TIP3    H127391   0.224   1.293  13.495 -1.8554  2.1466 -2.8750
 1992TIP3    H227392   0.136   1.261  13.614  0.1556 -1.3532 -2.1804
 1993TIP3   OH227393   4.695   5.732   4.358  0.1421 -0.3769  0.0048
 1993TIP3    H127394   4.663   5.818   4.383  0.2064 -0.5453  0.6988
 1993TIP3    H227395   4.702   5.735   4.263  0.0927  0.3621  0.0210
 1994TIP3   OH227396   5.356   4.150   5.144 -0.2186 -0.2458  0.2725
 1994TIP3    H127397   5.316   4.231   5.176 -2.6328 -1.5030  0.6049
 1994TIP3    H227398   5.450   4.164   5.157 -0.6196  2.0869  1.2389
 1995TIP3   OH227399   4.974   1.568  16.171  0.4621  0.1907 -0.1835
 1995TIP3    H127400   4.899   1.604  16.124  0.7391  0.5152 -0.3818
 1995TIP3    H227401   4.965   1.473  16.162  0.6581  0.2518 -1.1277
 1996TIP3   OH227402   1.088   5.538   2.999  0.8151  0.0222 -0.2363
 1996TIP3    H127403   1.140   5.547   2.920  2.3099 -1.0638  0.5570
 1996TIP3    H227404   1.008   5.493   2.971  0.7309  0.8343 -1.3193
 1997TIP3   OH227405   5.644   3.803  13.116  0.1203  0.1292 -0.2758
 1997TIP3    H127406   5.561   3.756  13.106 -0.2057  0.2650  1.4061
 1997TIP3    H227407   5.711   3.738  13.095 -0.3878 -0.2748 -0.6787
 1998TIP3   OH227408   3.260   0.339  15.183 -0.2877  0.0115 -0.2858
 1998TIP3    H127409   3.184   0.293  15.219 -0.1843 -0.4786 -0.6813
 1998TIP3    H227410   3.335   0.289  15.215 -0.1255  0.4889  0.0980
 1999TIP3   OH227411   2.158   5.276  14.314 -0.2627  0.5618 -0.0147
 1999TIP3    H127412   2.079   5.243  14.358 -0.5021 -0.0779 -0.9098
 1999TIP3    H227413   2.168   5.365  14.348 -1.4590  0.7106 -0.0099
 2000TIP3   OH227414   1.256   6.043  14.767 -0.1578  0.0301  0.4234
 2000TIP3    H127415   1.188   6.026  14.701 -2.3335 -0.4725  2.6608
 2000TIP3    H227416   1.219   6.111  14.823  1.4700  0.1720  1.3917
 2001TIP3   OH227417   3.448   0.181   0.093  0.4057 -0.9849  0.6632
 2001TIP3    H127418   3.485   0.120   0.028  0.8413 -0.1986  0.1620
 2001TIP3    H227419   3.480   0.267   0.066 -1.4993 -0.3024  0.4157
 2002TIP3   OH227420   6.165   6.702   1.883 -0.0630  0.7134 -0.0361
 2002TIP3    H127421   6.139   6.774   1.940 -1.7500 -0.5672  0.8883
 2002TIP3    H227422   6.246   6.670   1.922 -1.4744 -0.5053  2.0899
 2003TIP3   OH227423   6.676   3.492  12.458  0.2967 -0.2816 -0.1437
 2003TIP3    H127424   6.629   3.502  12.376  1.6904  1.1168 -0.8441
 2003TIP3    H227425   6.646   3.566  12.512 -0.1811 -0.8582  0.3948
 2004TIP3   OH227426   3.794   1.081  15.040  0.0505  0.1623  0.2235
 2004TIP3    H127427   3.796   1.172  15.069 -0.5254  0.2614 -0.0218
 2004TIP3    H227428   3.747   1.084  14.956 -0.3079 -0.4092  0.3984
 2005TIP3   OH227429   0.299   1.653  12.860 -0.6159 -0.0302 -0.4579
 2005TIP3    H127430   0.367   1.709  12.896 -0.1920 -0.5477 -0.4428
 2005TIP3    H227431   0.239   1.714  12.816 -0.1239  0.4256 -0.5099
 2006TIP3   OH227432   1.077   2.898   4.834 -0.5827  0.4613  0.3188
 2006TIP3    H127433   1.019   2.885   4.759 -0.6223  1.3385  0.1832
 2006TIP3    H227434   1.073   2.992   4.851 -0.4511  0.2920  1.3275
 2007TIP3   OH227435   4.158   0.516  10.599  0.0993  0.0069 -0.1637
 2007TIP3    H127436   4.140   0.426  10.571 -0.3467 -0.4444  1.4586
 2007TIP3    H227437   4.254   0.518  10.609  0.0828 -0.4285  0.1651
 2008TIP3   OH227438   4.450   2.325  15.095 -0.6705  0.1324  0.4875
 2008TIP3    H127439   4.504   2.377  15.155 -0.1605  2.0786 -1.5218
 2008TIP3    H227440   4.510   2.301  15.024 -1.7893 -0.0214 -0.4292
 2009TIP3   OH227441   3.575   0.082   4.308  0.0573  0.1214  0.0161
 2009TIP3    H127442   3.665   0.113   4.309  0.4108 -0.8036 -0.8653
 2009TIP3    H227443   3.562   0.044   4.395 -0.1544  2.0114  0.8501
 2010TIP3   OH227444   1.471   4.407   3.416  0.1186  0.1460 -0.2502
 2010TIP3    H127445   1.421   4.486   3.395 -0.5055  0.1284  1.0449
 2010TIP3    H227446   1.563   4.435   3.411 -0.0372  0.5098 -1.4090
 2011TIP3   OH227447   0.749   4.491   4.343  0.2064 -0.2192  0.8961
 2011TIP3    H127448   0.825   4.491   4.401 -0.2070 -1.9767  1.4787
 2011TIP3    H227449   0.768   4.425   4.277 -0.7480 -0.5646  0.9488
 2012TIP3   OH227450   0.292   3.855   2.217 -0.2848  0.1538 -0.2605
 2012TIP3    H127451   0.334   3.797   2.153 -1.1418  0.6578 -1.3204
 2012TIP3    H227452   0.340   3.938   2.210  0.2410 -0.0854  0.4613
 2013TIP3   OH227453   4.166   1.964   5.070 -0.2340  0.1801 -0.0455
 2013TIP3    H127454   4.254   2.000   5.083  0.6471 -1.6571 -0.5994
 2013TIP3    H227455   4.112   2.040   5.050  1.1355  1.4061  0.6783
 2014TIP3   OH227456   2.538   2.655   2.292 -0.1669 -0.2324 -0.0816
 2014TIP3    H127457   2.513   2.611   2.374 -0.9503 -0.2454 -0.3172
 2014TIP3    H227458   2.627   2.686   2.308  0.1012 -1.1943  0.3805
 2015TIP3   OH227459   5.497   4.007   4.045  0.3150 -0.6344 -0.2395
 2015TIP3    H127460   5.565   4.063   4.082  0.5917 -0.6683 -0.6950
 2015TIP3    H227461   5.416   4.041   4.084  0.6011 -0.7363  0.4731
 2016TIP3   OH227462   6.075   0.854  16.348 -0.4981  0.4268  0.0367
 2016TIP3    H127463   6.033   0.909  16.282 -0.7481 -0.0926 -0.2346
 2016TIP3    H227464   6.143   0.807  16.301  0.4277  1.2893  0.4807
 2017TIP3   OH227465   0.184   6.219  15.225  0.2224  0.4316 -0.3325
 2017TIP3    H127466   0.231   6.294  15.190  2.9227 -1.6437 -1.5186
 2017TIP3    H227467   0.165   6.165  15.149 -0.8202 -0.5449  0.5826
 2018TIP3   OH227468   2.949   5.823   1.917 -0.0229  0.2423  0.3285
 2018TIP3    H127469   2.876   5.792   1.863  0.6576 -0.2286 -0.3307
 2018TIP3    H227470   2.984   5.899   1.870  0.4807 -0.0774  0.1871
 2019TIP3   OH227471   0.820   4.293   2.645  0.6386 -0.1505 -0.3475
 2019TIP3    H127472   0.914   4.275   2.648  0.0770 -4.5275 -1.9539
 2019TIP3    H227473   0.806   4.331   2.558  0.9314  1.4360  0.2556
 2020TIP3   OH227474   2.376   0.265   2.734  0.0366  0.0824 -0.6848
 2020TIP3    H127475   2.467   0.267   2.764  0.6797  2.9130 -2.4590
 2020TIP3    H227476   2.373   0.191   2.672  1.2484  0.2033 -0.9111
 2021TIP3   OH227477   3.610   0.169   2.923  0.3668 -0.2883 -0.7368
 2021TIP3    H127478   3.563   0.096   2.884  0.3088  0.3411 -1.8994
 2021TIP3    H227479   3.697   0.165   2.884  0.4537  0.0911 -0.5870
 2022TIP3   OH227480   2.968   5.245   4.898 -0.3728 -0.2000  0.3207
 2022TIP3    H127481   3.035   5.199   4.950 -1.5472 -0.7116  1.4365
 2022TIP3    H227482   2.993   5.337   4.903  0.3303 -0.3974  0.6029
 2023TIP3   OH227483   0.808   1.255   2.055  0.1403  0.3669 -0.4397
 2023TIP3    H127484   0.811   1.175   2.108 -0.4917  0.4016 -0.3426
 2023TIP3    H227485   0.726   1.298   2.081  0.0360  0.6022 -1.1359
 2024TIP3   OH227486   2.861   0.083   1.955 -0.0800 -0.0332 -0.6053
 2024TIP3    H127487   2.944   0.036   1.959 -0.0624 -0.0038 -0.6263
 2024TIP3    H227488   2.864   0.130   1.872  0.6683  1.4483  0.2239
 2025TIP3   OH227489   3.804   2.651   2.506  0.3387 -0.3241  0.0355
 2025TIP3    H127490   3.714   2.644   2.476 -0.2267 -1.9831  1.9204
 2025TIP3    H227491   3.820   2.570   2.555  2.7867  0.0240 -0.0714
 2026TIP3   OH227492   5.963   0.614  12.371  0.5046  1.1053  0.3690
 2026TIP3    H127493   6.053   0.596  12.395  0.5399  0.5334 -0.1700
 2026TIP3    H227494   5.949   0.565  12.290 -1.3261 -1.7063  2.2012
 2027TIP3   OH227495   4.285   5.921   0.501 -0.6306  0.1300  0.1093
 2027TIP3    H127496   4.226   5.951   0.432 -2.4305  0.8425  1.8456
 2027TIP3    H227497   4.366   5.899   0.456 -1.7499  0.4881 -2.2126
 2028TIP3   OH227498   1.620   1.537   2.110 -0.2340  0.0893 -0.1407
 2028TIP3    H127499   1.629   1.602   2.040  0.5635  0.1800  0.0294
 2028TIP3    H227500   1.680   1.568   2.178 -3.0323  1.6079  1.8447
 2029TIP3   OH227501   1.821   6.024  13.362 -0.0840 -0.1562  0.4851
 2029TIP3    H127502   1.872   6.093  13.405  1.6955 -1.5781  0.7369
 2029TIP3    H227503   1.866   6.008  13.280 -2.0453  0.7931 -0.8601
 2030TIP3   OH227504   5.389   5.055  15.010  0.4901  0.1206  0.0251
 2030TIP3    H127505   5.314   5.078  15.065  0.0329  0.3542 -0.6902
 2030TIP3    H227506   5.351   5.017  14.931  1.1801 -1.5884  0.4541
 2031TIP3   OH227507   2.403   4.945  12.086 -0.2328 -0.0062  0.5922
 2031TIP3    H127508   2.443   4.875  12.035  0.9627  0.9307  0.2205
 2031TIP3    H227509   2.311   4.918  12.095  0.1523 -1.5106  0.2979
 2032TIP3   OH227510   0.580   3.403  14.933  0.0721 -0.3027 -0.2218
 2032TIP3    H127511   0.609   3.386  15.023  2.0684  1.6930 -0.3909
 2032TIP3    H227512   0.550   3.318  14.902 -1.2383 -0.9511  2.4795
 2033TIP3   OH227513   0.910   4.544   0.371 -0.4527 -0.3199  0.1589
 2033TIP3    H127514   0.873   4.515   0.454 -0.2360 -0.7284  0.1185
 2033TIP3    H227515   0.840   4.530   0.308 -0.3611 -0.7437  0.1452
 2034TIP3   OH227516   5.846   6.590   4.989 -0.2323  0.4924 -0.4203
 2034TIP3    H127517   5.766   6.579   5.041 -0.9092 -2.1883 -1.8770
 2034TIP3    H227518   5.916   6.567   5.050 -0.8638 -0.6257 -0.0717
 2035TIP3   OH227519   5.454   3.753   1.682  0.2434 -0.1846 -0.0696
 2035TIP3    H127520   5.363   3.723   1.680  0.4454 -0.9555  1.4348
 2035TIP3    H227521   5.470   3.785   1.593 -1.9730  1.4257  0.0131
 2036TIP3   OH227522   0.352   5.604  11.653 -0.2172 -0.4241 -0.0978
 2036TIP3    H127523   0.331   5.629  11.743  0.2552  1.0339 -0.3713
 2036TIP3    H227524   0.433   5.553  11.661  0.5041  0.7411  0.2064
 2037TIP3   OH227525   4.380   2.361   2.916  0.0841  0.0171 -0.2432
 2037TIP3    H127526   4.379   2.400   3.004  1.6206  0.3554 -0.3369
 2037TIP3    H227527   4.375   2.267   2.931 -3.8600  0.1250 -0.0181
 2038TIP3   OH227528   3.678   6.239  16.955  0.3506 -0.6137 -0.4396
 2038TIP3    H127529   3.688   6.334  16.958  0.6485 -0.6703  1.7722
 2038TIP3    H227530   3.757   6.207  16.913  0.0593  0.1206 -1.5825
 2039TIP3   OH227531   4.800   0.349   0.043 -0.1428  0.3064  0.1893
 2039TIP3    H127532   4.766   0.266   0.010 -0.7667  0.5107  0.3045
 2039TIP3    H227533   4.887   0.357   0.004  0.1627 -0.6757  0.6305
 2040TIP3   OH227534   4.467   2.724   4.981 -0.3694  0.2016 -0.6218
 2040TIP3    H127535   4.379   2.718   4.945 -0.8186 -1.7754  0.5911
 2040TIP3    H227536   4.459   2.685   5.069  2.0274 -1.7659 -1.1555
 2041TIP3   OH227537   2.323   5.209   1.696  0.0028 -0.2124 -0.0100
 2041TIP3    H127538   2.389   5.152   1.734 -0.2686 -0.7489 -0.3210
 2041TIP3    H227539   2.361   5.238   1.613 -1.0291 -2.3762 -1.3254
 2042TIP3   OH227540   5.433   1.413  15.334 -0.0839 -0.1584  0.6145
 2042TIP3    H127541   5.373   1.485  15.313 -1.5919 -1.4074  0.4102
 2042TIP3    H227542   5.382   1.356  15.391  0.6751 -1.6114 -0.1226
 2043TIP3   OH227543   4.729   3.712   1.233  0.3831  0.2895  0.9706
 2043TIP3    H127544   4.661   3.657   1.272 -1.1231  1.8753  0.7205
 2043TIP3    H227545   4.769   3.657   1.166  0.3132 -1.1460  2.0678
 2044TIP3   OH227546   1.752   1.767   2.444  0.0014 -0.1206 -0.1158
 2044TIP3    H127547   1.790   1.708   2.510  1.1347  0.6629 -0.0493
 2044TIP3    H227548   1.796   1.743   2.362 -1.6149 -1.2956 -0.6920
 2045TIP3   OH227549   2.543   5.052   4.302 -0.6710  0.2768 -0.3127
 2045TIP3    H127550   2.518   4.962   4.281  1.3945 -0.7124  1.0441
 2045TIP3    H227551   2.636   5.046   4.324 -0.6874  2.5993  0.6921
 2046TIP3   OH227552   5.370   5.069  14.482  0.3178 -0.3090  0.1291
 2046TIP3    H127553   5.290   5.120  14.471  1.5118  1.4958 -0.7143
 2046TIP3    H227554   5.430   5.128  14.528  1.6303 -1.0889 -0.5248
 2047TIP3   OH227555   2.080   3.996   4.744  0.9629 -0.6771  0.0685
 2047TIP3    H127556   2.073   4.040   4.659  1.1316 -2.3648 -0.8709
 2047TIP3    H227557   2.014   4.038   4.798  0.4679  0.0608 -1.0657
 2048TIP3   OH227558   3.491   2.734  13.897  0.4964  0.0075 -0.4243
 2048TIP3    H127559   3.586   2.723  13.897  0.4988  0.0293 -0.5582
 2048TIP3    H227560   3.470   2.757  13.988  0.5686 -0.4199 -0.2955
 2049TIP3   OH227561   2.307   6.468   3.373 -0.0968  0.1740 -0.3504
 2049TIP3    H127562   2.324   6.432   3.285  2.3368  0.0241  0.1061
 2049TIP3    H227563   2.230   6.420   3.404  1.4105 -2.7645 -0.8352
 2050TIP3   OH227564   2.304   3.601  16.232  0.3037 -0.6123 -0.6591
 2050TIP3    H127565   2.348   3.668  16.283  0.7087 -0.8182 -0.7353
 2050TIP3    H227566   2.227   3.645  16.195  0.7441 -0.1078 -0.9719
 2051TIP3   OH227567   5.152   4.624   6.253 -0.0693 -0.1543  0.5521
 2051TIP3    H127568   5.227   4.674   6.285 -0.0351  2.7552 -3.3518
 2051TIP3    H227569   5.078   4.654   6.306  0.2668  3.0421 -0.5951
 2052TIP3   OH227570   6.381   2.154   4.137 -0.0801  0.8126  0.6194
 2052TIP3    H127571   6.418   2.194   4.059  0.3181  1.5782  1.1880
 2052TIP3    H227572   6.441   2.177   4.207 -1.7492  2.3672  1.6205
 2053TIP3   OH227573   6.193   2.067  11.598  0.1941  0.2977 -0.1656
 2053TIP3    H127574   6.115   2.121  11.582 -0.1879 -0.1219  0.2250
 2053TIP3    H227575   6.157   1.980  11.617  0.6218  0.6372  2.4571
 2054TIP3   OH227576   0.929   2.985  11.110 -0.6725  0.8002  0.0901
 2054TIP3    H127577   0.873   3.062  11.118  0.7654  1.9963 -0.8689
 2054TIP3    H227578   0.911   2.951  11.023 -0.6072  0.6104  0.1498
 2055TIP3   OH227579   6.156   0.112   2.117  0.2482 -0.0546  0.1584
 2055TIP3    H127580   6.102   0.163   2.057 -2.7664 -2.3768  0.6432
 2055TIP3    H227581   6.209   0.177   2.163 -2.4911  2.5480 -0.0579
 2056TIP3   OH227582   5.051   5.775   0.499 -0.0331  0.1245  0.1043
 2056TIP3    H127583   5.027   5.703   0.557 -1.4228  1.0542  0.7303
 2056TIP3    H227584   5.097   5.838   0.555 -0.8264  0.7433  0.0740
 2057TIP3   OH227585   5.743   0.737   6.212 -0.4391 -0.2226 -0.1181
 2057TIP3    H127586   5.661   0.782   6.231 -0.9257 -0.7496 -0.8881
 2057TIP3    H227587   5.723   0.644   6.221 -0.0089 -0.3714 -0.6037
 2058TIP3   OH227588   1.136   3.078   4.081 -0.2734 -0.3358  0.3912
 2058TIP3    H127589   1.157   2.992   4.044  1.1612  0.7627 -1.5323
 2058TIP3    H227590   1.120   3.134   4.004 -2.2478  0.9062  1.6118
 2059TIP3   OH227591   2.521   5.496  14.960 -0.2705 -0.2546  0.1357
 2059TIP3    H127592   2.523   5.465  15.050  1.5616 -0.5593  0.0188
 2059TIP3    H227593   2.594   5.451  14.917 -1.1542 -0.1853 -1.5350
 2060TIP3   OH227594   1.975   0.963   3.610  0.2594 -0.5941 -0.2504
 2060TIP3    H127595   1.977   0.892   3.674 -0.6770 -0.8057 -0.4512
 2060TIP3    H227596   1.883   0.989   3.605  0.4703  0.0789 -0.7927
 2061TIP3   OH227597   2.050   5.148   1.877  0.2334  0.3523 -0.3815
 2061TIP3    H127598   1.971   5.144   1.931 -0.9976  0.4116 -2.1142
 2061TIP3    H227599   2.072   5.057   1.858 -0.9789  0.3623 -2.0286
 2062TIP3   OH227600   5.192   4.386   5.670 -0.1130 -0.3453 -0.9711
 2062TIP3    H127601   5.214   4.293   5.680  2.3654  0.3863  1.4160
 2062TIP3    H227602   5.135   4.405   5.745  0.1642  0.2714 -0.9140
 2063TIP3   OH227603   5.581   5.568  15.197  0.4894  1.4220 -0.3791
 2063TIP3    H127604   5.554   5.546  15.286  0.9849  0.9789 -0.3289
 2063TIP3    H227605   5.528   5.643  15.173  0.4658  1.6442  0.3540
 2064TIP3   OH227606   3.106   6.541   6.205  0.7359 -0.1551 -0.2543
 2064TIP3    H127607   3.092   6.530   6.299  0.2312  1.2229 -0.1429
 2064TIP3    H227608   3.198   6.569   6.198  0.3837  1.1304 -0.0182
 2065TIP3   OH227609   1.688   5.493   2.367  0.0916  0.1106  0.0186
 2065TIP3    H127610   1.731   5.521   2.448 -1.5189  0.0402  0.9237
 2065TIP3    H227611   1.620   5.432   2.396  0.8264 -1.5576 -1.5677
 2066TIP3   OH227612   1.724   2.298  11.133  0.1151  0.3537 -0.7282
 2066TIP3    H127613   1.713   2.364  11.064 -2.0696  0.4830 -0.3365
 2066TIP3    H227614   1.643   2.247  11.130  0.6656 -0.6595  0.7019
 2067TIP3   OH227615   6.051   6.330   0.499  0.4743  0.6438  0.1204
 2067TIP3    H127616   6.019   6.389   0.431 -0.9331  1.9402  1.8214
 2067TIP3    H227617   6.029   6.373   0.582  1.3011 -1.2804  1.4285
 2068TIP3   OH227618   3.004   5.264  13.378  0.1357 -0.1004 -0.1282
 2068TIP3    H127619   3.045   5.311  13.450  1.5439  0.6643 -1.3691
 2068TIP3    H227620   2.995   5.330  13.309 -1.8289 -0.6337 -0.4301
 2069TIP3   OH227621   4.883   2.422   1.835  0.0658  0.2374  0.4610
 2069TIP3    H127622   4.793   2.397   1.857 -0.2765  1.0006 -0.0445
 2069TIP3    H227623   4.898   2.502   1.886  0.8819 -0.5360  1.4678
 2070TIP3   OH227624   3.183   6.757   0.957 -0.4559 -0.2602  0.1198
 2070TIP3    H127625   3.173   6.693   0.886  0.1685 -0.0720 -0.1448
 2070TIP3    H227626   3.270   6.795   0.942 -0.3906 -0.0999  0.8886
 2071TIP3   OH227627   1.493   1.661   2.393 -0.8593 -0.6916  0.2489
 2071TIP3    H127628   1.582   1.694   2.384 -1.0198 -0.0554  0.9714
 2071TIP3    H227629   1.501   1.588   2.455 -0.8001 -0.8482  0.0614
 2072TIP3   OH227630   4.293   0.908   0.687 -0.1477 -0.0919 -0.5766
 2072TIP3    H127631   4.229   0.938   0.623  0.7887 -1.0883 -2.0551
 2072TIP3    H227632   4.244   0.901   0.769 -1.1557  2.1269 -0.9373
 2073TIP3   OH227633   2.445   5.034  14.361 -0.2629  0.3206 -0.0157
 2073TIP3    H127634   2.518   5.093  14.382 -0.5908  0.1725  1.7492
 2073TIP3    H227635   2.368   5.082  14.391 -0.7055 -0.2638 -0.2305
 2074TIP3   OH227636   4.490   5.709  13.448  0.2895  0.3703 -0.4871
 2074TIP3    H127637   4.513   5.658  13.371  1.2006  0.7354 -0.4728
 2074TIP3    H227638   4.571   5.753  13.473  0.7965 -1.8516  2.3204
 2075TIP3   OH227639   2.106   3.183   1.647 -0.3209  0.1750 -0.2897
 2075TIP3    H127640   2.051   3.139   1.581  1.5289 -1.2171 -0.9934
 2075TIP3    H227641   2.141   3.111   1.700 -0.3202  1.1498  1.0873
 2076TIP3   OH227642   0.675   1.057   3.671 -0.4320  0.4305  0.2042
 2076TIP3    H127643   0.684   1.049   3.766  2.6366 -0.6620 -0.0838
 2076TIP3    H227644   0.699   1.148   3.652 -1.6915  0.8427  0.4793
 2077TIP3   OH227645   3.628   2.785   4.042  0.3079  0.0003  0.3346
 2077TIP3    H127646   3.691   2.776   3.970  0.3563 -0.5725  0.4444
 2077TIP3    H227647   3.640   2.874   4.073  0.0055  0.3902 -0.6285
 2078TIP3   OH227648   6.318   4.533   4.744  0.5257 -0.1817  0.1385
 2078TIP3    H127649   6.248   4.553   4.682  0.0248  2.2724  1.3902
 2078TIP3    H227650   6.399   4.543   4.693  0.2342  3.6731  0.1689
 2079TIP3   OH227651   4.103   1.054   0.453 -0.4246 -0.0186 -0.6976
 2079TIP3    H127652   4.165   1.103   0.506  0.7295 -2.1408  0.0209
 2079TIP3    H227653   4.154   1.021   0.379 -1.4868  0.9337 -1.9058
 2080TIP3   OH227654   0.623   4.224   3.935 -0.2421  0.2093 -0.1093
 2080TIP3    H127655   0.530   4.246   3.938 -0.4508 -0.3387 -1.8225
 2080TIP3    H227656   0.638   4.190   3.847  1.7762  1.1003 -0.1714
 2081TIP3   OH227657   0.897   0.819   2.914 -0.0450 -0.2193  0.0751
 2081TIP3    H127658   0.952   0.805   2.991 -1.2625  0.4880  1.1016
 2081TIP3    H227659   0.958   0.845   2.845  1.0089 -0.4177  0.9176
 2082TIP3   OH227660   6.217   0.150   3.978 -0.2590  0.2511  0.3813
 2082TIP3    H127661   6.209   0.242   4.002  1.1652  0.6550 -0.5884
 2082TIP3    H227662   6.310   0.131   3.985 -0.5357 -1.1599  0.6622
 2083TIP3   OH227663   5.803   1.868  10.848  0.3374  0.1994  0.3951
 2083TIP3    H127664   5.799   1.962  10.831 -1.8346  0.2284  0.7781
 2083TIP3    H227665   5.890   1.854  10.885  1.9612  1.4990 -2.6020
 2084TIP3   OH227666   3.503   0.629  14.507  0.2925 -0.0846 -0.4467
 2084TIP3    H127667   3.411   0.629  14.533  1.4341  1.4553  4.7074
 2084TIP3    H227668   3.533   0.540  14.524  0.0057 -0.3598 -1.3166
 2085TIP3   OH227669   2.587   3.330   0.126 -0.0098  0.0746 -0.5912
 2085TIP3    H127670   2.565   3.316   0.218  2.8759 -1.1281  0.0130
 2085TIP3    H227671   2.610   3.423   0.121 -0.5507  0.2348 -0.1879
 2086TIP3   OH227672   6.151   3.458  15.698  0.1471 -0.3901  0.4857
 2086TIP3    H127673   6.228   3.512  15.717  0.4806 -0.5384 -0.4094
 2086TIP3    H227674   6.102   3.508  15.633 -0.1752 -0.5977  0.5656
 2087TIP3   OH227675   4.327   0.079   1.139 -0.0534  0.4607 -0.2186
 2087TIP3    H127676   4.381   0.100   1.216 -0.3959 -1.5657  0.6395
 2087TIP3    H227677   4.325   0.160   1.089  1.6576  1.3420  1.0151
 2088TIP3   OH227678   6.211   3.674   1.182  0.2828 -0.0114  0.0757
 2088TIP3    H127679   6.161   3.701   1.259  0.3650 -2.2075  0.9870
 2088TIP3    H227680   6.301   3.669   1.212  0.4289 -0.1456 -0.3779
 2089TIP3   OH227681   1.943   6.149   6.462  0.2747 -0.3829 -0.1839
 2089TIP3    H127682   1.977   6.237   6.476  0.5841  0.0533 -3.0458
 2089TIP3    H227683   2.021   6.093   6.465  0.6696 -0.0061 -2.0357
 2090TIP3   OH227684   5.711   2.547  13.767  0.3638 -0.0341  0.0625
 2090TIP3    H127685   5.678   2.533  13.856  2.0727 -1.5887  0.5076
 2090TIP3    H227686   5.778   2.614  13.777  0.2599  0.1037 -0.1447
 2091TIP3   OH227687   4.014   6.499   4.122 -0.1880 -0.4882  0.4819
 2091TIP3    H127688   4.080   6.434   4.147 -0.4818 -1.0754 -0.2186
 2091TIP3    H227689   3.987   6.538   4.205  2.4942  1.2582  0.6765
 2092TIP3   OH227690   1.579   1.097   1.599  0.2621  0.3205 -0.3936
 2092TIP3    H127691   1.637   1.163   1.562 -1.7284  2.0903 -0.5635
 2092TIP3    H227692   1.622   1.069   1.680  2.0905  0.3279 -1.3053
 2093TIP3   OH227693   4.513   4.485  13.809 -0.0815 -0.4671 -0.0855
 2093TIP3    H127694   4.514   4.437  13.726 -1.3702 -2.8000  1.1518
 2093TIP3    H227695   4.573   4.437  13.865 -0.5441  0.0336  0.8619
 2094TIP3   OH227696   4.057   6.393   0.602 -0.0331 -0.4375  0.2915
 2094TIP3    H127697   4.081   6.426   0.688  3.0055 -0.3579 -0.4604
 2094TIP3    H227698   4.134   6.410   0.548 -0.6745 -3.1627 -1.6898
 2095TIP3   OH227699   1.070   6.759   1.943 -0.1945  0.1684  0.1524
 2095TIP3    H127700   1.119   6.827   1.989 -1.2924  1.2988 -0.2883
 2095TIP3    H227701   1.015   6.720   2.010 -0.1537  0.2719  0.2470
 2096TIP3   OH227702   3.527   3.098  15.873 -0.2581  0.3793 -0.0565
 2096TIP3    H127703   3.601   3.100  15.812 -0.9982 -1.9838 -1.1606
 2096TIP3    H227704   3.453   3.128  15.821 -0.7022 -0.6226 -0.0119
 2097TIP3   OH227705   2.958   1.594  14.730 -0.0303 -0.2769  0.3606
 2097TIP3    H127706   2.870   1.556  14.739 -0.6659 -0.4252 -4.1185
 2097TIP3    H227707   2.942   1.688  14.722  0.4380 -0.1104  1.3588
 2098TIP3   OH227708   5.621   1.954  14.151  0.1020  0.0442 -0.0590
 2098TIP3    H127709   5.568   1.889  14.197  1.1857 -1.8699 -1.3741
 2098TIP3    H227710   5.710   1.943  14.186  0.4378  0.3215 -0.7863
 2099TIP3   OH227711   4.184   2.925  15.920  0.1392  0.0299  0.5859
 2099TIP3    H127712   4.140   2.884  15.846  2.2273 -1.0618 -0.1347
 2099TIP3    H227713   4.150   2.877  15.996  0.9771 -1.7221 -0.0709
 2100TIP3   OH227714   2.524   0.518   4.745 -0.0533 -0.1175  0.2059
 2100TIP3    H127715   2.553   0.483   4.829 -1.2062 -0.1606  0.6125
 2100TIP3    H227716   2.429   0.530   4.756 -0.3667 -0.8946 -1.3645
 2101TIP3   OH227717   6.596   0.049  15.911 -0.5398 -0.7002  0.3326
 2101TIP3    H127718   6.558   0.136  15.922 -0.4646 -0.5674 -0.4384
 2101TIP3    H227719   6.557  -0.003  15.981  0.9634  0.4425  2.1255
 2102TIP3   OH227720   2.922   1.949  11.413 -0.2319 -0.0150  0.1226
 2102TIP3    H127721   2.960   1.926  11.328 -3.1026 -1.1057 -1.0317
 2102TIP3    H227722   2.856   2.015  11.392  1.4298  2.4265  2.1092
 2103TIP3   OH227723   1.389   1.134   3.368  0.9480  0.0766 -0.4830
 2103TIP3    H127724   1.381   1.181   3.285 -1.5786  1.6605  0.5506
 2103TIP3    H227725   1.428   1.198   3.429 -1.3621  0.5251  0.6193
 2104TIP3   OH227726   1.648   5.966  16.237 -0.2221  0.3698 -0.6530
 2104TIP3    H127727   1.639   5.874  16.263 -0.8577  0.8679  1.0741
 2104TIP3    H227728   1.575   6.010  16.281 -0.2428  1.6317 -1.8883
 2105TIP3   OH227729   4.783   2.377   2.895  0.0123  0.0418  0.5565
 2105TIP3    H127730   4.770   2.416   2.808 -1.2923  0.8382  1.0807
 2105TIP3    H227731   4.760   2.285   2.883  0.5015 -0.0104 -0.0821
 2106TIP3   OH227732   3.608   0.466  16.063  0.6146 -0.1829  0.4057
 2106TIP3    H127733   3.630   0.540  16.006 -1.4372 -0.1572 -0.4327
 2106TIP3    H227734   3.680   0.462  16.126  0.0403  3.5703  1.5573
 2107TIP3   OH227735   1.804   3.147   0.159  0.5198  0.3149  0.0076
 2107TIP3    H127736   1.734   3.135   0.096  1.1194 -1.0923 -0.4301
 2107TIP3    H227737   1.851   3.225   0.128 -0.3995  0.8377 -0.1005
 2108TIP3   OH227738   6.731   0.442   3.141  0.3317 -0.5761  0.6113
 2108TIP3    H127739   6.764   0.486   3.063 -0.4172 -0.6361  0.2567
 2108TIP3    H227740   6.802   0.382   3.166  1.3220  0.7268  1.0437
 2109TIP3   OH227741   4.016   2.713  14.302 -0.0980  0.2125 -0.2073
 2109TIP3    H127742   3.956   2.776  14.343  1.3437  2.1189 -0.9170
 2109TIP3    H227743   4.056   2.667  14.376 -0.4729  0.7677  0.3553
 2110TIP3   OH227744   1.080   0.931   1.442 -0.0343 -0.3557 -0.4697
 2110TIP3    H127745   1.136   0.917   1.365  0.0804 -1.2164 -0.2433
 2110TIP3    H227746   1.069   0.843   1.479  1.3905  0.2585  1.5377
 2111TIP3   OH227747   1.066   5.332  14.316  0.1791 -0.1701  0.2541
 2111TIP3    H127748   0.974   5.331  14.341 -0.2736 -1.0715 -1.2963
 2111TIP3    H227749   1.069   5.281  14.235  2.0686 -0.2866  0.3565
 2112TIP3   OH227750   5.973   5.324   5.581  0.1661  0.0206  0.9479
 2112TIP3    H127751   6.014   5.286   5.658 -0.0640  0.5101  1.3183
 2112TIP3    H227752   6.033   5.304   5.509  0.6586  0.0466  1.3497
 2113TIP3   OH227753   0.728   6.705   3.686 -0.2593  0.6005  0.0677
 2113TIP3    H127754   0.769   6.762   3.750 -0.2954 -1.4310  2.0308
 2113TIP3    H227755   0.638   6.737   3.679  0.1055  1.6489 -0.0043
 2114TIP3   OH227756   4.351   5.297   5.857 -0.3346 -1.0052 -0.0592
 2114TIP3    H127757   4.362   5.371   5.917  0.7623 -2.1049  1.1610
 2114TIP3    H227758   4.351   5.337   5.769  0.0895  0.4395  0.5695
 2115TIP3   OH227759   4.527   4.061   5.157 -0.0688 -0.1809 -0.0616
 2115TIP3    H127760   4.523   4.093   5.247 -1.8176 -1.8269  0.4996
 2115TIP3    H227761   4.444   4.090   5.118  0.3509 -0.1289 -0.9373
 2116TIP3   OH227762   5.653   3.915   0.737 -0.2920  0.2891  0.0695
 2116TIP3    H127763   5.707   3.982   0.694 -0.1036  0.1857  0.1407
 2116TIP3    H227764   5.707   3.836   0.734 -0.4226  0.1953  0.1839
 2117TIP3   OH227765   2.450   0.311  12.684  0.4334 -0.0988  0.2358
 2117TIP3    H127766   2.377   0.249  12.684 -0.4279  0.8924 -0.2951
 2117TIP3    H227767   2.502   0.287  12.761 -1.3824  0.2541  1.6347
 2118TIP3   OH227768   6.703   5.016   5.225 -0.0259 -0.2165 -0.5180
 2118TIP3    H127769   6.671   4.963   5.152 -1.9750 -1.7372  1.3153
 2118TIP3    H227770   6.773   4.963   5.264 -2.5671 -2.1642  1.8682
 2119TIP3   OH227771   0.087   6.681  14.856 -0.0038  0.3172 -0.1297
 2119TIP3    H127772   0.178   6.709  14.848  0.4328 -0.7847  0.6958
 2119TIP3    H227773   0.072   6.676  14.950 -0.4481 -0.9397 -0.2546
 2120TIP3   OH227774   4.720   3.144  12.978  0.1265  0.6084 -0.2462
 2120TIP3    H127775   4.697   3.181  13.063 -1.3186 -0.5719 -0.0732
 2120TIP3    H227776   4.789   3.081  12.997  2.1433  2.6045 -0.4562
 2121TIP3   OH227777   0.125   0.192   5.278 -0.0600  0.2951  0.4943
 2121TIP3    H127778   0.200   0.133   5.286 -0.1761 -0.1546 -1.3221
 2121TIP3    H227779   0.059   0.154   5.335  0.3124 -0.6290  0.3316
 2122TIP3   OH227780   5.555   0.192   0.249  0.0005  0.1272  0.0191
 2122TIP3    H127781   5.525   0.268   0.200 -0.1428 -0.3221 -0.6071
 2122TIP3    H227782   5.489   0.179   0.318 -0.6454 -0.1718 -0.6438
 2123TIP3   OH227783   0.186   2.309   1.371  0.1449 -0.1607  0.2651
 2123TIP3    H127784   0.262   2.354   1.407 -0.0086  0.8355 -0.6211
 2123TIP3    H227785   0.125   2.304   1.445  0.7716 -0.3190  0.7872
 2124TIP3   OH227786   3.988   5.312  14.581 -0.1503  0.0701 -0.0411
 2124TIP3    H127787   4.068   5.260  14.595  1.5510  2.4761 -0.1247
 2124TIP3    H227788   3.986   5.327  14.486 -1.4660 -1.0429 -0.2118
 2125TIP3   OH227789   3.094   6.490   4.371 -0.9767 -0.4170 -0.2814
 2125TIP3    H127790   3.179   6.448   4.390 -1.4806 -1.6072 -0.5357
 2125TIP3    H227791   3.095   6.504   4.277 -0.8948 -0.0308 -0.2248
 2126TIP3   OH227792   2.709   4.249   6.762  0.0003 -0.3029  0.3265
 2126TIP3    H127793   2.749   4.289   6.685 -0.7529 -0.7632 -0.3172
 2126TIP3    H227794   2.684   4.161   6.734  0.7997 -0.9228  1.4551
 2127TIP3   OH227795   6.022   1.218   0.791 -0.0085  0.0744  0.5214
 2127TIP3    H127796   5.956   1.286   0.799 -0.3073 -0.2709  0.9834
 2127TIP3    H227797   5.998   1.152   0.855  1.4911  0.5187  1.6009
 2128TIP3   OH227798   6.390   4.938   4.076 -0.2347  0.5216 -0.4504
 2128TIP3    H127799   6.392   5.031   4.056  1.1775  0.8122  0.8414
 2128TIP3    H227800   6.431   4.897   3.999  0.2284  1.0939 -0.5211
 2129TIP3   OH227801   2.108   3.094  13.784 -0.2763 -0.2811  0.1593
 2129TIP3    H127802   2.063   3.092  13.700  1.2797 -0.8806 -0.7027
 2129TIP3    H227803   2.141   3.005  13.796  2.1914  0.5196 -0.1360
 2130TIP3   OH227804   4.817   2.282  16.903  0.3567 -0.1658  0.3238
 2130TIP3    H127805   4.813   2.190  16.879 -4.1683 -0.0452 -0.1394
 2130TIP3    H227806   4.748   2.324  16.852  1.8976  3.4538  0.8893
 2131TIP3   OH227807   4.372   3.680  15.807  0.3312 -0.5969  0.3534
 2131TIP3    H127808   4.465   3.658  15.801  0.5402  0.1791  0.6425
 2131TIP3    H227809   4.335   3.615  15.867  1.4266  1.2059  3.2062
 2132TIP3   OH227810   5.152   0.784   3.480 -0.5813 -0.6102  0.7174
 2132TIP3    H127811   5.119   0.833   3.555  0.9643  2.1652 -0.2869
 2132TIP3    H227812   5.220   0.840   3.442 -1.4283 -1.7706 -2.9036
 2133TIP3   OH227813   5.562   3.983  14.924 -0.6649 -0.3813 -0.4880
 2133TIP3    H127814   5.471   3.989  14.952 -0.8526  0.6657 -1.2521
 2133TIP3    H227815   5.566   4.037  14.845  1.0810  1.4411  0.7339
 2134TIP3   OH227816   4.054   2.824  16.165  0.4144  0.1722 -0.0886
 2134TIP3    H127817   4.021   2.758  16.226  0.9859 -0.0213  0.0243
 2134TIP3    H227818   3.998   2.900  16.179 -0.7002 -0.5180 -0.7250
 2135TIP3   OH227819   0.186   4.086   3.303  0.2865  0.0683 -0.0439
 2135TIP3    H127820   0.153   4.003   3.335 -0.2760  0.0312 -0.6937
 2135TIP3    H227821   0.202   4.071   3.209 -1.5354  1.1802 -0.5778
 2136TIP3   OH227822   5.774   4.493  13.232  0.0947  0.3834 -0.1817
 2136TIP3    H127823   5.825   4.412  13.227 -1.0884 -0.3428 -0.9919
 2136TIP3    H227824   5.693   4.473  13.185 -0.2650  2.0143 -0.3035
 2137TIP3   OH227825   2.637   1.825   1.292 -0.8158 -0.3753 -0.7256
 2137TIP3    H127826   2.716   1.811   1.345 -0.6204 -1.1744 -1.2077
 2137TIP3    H227827   2.651   1.909   1.249  1.2268 -1.8678 -3.2513
 2138TIP3   OH227828   5.081   5.540   0.609 -0.1642 -0.1525  0.0823
 2138TIP3    H127829   5.172   5.568   0.618  0.0322 -0.7505  0.0559
 2138TIP3    H227830   5.064   5.487   0.687 -0.4703 -0.0952  0.0564
 2139TIP3   OH227831   3.432   0.809   0.082 -0.3651  0.8063 -0.2436
 2139TIP3    H127832   3.430   0.771   0.170  1.9797 -2.7526 -1.4586
 2139TIP3    H227833   3.509   0.866   0.082 -0.1789  0.5609 -0.0259
 2140TIP3   OH227834   1.713   3.384  11.038  0.4918  0.4753 -0.5708
 2140TIP3    H127835   1.769   3.434  10.978 -0.7079  2.5062 -0.1201
 2140TIP3    H227836   1.630   3.433  11.040 -0.4043 -0.9751  0.7616
 2141TIP3   OH227837   1.863   0.345  14.063  0.0472 -0.1426  0.4546
 2141TIP3    H127838   1.869   0.300  13.979  0.0472 -0.2474  0.5102
 2141TIP3    H227839   1.771   0.337  14.088 -0.0873  0.4450  0.1584
 2142TIP3   OH227840   3.447   1.694   2.255 -0.9771  0.0045  0.2136
 2142TIP3    H127841   3.530   1.718   2.297 -1.4222 -1.9896  2.3961
 2142TIP3    H227842   3.440   1.755   2.181  2.3752  0.2854 -0.0241
 2143TIP3   OH227843   1.515   4.566   3.755 -0.6664 -0.3758 -0.6483
 2143TIP3    H127844   1.583   4.513   3.714 -0.7060 -1.3243  0.4537
 2143TIP3    H227845   1.513   4.647   3.704  0.7464 -0.6503 -1.1707
 2144TIP3   OH227846   5.510   2.029  13.746 -0.2496 -0.3508 -0.5643
 2144TIP3    H127847   5.546   2.049  13.660 -0.5544  3.4051  0.0080
 2144TIP3    H227848   5.586   2.012  13.801  0.0621 -0.7437 -1.1062
 2145TIP3   OH227849   6.202   3.211  15.814 -0.0392 -0.5568  0.0476
 2145TIP3    H127850   6.231   3.176  15.730 -1.3029 -1.5608 -0.0066
 2145TIP3    H227851   6.186   3.304  15.797  4.0779  0.3945  0.3831
 2146TIP3   OH227852   1.820   4.215  14.206  0.4441 -0.0705  0.2658
 2146TIP3    H127853   1.828   4.217  14.301  1.5425  0.7213  0.1697
 2146TIP3    H227854   1.892   4.160  14.176  1.3917  1.3571 -0.2005
 2147TIP3   OH227855   5.157   0.185   1.270  0.4722  0.0752  0.2527
 2147TIP3    H127856   5.140   0.271   1.309 -0.8290  0.1803 -0.4795
 2147TIP3    H227857   5.070   0.144   1.265  0.8139 -0.5401 -1.1017
 2148TIP3   OH227858   1.647   3.922   6.785  0.2712 -0.5550  0.3157
 2148TIP3    H127859   1.619   3.990   6.724  0.0644 -1.4167 -0.5840
 2148TIP3    H227860   1.731   3.952   6.818 -1.0859  1.5180  2.1635
 2149TIP3   OH227861   0.307   4.532  15.291  0.1022 -0.1492  0.1746
 2149TIP3    H127862   0.385   4.476  15.292  0.6300  0.5801  0.2361
 2149TIP3    H227863   0.237   4.474  15.259  0.9644 -0.4383 -1.2860
 2150TIP3   OH227864   3.766   0.693   4.337  0.3231  0.4552 -0.2891
 2150TIP3    H127865   3.836   0.651   4.386 -0.3341  0.7263  0.9135
 2150TIP3    H227866   3.768   0.650   4.251  1.6093  0.1068 -0.1095
 2151TIP3   OH227867   4.812   1.779   2.149  0.2093  0.3326  0.1561
 2151TIP3    H127868   4.842   1.752   2.062 -0.8935  0.8076 -0.3968
 2151TIP3    H227869   4.891   1.780   2.202  0.8543 -0.2925 -0.7546
 2152TIP3   OH227870   1.006   6.015  12.888  0.3056  0.1725 -0.2029
 2152TIP3    H127871   1.076   6.070  12.924  2.2541 -1.0136 -1.9587
 2152TIP3    H227872   1.052   5.946  12.840 -2.0881 -1.2620 -0.5860
 2153TIP3   OH227873   1.598   2.096   1.957 -0.3228  0.6523 -0.8944
 2153TIP3    H127874   1.669   2.036   1.981 -1.0642  0.3532  0.6695
 2153TIP3    H227875   1.568   2.064   1.871 -0.5009 -1.0840 -0.2425
 2154TIP3   OH227876   1.984   2.339   3.197 -0.0988  0.2774  0.1346
 2154TIP3    H127877   1.915   2.404   3.210  0.5955  1.0821 -0.1352
 2154TIP3    H227878   2.026   2.365   3.115 -0.2988 -0.9637 -0.3794
 2155TIP3   OH227879   6.199   2.032  12.191  0.2596 -0.2564 -0.3052
 2155TIP3    H127880   6.122   2.088  12.199  0.2031 -0.2234 -1.0357
 2155TIP3    H227881   6.272   2.094  12.186  0.1713 -0.2315 -1.4116
 2156TIP3   OH227882   2.957   2.478   3.733  0.3857 -0.4783 -0.0467
 2156TIP3    H127883   2.884   2.536   3.757  0.5189  0.2820 -1.3460
 2156TIP3    H227884   2.920   2.390   3.737 -0.3663 -0.1628  0.1406
 2157TIP3   OH227885   4.266   5.164  11.848  0.3774  0.8056 -0.2226
 2157TIP3    H127886   4.329   5.100  11.816  0.9966  1.2771  0.0425
 2157TIP3    H227887   4.254   5.225  11.775  1.4067  1.5932  0.2486
 2158TIP3   OH227888   5.979   4.302  12.634  0.3009 -0.2405  0.0903
 2158TIP3    H127889   6.017   4.340  12.713 -1.2462  0.8713  0.3427
 2158TIP3    H227890   6.027   4.343  12.562 -0.8618  1.7687  0.3789
 2159TIP3   OH227891   4.245   0.679   5.139 -0.1762  0.3626  0.2747
 2159TIP3    H127892   4.201   0.683   5.224  0.1239 -0.3727  0.4745
 2159TIP3    H227893   4.216   0.758   5.093 -2.4548 -0.5439  0.0315
 2160TIP3   OH227894   0.473   2.293  11.716 -0.5141  1.1021 -0.0467
 2160TIP3    H127895   0.562   2.282  11.748 -0.6300 -0.7481 -0.2218
 2160TIP3    H227896   0.482   2.325  11.627 -0.0821  2.4784  0.4788
 2161TIP3   OH227897   3.811   2.743   3.835  0.5644  0.1540 -0.0581
 2161TIP3    H127898   3.758   2.663   3.829  1.1153 -0.5423  2.7436
 2161TIP3    H227899   3.871   2.738   3.760  0.1822 -1.7590 -0.2852
 2162TIP3   OH227900   1.201   6.360  16.552 -0.1645  0.2315  0.1324
 2162TIP3    H127901   1.171   6.291  16.611  0.4745  1.1624  1.6149
 2162TIP3    H227902   1.286   6.330  16.521 -1.2177 -1.0449 -1.7434
 2163TIP3   OH227903   2.553   1.537  12.747  0.4852 -0.1881  0.1686
 2163TIP3    H127904   2.555   1.511  12.839  0.9950  1.2213  0.5780
 2163TIP3    H227905   2.460   1.542  12.726  0.3640 -1.5594  0.2722
 2164TIP3   OH227906   3.710   6.740   3.206 -0.1580 -0.5981  0.6819
 2164TIP3    H127907   3.631   6.753   3.153  0.0264  0.6927  0.6952
 2164TIP3    H227908   3.772   6.698   3.147  0.0875  0.9343 -0.2038
 2165TIP3   OH227909   4.967   6.313  16.236 -0.1875  0.0972 -0.2983
 2165TIP3    H127910   4.917   6.234  16.216 -2.0539  0.3400  2.6575
 2165TIP3    H227911   4.909   6.385  16.210  0.1781  0.4376 -0.1862
 2166TIP3   OH227912   2.224   0.595   2.573 -0.6976  0.1018 -0.1839
 2166TIP3    H127913   2.257   0.517   2.528  0.3420  0.8387 -0.7095
 2166TIP3    H227914   2.178   0.644   2.505 -0.5757  0.3939 -0.0526
 2167TIP3   OH227915   0.944   5.081   3.789 -0.3615 -0.3527 -0.3702
 2167TIP3    H127916   0.890   5.157   3.766  0.2456  0.4775  0.8696
 2167TIP3    H227917   0.881   5.016   3.820 -0.7560  0.2647  0.1655
 2168TIP3   OH227918   0.967   1.197   5.977  0.5474 -0.2641 -0.0468
 2168TIP3    H127919   0.944   1.146   5.899  0.0570  2.8882 -2.1331
 2168TIP3    H227920   0.882   1.225   6.012  0.8209  0.3558  0.1319
 2169TIP3   OH227921   1.321   5.203   1.520 -0.0853 -0.2443  0.1861
 2169TIP3    H127922   1.288   5.242   1.601  0.5397 -2.7607  1.7785
 2169TIP3    H227923   1.416   5.214   1.526 -0.0135 -0.6993 -0.0418
 2170TIP3   OH227924   2.239   0.172   5.301 -0.3611 -0.3913  0.2258
 2170TIP3    H127925   2.229   0.247   5.359  1.0938  0.6146 -0.7476
 2170TIP3    H227926   2.224   0.207   5.213  0.1110 -1.2796 -0.2263
 2171TIP3   OH227927   4.278   5.792   2.037 -0.7130 -0.2592  0.3708
 2171TIP3    H127928   4.247   5.738   2.110 -0.5228 -0.5163  0.2627
 2171TIP3    H227929   4.367   5.818   2.061  0.1251 -2.0136 -0.6552
 2172TIP3   OH227930   6.445   3.906  16.073  0.6200 -0.6289  0.2147
 2172TIP3    H127931   6.410   3.956  15.999  1.6578 -0.8006 -0.4329
 2172TIP3    H227932   6.404   3.820  16.065 -2.6309  0.5335  2.4298
 2173TIP3   OH227933   2.602   4.160   6.480 -0.3160  0.0540  0.0233
 2173TIP3    H127934   2.602   4.070   6.448 -0.5667  0.3983 -0.9880
 2173TIP3    H227935   2.682   4.199   6.444 -0.7810  0.5455 -0.5125
 2174TIP3   OH227936   2.616   2.530  15.103  0.5506  0.5555 -0.3093
 2174TIP3    H127937   2.576   2.486  15.178  1.9524 -0.6994 -0.2528
 2174TIP3    H227938   2.542   2.565  15.053 -0.4573  0.5551  1.1273
 2175TIP3   OH227939   4.195   0.905  11.031  0.0867 -0.1879 -0.1333
 2175TIP3    H127940   4.139   0.928  10.958 -0.8212 -1.2703  0.1988
 2175TIP3    H227941   4.188   0.980  11.091  0.6167  0.5752 -1.0060
 2176TIP3   OH227942   2.900   5.336  13.666  0.2468  0.1375  0.2727
 2176TIP3    H127943   2.897   5.372  13.578  0.0384 -0.7614 -0.0986
 2176TIP3    H227944   2.988   5.298  13.675  0.3558  0.4491  0.5431
 2177TIP3   OH227945   3.605   5.739   2.278  0.5973  0.4496 -0.3661
 2177TIP3    H127946   3.597   5.644   2.270  1.5907  0.2202  1.0351
 2177TIP3    H227947   3.631   5.754   2.369  2.9392  1.8661 -1.1649
 2178TIP3   OH227948   1.244   5.822   2.182 -0.2689 -0.0883 -0.0214
 2178TIP3    H127949   1.281   5.900   2.141 -0.4760  1.1126  1.9491
 2178TIP3    H227950   1.153   5.819   2.150 -0.0213  0.0011 -0.7434
 2179TIP3   OH227951   3.431   3.616   1.151  0.5182 -0.4452  0.0123
 2179TIP3    H127952   3.448   3.653   1.238  0.9069 -0.9933  0.1746
 2179TIP3    H227953   3.336   3.605   1.148  0.1731  2.0893 -0.6719
 2180TIP3   OH227954   6.690   3.894  15.929  0.5381 -0.2448 -0.2131
 2180TIP3    H127955   6.610   3.924  15.973 -0.0803 -0.8244 -0.9118
 2180TIP3    H227956   6.756   3.893  15.998  0.6272  2.6741 -0.1322
 2181TIP3   OH227957   3.648   1.650   0.092  0.2713 -0.0757 -0.3388
 2181TIP3    H127958   3.590   1.588   0.048  1.1417 -1.3843  0.2948
 2181TIP3    H227959   3.595   1.729   0.103 -0.3137 -0.0435 -2.7612
 2182TIP3   OH227960   1.154   6.444   3.997 -0.0890 -0.6938 -0.4220
 2182TIP3    H127961   1.125   6.428   3.907  0.4996 -3.7358 -0.1974
 2182TIP3    H227962   1.074   6.447   4.048 -0.3636 -0.3417 -0.8665
 2183TIP3   OH227963   5.235   2.825   5.860 -0.4705 -0.4179 -0.4522
 2183TIP3    H127964   5.264   2.734   5.870 -0.1409 -0.3241 -0.5218
 2183TIP3    H227965   5.165   2.835   5.923 -0.6797 -0.7954 -0.6207
 2184TIP3   OH227966   1.402   3.158   5.453 -0.2740 -0.3036  0.3655
 2184TIP3    H127967   1.402   3.087   5.517  0.5182  0.0761  0.8005
 2184TIP3    H227968   1.458   3.226   5.492 -1.5130  0.8257  0.2503
 2185TIP3   OH227969   3.242   0.092  12.266 -0.3571 -0.5622  0.2190
 2185TIP3    H127970   3.222   0.152  12.194 -2.2963 -1.1046  0.2527
 2185TIP3    H227971   3.211   0.137  12.345 -0.8731 -1.1628  0.3677
 2186TIP3   OH227972   2.249   2.560  11.772  0.1897 -0.3015 -0.4371
 2186TIP3    H127973   2.271   2.479  11.724  0.3500  0.9885 -2.6952
 2186TIP3    H227974   2.222   2.530  11.859  2.8075 -2.5935 -0.2751
 2187TIP3   OH227975   5.667   5.042  15.021 -0.4159 -0.0384  0.7097
 2187TIP3    H127976   5.582   4.999  15.035 -0.2652 -0.6379 -0.1153
 2187TIP3    H227977   5.648   5.136  15.029 -1.0844 -0.1823  0.9022
 2188TIP3   OH227978   1.908   5.672   4.887  0.7327  0.3363  0.4638
 2188TIP3    H127979   1.902   5.585   4.849  0.9809  1.6378 -2.9380
 2188TIP3    H227980   1.824   5.714   4.867  1.0625  1.2627  0.9248
 2189TIP3   OH227981   5.924   2.087   1.925 -0.1111 -0.4952  0.3344
 2189TIP3    H127982   5.842   2.133   1.906 -0.5911 -1.5690 -0.3053
 2189TIP3    H227983   5.898   1.996   1.939  0.7948 -0.5737  1.7513
 2190TIP3   OH227984   4.674   2.774   3.677  0.1066  0.2394 -0.4161
 2190TIP3    H127985   4.656   2.865   3.652 -0.6675  0.4688  0.8830
 2190TIP3    H227986   4.588   2.732   3.680  0.1332  0.2291  1.7238
 2191TIP3   OH227987   5.268   0.452   1.138 -0.4829  0.4300 -0.2992
 2191TIP3    H127988   5.246   0.510   1.211  2.4698  2.3309 -0.7560
 2191TIP3    H227989   5.183   0.425   1.102 -1.9950  2.1104  1.7648
 2192TIP3   OH227990   2.295   1.226  16.040  0.4389  0.7358  0.5489
 2192TIP3    H127991   2.247   1.150  16.073 -1.7365  2.3497  1.3655
 2192TIP3    H227992   2.370   1.234  16.099 -1.3096  1.2998  2.8580
 2193TIP3   OH227993   4.583   3.656   0.399  0.0744  0.2504 -0.3310
 2193TIP3    H127994   4.524   3.590   0.364  1.8609  0.0223 -3.3016
 2193TIP3    H227995   4.659   3.607   0.430 -0.3251  0.6789  1.4082
 2194TIP3   OH227996   6.247   5.840   2.261 -0.5240 -0.2447 -0.1543
 2194TIP3    H127997   6.204   5.874   2.183  0.3119  1.7219  0.1787
 2194TIP3    H227998   6.203   5.886   2.333  0.2179 -0.3486  0.3713
 2195TIP3   OH227999   3.345   5.579   1.499 -0.0702  0.2222 -0.2879
 2195TIP3    H128000   3.409   5.549   1.564  0.9847  2.2678 -0.2860
 2195TIP3    H228001   3.398   5.605   1.424 -0.7135  3.0318  0.1263
 2196TIP3   OH228002   2.066   2.676   1.278 -0.2898 -0.1528  0.2887
 2196TIP3    H128003   2.011   2.604   1.310  0.3569 -0.7186  0.1645
 2196TIP3    H228004   2.138   2.681   1.341 -1.5777  2.0503  1.7219
 2197TIP3   OH228005   1.060   4.022  15.609  0.0068  0.1576 -0.3013
 2197TIP3    H128006   1.108   3.940  15.625  0.2283  0.4255  0.4530
 2197TIP3    H228007   1.128   4.087  15.593 -0.0525  0.6541  1.3195
 2198TIP3   OH228008   3.601   0.638   0.787 -0.1145  0.4695  0.3981
 2198TIP3    H128009   3.519   0.688   0.789 -0.3523  0.1159 -0.1791
 2198TIP3    H228010   3.663   0.695   0.741 -0.8072 -0.3580 -1.6352
 2199TIP3   OH228011   1.921   3.226   4.297  0.8104 -0.4315  0.4819
 2199TIP3    H128012   1.920   3.227   4.393  1.8172 -0.1119  0.4930
 2199TIP3    H228013   1.977   3.299   4.272  0.5520 -0.5071 -0.3574
 2200TIP3   OH228014   2.151   4.005   0.231  0.5690 -0.6096 -0.3469
 2200TIP3    H128015   2.177   4.076   0.289 -2.2141 -0.9511  1.5391
 2200TIP3    H228016   2.062   3.983   0.260  0.3667 -3.1231 -2.5618
 2201TIP3   OH228017   4.808   4.888   1.186 -0.2312 -0.2413 -0.2223
 2201TIP3    H128018   4.860   4.903   1.265  1.9248  0.4235 -1.6914
 2201TIP3    H228019   4.870   4.896   1.114 -2.3925  0.6444 -2.1161
 2202TIP3   OH228020   4.150   1.771  12.672 -0.3175  0.4765  0.0659
 2202TIP3    H128021   4.211   1.826  12.721 -1.5379 -0.4612  2.8723
 2202TIP3    H228022   4.205   1.707  12.628  0.9207  2.0871 -0.8542
 2203TIP3   OH228023   1.758   3.837   4.783  0.1371 -0.4366  0.1878
 2203TIP3    H128024   1.791   3.919   4.819  0.0336 -0.0506 -0.5693
 2203TIP3    H228025   1.721   3.861   4.698 -1.4853 -0.9575  0.7034
 2204TIP3   OH228026   6.114   0.796  13.685  0.1738 -0.1077  0.3331
 2204TIP3    H128027   6.029   0.794  13.730 -0.1237 -0.0011 -0.2210
 2204TIP3    H228028   6.177   0.816  13.755 -0.2456 -0.2638  0.7609
 2205TIP3   OH228029   1.818   5.660   6.522  0.0893 -0.2097 -0.0098
 2205TIP3    H128030   1.728   5.629   6.510  0.4659 -1.4078  0.1920
 2205TIP3    H228031   1.828   5.670   6.616  0.2368 -0.3019 -0.0148
 2206TIP3   OH228032   0.934   6.435   5.841  0.0312  0.4353 -0.7462
 2206TIP3    H128033   0.972   6.510   5.794 -0.3306  1.1430  0.0710
 2206TIP3    H228034   0.914   6.372   5.772  2.7050 -0.0089 -1.2429
 2207TIP3   OH228035   1.547   2.781   4.004  0.3967 -0.3944  0.4675
 2207TIP3    H128036   1.529   2.734   3.923 -1.7064 -0.5156  0.9512
 2207TIP3    H228037   1.620   2.839   3.983  0.9714 -1.5973 -1.0175
 2208TIP3   OH228038   0.277   4.912   2.776  0.7277 -0.0680  0.2696
 2208TIP3    H128039   0.301   4.853   2.847  1.1999  1.2388  1.2289
 2208TIP3    H228040   0.223   4.858   2.718  1.2249 -1.4618  1.0460
 2209TIP3   OH228041   6.495   5.915  17.336  0.3070 -0.3510  0.3049
 2209TIP3    H128042   6.496   5.978  17.408  1.0988 -0.6040  0.5293
 2209TIP3    H228043   6.561   5.947  17.274  0.6576 -0.9010  0.3801
 2210TIP3   OH228044   4.940   3.126  14.288  0.0600 -0.2360 -0.9678
 2210TIP3    H128045   4.934   3.175  14.370  2.7217 -0.3888 -0.5646
 2210TIP3    H228046   4.916   3.037  14.311  0.6499 -0.2486 -0.3552
 2211TIP3   OH228047   0.695   0.506  14.348  0.3487  0.8855 -0.4622
 2211TIP3    H128048   0.727   0.581  14.296  0.0220  0.4214 -1.3440
 2211TIP3    H228049   0.735   0.430  14.306 -4.4279 -0.1573 -3.8698
 2212TIP3   OH228050   4.082   0.131   2.970 -0.6370  0.1802 -0.0191
 2212TIP3    H128051   4.166   0.129   2.923 -0.7636 -1.2809 -0.2119
 2212TIP3    H228052   4.041   0.213   2.941 -0.7304 -0.6591 -2.5380
 2213TIP3   OH228053   0.223   4.105  16.777  0.2136 -0.3344 -0.7694
 2213TIP3    H128054   0.231   4.199  16.792  2.2574 -0.5994  0.0137
 2213TIP3    H228055   0.157   4.076  16.841  1.8218  0.1030  1.1719
 2214TIP3   OH228056   1.394   2.952   5.650 -0.4053  0.0844  0.3973
 2214TIP3    H128057   1.432   2.864   5.652 -1.2248 -0.2980 -0.2820
 2214TIP3    H228058   1.309   2.943   5.693 -0.5138  0.5342  0.2860
 2215TIP3   OH228059   2.791   3.721  11.761 -0.0630  0.2840 -0.0936
 2215TIP3    H128060   2.722   3.683  11.817  0.1979  0.8546  0.6236
 2215TIP3    H228061   2.814   3.803  11.804  0.3056  0.6225 -0.9279
 2216TIP3   OH228062   3.148   4.772  14.149 -0.5321  0.0795 -0.9015
 2216TIP3    H128063   3.187   4.698  14.105 -0.4962 -0.4893  0.0557
 2216TIP3    H228064   3.054   4.764  14.132 -0.7831 -1.3693  0.8472
 2217TIP3   OH228065   5.724   4.636  15.357  0.7925 -0.4521 -0.5811
 2217TIP3    H128066   5.819   4.632  15.347  0.8632 -3.2262  0.3267
 2217TIP3    H228067   5.708   4.619  15.449 -0.6114 -0.7187 -0.8442
 2218TIP3   OH228068   4.509   3.953   1.368 -0.1881  0.6214  0.1676
 2218TIP3    H128069   4.437   3.935   1.307 -0.7938  2.0980  0.4026
 2218TIP3    H228070   4.587   3.961   1.311 -0.2763 -0.5306 -0.1319
 2219TIP3   OH228071   5.897   0.309  16.113 -0.2541  0.3906  0.5447
 2219TIP3    H128072   5.913   0.275  16.026  2.7383  1.2469  0.6728
 2219TIP3    H228073   5.862   0.397  16.099  1.7396  1.1665  0.1207
 2220TIP3   OH228074   3.082   2.510   3.477 -0.2012  0.4834  0.2714
 2220TIP3    H128075   3.047   2.482   3.562 -0.3307 -0.8367 -0.1997
 2220TIP3    H228076   3.172   2.538   3.497  1.1888 -3.4228  0.3450
 2221TIP3   OH228077   1.098   4.507  13.298 -0.4098  0.3899 -0.1876
 2221TIP3    H128078   1.164   4.540  13.360 -0.8534  1.5095 -0.2936
 2221TIP3    H228079   1.069   4.425  13.337 -1.0800  1.3377  1.4090
 2222TIP3   OH228080   3.300   1.573  13.066 -0.1582  0.4926  0.3055
 2222TIP3    H128081   3.223   1.627  13.083 -0.3137  0.4963 -0.3689
 2222TIP3    H228082   3.364   1.633  13.027 -0.3224  0.2064 -0.4236
 2223TIP3   OH228083   5.111   5.709   1.639  0.2063  0.2805 -0.1773
 2223TIP3    H128084   5.193   5.670   1.609  0.1899 -0.4972  0.7157
 2223TIP3    H228085   5.138   5.789   1.685  0.4336  0.2518 -0.2600
 2224TIP3   OH228086   2.083   3.419  13.429  0.1870 -0.0870  0.3353
 2224TIP3    H128087   2.107   3.429  13.521 -0.1540 -1.5793  0.6145
 2224TIP3    H228088   1.988   3.427  13.429 -0.0359 -2.1040  0.4679
 2225TIP3   OH228089   1.939   3.120   2.911 -0.0359 -0.0415  0.0883
 2225TIP3    H128090   1.892   3.154   2.987 -3.3460 -1.4801 -1.1227
 2225TIP3    H228091   1.945   3.194   2.851 -0.7475  0.1936  0.2987
 2226TIP3   OH228092   5.104   2.223   0.370  0.3299  0.1553  0.2492
 2226TIP3    H128093   5.022   2.266   0.392 -0.0104 -0.3247 -0.0695
 2226TIP3    H228094   5.153   2.289   0.320 -0.0929  0.2487 -0.0457
 2227TIP3   OH228095   0.445   0.372  16.753 -0.4344  0.5890 -0.3461
 2227TIP3    H128096   0.403   0.449  16.790 -2.6119  1.3470 -3.8562
 2227TIP3    H228097   0.526   0.404  16.715 -0.2014  0.6422  0.1873
 2228TIP3   OH228098   4.237   3.699  13.888  0.4871 -0.0043 -0.9734
 2228TIP3    H128099   4.305   3.735  13.832  0.9251 -1.6083 -1.5164
 2228TIP3    H228100   4.174   3.659  13.827  1.4940 -2.7172 -0.3953
 2229TIP3   OH228101   6.079   1.538  13.544  0.2473 -0.0138 -0.1441
 2229TIP3    H128102   6.025   1.518  13.467 -0.4285  0.6654  0.1463
 2229TIP3    H228103   6.025   1.597  13.597  0.4440 -0.9545  1.1629
 2230TIP3   OH228104   3.534   0.772  14.953 -0.0577  0.7599  0.1610
 2230TIP3    H128105   3.575   0.703  14.901  0.1581  1.6775 -0.9323
 2230TIP3    H228106   3.486   0.726  15.021 -0.5235 -0.5126 -0.9876
 2231TIP3   OH228107   5.096   1.013  15.775  0.2880  0.1965 -0.1117
 2231TIP3    H128108   5.074   0.921  15.758  2.1709  0.0788 -2.4044
 2231TIP3    H228109   5.058   1.061  15.701  0.6423  1.0563  0.2579
 2232TIP3   OH228110   1.829   1.443   0.934 -0.5197 -0.6175  0.0182
 2232TIP3    H128111   1.779   1.493   0.999 -0.1318 -0.3580  0.1268
 2232TIP3    H228112   1.912   1.491   0.927 -0.4907 -0.7472 -0.5365
 2233TIP3   OH228113   4.111   3.722   3.855 -0.4221 -0.1264  0.3529
 2233TIP3    H128114   4.063   3.661   3.911 -1.3657 -0.1866 -0.4817
 2233TIP3    H228115   4.058   3.801   3.854  0.2350  0.3266  0.5461
 2234TIP3   OH228116   6.007   5.377  16.548  0.2122  0.0365 -0.4330
 2234TIP3    H128117   6.018   5.312  16.617 -0.3887  1.6192  1.2277
 2234TIP3    H228118   6.093   5.381  16.506  0.5452 -1.0765  0.0952
 2235TIP3   OH228119   1.696   3.951  13.903 -0.1993 -0.3360 -0.2570
 2235TIP3    H128120   1.783   3.959  13.862 -0.6458  1.6915 -0.9028
 2235TIP3    H228121   1.659   3.871  13.865  0.7483 -0.3518 -1.1902
 2236TIP3   OH228122   0.923   6.402   6.170 -0.3514 -0.2020  0.6425
 2236TIP3    H128123   1.009   6.431   6.140  0.2323 -0.1231  2.3186
 2236TIP3    H228124   0.920   6.309   6.147  0.8146 -0.5821  1.9080
 2237TIP3   OH228125   5.479   2.874   2.519 -0.5105  0.2981 -1.0401
 2237TIP3    H128126   5.533   2.798   2.496  0.0651 -0.1444  1.4858
 2237TIP3    H228127   5.538   2.949   2.511  0.6255 -0.1858  1.7382
 2238TIP3   OH228128   4.099   5.275  12.098  0.2724  0.2663  0.1527
 2238TIP3    H128129   4.062   5.363  12.102  0.8003  0.5054 -0.0948
 2238TIP3    H228130   4.159   5.278  12.024  0.9483 -0.0394  0.6755
 2239TIP3   OH228131   2.052   5.249  16.982  0.1460  0.1367 -0.0679
 2239TIP3    H128132   2.049   5.156  17.002 -1.6510 -0.4655 -2.6403
 2239TIP3    H228133   1.962   5.279  16.993  0.3332  1.1190 -1.0024
 2240TIP3   OH228134   5.735   2.670   5.935  0.6996  0.4282  0.8662
 2240TIP3    H128135   5.697   2.676   5.847  0.7392 -2.2434  0.5668
 2240TIP3    H228136   5.819   2.715   5.928 -0.3892  2.4776  0.2939
 2241TIP3   OH228137   5.973   3.100   1.364 -0.2826  0.3146  0.7264
 2241TIP3    H128138   6.016   3.185   1.356 -0.1764  0.1896 -0.1378
 2241TIP3    H228139   5.882   3.122   1.386 -0.4425  0.6951 -0.2417
 2242TIP3   OH228140   6.118   5.373   5.350 -0.7037 -0.5199  0.1355
 2242TIP3    H128141   6.205   5.332   5.344 -0.1308  0.6012  0.5835
 2242TIP3    H228142   6.136   5.466   5.360 -1.9360 -0.3985  1.4843
 2243TIP3   OH228143   0.361   3.988  10.989 -0.0362 -0.1451  0.0227
 2243TIP3    H128144   0.434   3.988  11.052  0.6884  0.5448 -0.7987
 2243TIP3    H228145   0.401   3.967  10.905 -0.9020 -0.4261 -0.3326
 2244TIP3   OH228146   5.951   0.110  16.478  0.0233  0.1227 -0.1124
 2244TIP3    H128147   5.980   0.071  16.561 -0.8758  0.9824  0.6314
 2244TIP3    H228148   5.897   0.042  16.438 -0.1888 -0.0054  0.3830
 2245TIP3   OH228149   1.946   4.273  13.590  0.2390 -0.6398  0.5287
 2245TIP3    H128150   1.890   4.348  13.569  2.2675  0.0739 -3.3257
 2245TIP3    H228151   1.891   4.197  13.571 -0.5581 -0.0570  0.4220
 2246TIP3   OH228152   1.556   0.612  13.560 -0.2724  0.1023 -0.0657
 2246TIP3    H128153   1.621   0.671  13.599  0.3724 -0.1424 -0.7658
 2246TIP3    H228154   1.598   0.527  13.558 -1.6246 -0.7073  2.0458
 2247TIP3   OH228155   5.522   4.379  12.293 -0.2059  0.4540 -0.0823
 2247TIP3    H128156   5.593   4.366  12.231 -0.0492 -4.2420  0.7065
 2247TIP3    H228157   5.563   4.370  12.380 -1.1836  1.7527  0.5487
 2248TIP3   OH228158   6.745   0.158  12.138  0.3516 -0.2419 -0.2884
 2248TIP3    H128159   6.799   0.081  12.154 -0.6360 -1.0070 -0.5699
 2248TIP3    H228160   6.720   0.151  12.046 -0.1634  0.1444 -0.1799
 2249TIP3   OH228161   4.944   1.297  16.148 -0.3443 -0.3865  0.5663
 2249TIP3    H128162   4.974   1.220  16.195  0.0971 -0.7890 -0.3548
 2249TIP3    H228163   4.912   1.264  16.064 -1.1228  0.3131  0.5672
 2250TIP3   OH228164   2.643   6.540  16.922  0.0998  0.0023  0.2828
 2250TIP3    H128165   2.551   6.529  16.945  0.4713 -0.3860  1.6480
 2250TIP3    H228166   2.685   6.457  16.947  1.0512  0.6457  0.9010
 2251TIP3   OH228167   0.132   3.892  13.211 -0.0316 -0.0735 -0.5974
 2251TIP3    H128168   0.204   3.943  13.250 -0.4497  0.5949 -0.6744
 2251TIP3    H228169   0.057   3.951  13.217 -0.2447 -0.2079 -1.8464
 2252TIP3   OH228170   3.254   2.158  15.696 -0.4036  0.3687  0.1073
 2252TIP3    H128171   3.274   2.135  15.787  0.5909  1.2886  0.1505
 2252TIP3    H228172   3.219   2.247  15.701 -1.5070 -0.0249 -0.3136
 2253TIP3   OH228173   2.727   6.086  16.801 -0.3612  0.7383  0.1478
 2253TIP3    H128174   2.820   6.102  16.785 -0.6531  3.5174  0.6686
 2253TIP3    H228175   2.685   6.103  16.716 -0.4114 -0.4913 -0.0822
 2254TIP3   OH228176   4.631   3.013   2.621 -0.5187 -0.4652 -0.4830
 2254TIP3    H128177   4.555   3.000   2.565  0.5336  0.4574 -2.1882
 2254TIP3    H228178   4.662   3.101   2.601  0.1312 -0.2503  1.2779
 2255TIP3   OH228179   6.474   5.914  11.096 -0.2039  0.4269 -1.0663
 2255TIP3    H128180   6.538   5.881  11.159 -0.5405  2.9604  0.7346
 2255TIP3    H228181   6.421   5.838  11.075  0.6106 -0.7726  0.8774
 2256TIP3   OH228182   0.768   4.768  12.196  0.3016  0.1780 -0.1625
 2256TIP3    H128183   0.806   4.682  12.216  2.1428  1.0026  0.1236
 2256TIP3    H228184   0.758   4.810  12.282 -1.0664  0.0710 -0.2610
 2257TIP3   OH228185   4.522   1.375  11.730 -0.5135 -0.2574  0.3258
 2257TIP3    H128186   4.600   1.387  11.677 -1.4176 -2.0483 -1.5299
 2257TIP3    H228187   4.460   1.330  11.673 -2.2147 -0.6524  2.3413
 2258TIP3   OH228188   4.915   1.395  14.742  0.3415 -0.3411  0.0815
 2258TIP3    H128189   4.920   1.346  14.824  2.4898 -0.6726 -0.1739
 2258TIP3    H228190   5.007   1.410  14.718 -0.2501  1.1122 -1.4563
 2259TIP3   OH228191   1.817   5.640   7.015  0.2134  0.6774  0.1731
 2259TIP3    H128192   1.757   5.632   6.942  1.2933 -0.0648 -0.6727
 2259TIP3    H228193   1.826   5.734   7.029 -1.1567  0.7987  0.3513
 2260TIP3   OH228194   3.374   6.063  12.149  0.6530 -0.1243 -0.1919
 2260TIP3    H128195   3.386   6.049  12.055  1.3229  2.3219 -0.5372
 2260TIP3    H228196   3.281   6.085  12.158  0.7126  0.1993 -0.3664
 2261TIP3   OH228197   4.481   1.776  12.725 -0.0143  0.1951 -0.6231
 2261TIP3    H128198   4.502   1.741  12.638  1.1630 -0.7768  0.0165
 2261TIP3    H228199   4.566   1.804  12.760 -0.4698  0.5132  0.2531
 2262TIP3   OH228200   0.797   5.914   3.059 -0.0257 -0.2436 -0.0331
 2262TIP3    H128201   0.742   5.887   2.986 -0.8055  0.3217  0.3376
 2262TIP3    H228202   0.836   5.832   3.091 -0.0887 -0.5537 -0.7485
 2263TIP3   OH228203   4.918   1.588  16.800 -0.5458 -0.2435  0.4824
 2263TIP3    H128204   4.933   1.494  16.814  0.7097 -0.0754  0.3346
 2263TIP3    H228205   4.893   1.620  16.887  0.5684 -0.4436  0.8982
 2264TIP3   OH228206   0.250   5.695  10.878 -0.2466  0.5355 -0.2954
 2264TIP3    H128207   0.333   5.700  10.925  0.4768 -1.9750 -1.1272
 2264TIP3    H228208   0.274   5.711  10.786 -0.2199 -2.1535 -0.8455
 2265TIP3   OH228209   3.565   5.296   5.636  0.3319 -0.4069 -0.2892
 2265TIP3    H128210   3.515   5.345   5.701  0.2985 -1.5009  0.5352
 2265TIP3    H228211   3.643   5.350   5.620  1.4711 -1.1246  2.3441
 2266TIP3   OH228212   2.287   3.693  16.963 -0.0006 -0.1392 -0.2072
 2266TIP3    H128213   2.326   3.630  16.901  0.2095 -1.0556  0.8192
 2266TIP3    H228214   2.194   3.673  16.962  0.2961 -1.9901  1.6914
 2267TIP3   OH228215   4.362   5.331   2.386 -0.1136  0.4017 -0.6179
 2267TIP3    H128216   4.414   5.264   2.430 -1.5543 -0.1649  0.3045
 2267TIP3    H228217   4.376   5.315   2.293 -0.4185 -1.1920 -0.4181
 2268TIP3   OH228218   0.818   1.990  12.062  0.0136 -0.0561 -0.0468
 2268TIP3    H128219   0.795   1.924  11.996  1.9601 -1.2163  0.3511
 2268TIP3    H228220   0.801   1.946  12.145  2.3108 -0.5425  0.2404
 2269TIP3   OH228221   0.474   3.450   1.513 -0.6231 -0.0008  0.3436
 2269TIP3    H128222   0.416   3.388   1.557 -0.6814  1.0292  1.7979
 2269TIP3    H228223   0.550   3.458   1.571 -1.1637  2.1632  0.8661
 2270TIP3   OH228224   4.425   5.876  16.758  0.0572 -0.4277  0.3864
 2270TIP3    H128225   4.451   5.906  16.845 -0.1238  1.1372 -0.0801
 2270TIP3    H228226   4.330   5.874  16.761  0.0102  0.6166 -0.0779
 2271TIP3   OH228227   2.582   0.134   0.193 -0.0047  0.3134 -0.0403
 2271TIP3    H128228   2.557   0.208   0.138 -0.9338  1.2620  1.5609
 2271TIP3    H228229   2.509   0.124   0.254 -0.0006 -2.1034 -0.3447
 2272TIP3   OH228230   2.674   3.879   2.160 -0.8407 -0.4411 -0.2367
 2272TIP3    H128231   2.626   3.961   2.160  0.5417  0.4093  1.0589
 2272TIP3    H228232   2.755   3.898   2.112 -1.0481 -1.4124 -1.0195
 2273TIP3   OH228233   4.171   4.961   2.757 -0.4276 -0.5067 -0.5060
 2273TIP3    H128234   4.087   4.956   2.802  0.7369 -1.9261  1.7485
 2273TIP3    H228235   4.230   4.907   2.810  2.3795  1.8510 -0.9291
 2274TIP3   OH228236   1.195   6.719  14.626 -0.1480 -0.0834 -0.1400
 2274TIP3    H128237   1.258   6.659  14.586 -0.3020 -0.3843  0.0660
 2274TIP3    H228238   1.113   6.702  14.579 -0.4277 -0.7268  0.5746
 2275TIP3   OH228239   5.555   1.178  14.812  0.4906  0.1391 -0.1136
 2275TIP3    H128240   5.603   1.146  14.736  1.3383 -0.0380  0.4788
 2275TIP3    H228241   5.488   1.110  14.828  0.5663 -0.0174 -0.4590
 2276TIP3   OH228242   1.835   5.405   4.768  0.8682 -0.2471  0.0673
 2276TIP3    H128243   1.903   5.342   4.741 -0.1929 -1.4550  0.1033
 2276TIP3    H228244   1.756   5.375   4.724  0.2855  0.9787  0.2474
 2277TIP3   OH228245   3.498   3.710   2.584 -0.2151 -0.0438 -0.5214
 2277TIP3    H128246   3.555   3.768   2.634 -1.0568 -0.8400  1.4740
 2277TIP3    H228247   3.558   3.651   2.538  0.6122 -0.1469  0.6503
 2278TIP3   OH228248   5.263   1.392   3.581 -0.3329  0.1378  0.0016
 2278TIP3    H128249   5.331   1.459   3.584 -0.9620  0.7765  1.7031
 2278TIP3    H228250   5.308   1.313   3.552  0.7739  0.9129 -0.4650
 2279TIP3   OH228251   2.969   4.684  12.282 -0.3215 -0.6917 -0.0745
 2279TIP3    H128252   3.062   4.708  12.274 -0.5011  0.2999  0.6649
 2279TIP3    H228253   2.955   4.674  12.376 -0.9309 -1.0247 -0.1930
 2280TIP3   OH228254   2.870   1.477   2.147 -0.4800  0.2345  0.4114
 2280TIP3    H128255   2.866   1.540   2.075  1.9743 -0.7170 -0.6557
 2280TIP3    H228256   2.960   1.445   2.146 -1.6607 -3.5649  0.7098
 2281TIP3   OH228257   4.611   2.958  15.877  0.0495 -0.3805  0.2106
 2281TIP3    H128258   4.536   3.016  15.889  2.0207  3.2554 -2.7640
 2281TIP3    H228259   4.687   3.013  15.896  2.0590 -3.1398  0.6893
 2282TIP3   OH228260   3.196   3.046  10.855  0.5248 -0.0070  0.5205
 2282TIP3    H128261   3.173   3.089  10.773 -0.2496  0.0763  0.7802
 2282TIP3    H228262   3.156   2.960  10.849 -0.1633  0.2652  1.1203
 2283TIP3   OH228263   4.144   2.596   3.924  0.3941  0.0848  0.2958
 2283TIP3    H128264   4.067   2.593   3.868  1.4415 -2.4637 -1.1984
 2283TIP3    H228265   4.110   2.597   4.014 -1.3488  0.6234 -0.3486
 2284TIP3   OH228266   5.035   3.259   0.423 -0.0575  0.6869 -0.1026
 2284TIP3    H128267   5.085   3.244   0.342 -0.7132 -2.1168 -0.0762
 2284TIP3    H228268   5.066   3.345   0.454  3.9078 -0.3017 -0.7011
 2285TIP3   OH228269   6.587   5.250  14.379 -1.2066  0.2598 -0.0723
 2285TIP3    H128270   6.565   5.328  14.430 -1.8671 -0.1925  0.3703
 2285TIP3    H228271   6.556   5.177  14.433  1.8012 -0.5083  0.8049
 2286TIP3   OH228272   5.125   5.496  11.499 -0.0161  0.5677  0.0598
 2286TIP3    H128273   5.220   5.490  11.493 -0.1825 -0.6829 -3.4756
 2286TIP3    H228274   5.103   5.576  11.451 -0.8524 -1.7794 -3.9105
 2287TIP3   OH228275   1.166   2.503  16.124 -0.2933  0.0406 -0.1842
 2287TIP3    H128276   1.259   2.488  16.141 -0.0840 -0.4874 -1.6335
 2287TIP3    H228277   1.164   2.583  16.072 -0.8761  1.4085  1.8253
 2288TIP3   OH228278   0.540   1.161   4.835  0.3032 -0.2884  0.2684
 2288TIP3    H128279   0.539   1.070   4.805 -0.0518 -0.0131 -0.5611
 2288TIP3    H228280   0.480   1.207   4.777  0.5367  0.4976  0.6331
 2289TIP3   OH228281   1.439   1.924  15.889 -0.9047 -0.5336  0.5822
 2289TIP3    H128282   1.391   1.914  15.972 -0.7242 -2.0601  0.5456
 2289TIP3    H228283   1.467   2.015  15.888 -0.9757 -0.4576  2.1685
 2290TIP3   OH228284   5.158   5.080  14.825  0.5291 -0.2564  0.5364
 2290TIP3    H128285   5.146   5.154  14.884  1.5775 -0.1923  0.6899
 2290TIP3    H228286   5.094   5.015  14.855  0.6969 -0.0286  1.4188
 2291TIP3   OH228287   5.796   0.043   0.775  0.1505  0.0672  0.1878
 2291TIP3    H128288   5.786   0.111   0.842  1.2877  0.3731  0.0520
 2291TIP3    H228289   5.806  -0.038   0.825 -0.5610  0.0685  0.3539
 2292TIP3   OH228290   3.026   1.563   5.908 -0.0838 -0.2994  0.0999
 2292TIP3    H128291   2.955   1.617   5.875  1.2777  1.6144  0.1331
 2292TIP3    H228292   3.057   1.610   5.986  1.4650 -0.8685 -0.1474
 2293TIP3   OH228293   3.326   3.670  13.859 -0.2004 -0.1462  0.5460
 2293TIP3    H128294   3.316   3.722  13.939  0.4218 -0.5214  0.8788
 2293TIP3    H228295   3.375   3.593  13.887 -0.9125 -0.8049  0.0165
 2294TIP3   OH228296   1.731   1.488  16.448  0.4166 -0.1669 -0.3691
 2294TIP3    H128297   1.678   1.549  16.498  1.6549 -0.5945  1.5438
 2294TIP3    H228298   1.670   1.417  16.425 -0.5417  0.8008 -0.9011
 2295TIP3   OH228299   3.861   1.377  16.247  0.1283  0.7215  0.0566
 2295TIP3    H128300   3.861   1.281  16.250 -2.9461  0.5777 -0.7353
 2295TIP3    H228301   3.870   1.404  16.339 -1.1500 -0.4609  0.5732
 2296TIP3   OH228302   5.332   0.359   3.623 -0.6611  0.8916  0.5632
 2296TIP3    H128303   5.280   0.280   3.639  0.4080  0.1608  0.4897
 2296TIP3    H228304   5.282   0.408   3.558  0.2637 -1.3619 -2.0243
 2297TIP3   OH228305   3.743   2.735   3.238 -0.2325 -0.0377  0.1018
 2297TIP3    H128306   3.668   2.789   3.210  0.4149  0.2781 -1.0760
 2297TIP3    H228307   3.811   2.799   3.259  0.1557 -0.3646 -0.1681
 2298TIP3   OH228308   2.883   2.392  16.596 -0.1959 -0.5107 -0.0040
 2298TIP3    H128309   2.803   2.366  16.551  0.3974 -2.2662 -0.1198
 2298TIP3    H228310   2.946   2.322  16.576  0.9784  0.1724  1.1269
 2299TIP3   OH228311   6.107   1.332   4.590 -0.0430 -0.4334 -0.0956
 2299TIP3    H128312   6.079   1.241   4.575  1.7574 -1.1162  0.4398
 2299TIP3    H228313   6.164   1.351   4.515  0.9575 -0.3561  0.6746
 2300TIP3   OH228314   4.714   0.524  12.699 -0.3399 -0.3841 -0.1355
 2300TIP3    H128315   4.709   0.538  12.605  0.7604 -0.4407 -0.2185
 2300TIP3    H228316   4.717   0.613  12.736 -1.9025 -0.3412 -0.0588
 2301TIP3   OH228317   4.495   1.276   0.911 -0.4115 -0.4491 -0.3890
 2301TIP3    H128318   4.531   1.213   0.849  1.0576  0.0568 -0.0811
 2301TIP3    H228319   4.505   1.360   0.868  0.3347 -0.1264  0.3969
 2302TIP3   OH228320   3.852   1.464  17.324  0.4186  0.2025  0.2423
 2302TIP3    H128321   3.861   1.558  17.306  0.0852  0.1891 -0.0049
 2302TIP3    H228322   3.940   1.436  17.349  0.0664  1.0892  2.7791
 2303TIP3   OH228323   3.562   5.026   2.175  0.1932  0.2183  0.2348
 2303TIP3    H128324   3.641   5.055   2.222  1.3355 -0.8566 -0.9327
 2303TIP3    H228325   3.542   4.940   2.212 -1.3825  1.1316  1.5922
 2304TIP3   OH228326   5.268   4.927  11.393 -0.7327  0.0952 -0.0735
 2304TIP3    H128327   5.230   4.843  11.418  0.3188  0.3413  2.6885
 2304TIP3    H228328   5.251   4.985  11.467  0.5127  1.6984 -0.9567
 2305TIP3   OH228329   5.784   6.750   6.026  0.0744 -0.1815  0.0789
 2305TIP3    H128330   5.780   6.659   6.056  0.0221 -0.8945 -1.9140
 2305TIP3    H228331   5.875   6.762   5.998 -0.0597  0.1834 -0.2128
 2306TIP3   OH228332   3.082   5.700   0.279  0.2977 -0.2896  0.7568
 2306TIP3    H128333   2.993   5.682   0.250  0.0986  2.2310 -0.4955
 2306TIP3    H228334   3.120   5.613   0.294 -1.7079 -1.5118 -0.6644
 2307TIP3   OH228335   2.228   6.681  14.976 -0.4796 -0.2323 -0.6185
 2307TIP3    H128336   2.247   6.773  14.955 -1.1500  0.2985  0.9393
 2307TIP3    H228337   2.164   6.654  14.910 -1.7898  1.0606  0.0688
 2308TIP3   OH228338   4.332   3.662  12.411 -0.2410  0.1041 -0.5006
 2308TIP3    H128339   4.391   3.721  12.458  0.3113 -1.1995  0.5074
 2308TIP3    H228340   4.386   3.625  12.341 -0.5324  0.6405 -1.0139
 2309TIP3   OH228341   1.632   4.985  14.095 -0.3059  0.8655 -0.0965
 2309TIP3    H128342   1.615   5.026  14.010 -0.4791 -0.0423 -0.5184
 2309TIP3    H228343   1.664   5.056  14.150 -0.9366  1.6379 -0.6931
 2310TIP3   OH228344   1.729   6.244  15.821 -0.1795 -0.1553  0.3615
 2310TIP3    H128345   1.748   6.335  15.797 -0.0063 -0.0467  0.8914
 2310TIP3    H228346   1.718   6.198  15.737 -1.8101  0.6691  0.0797
 2311TIP3   OH228347   6.556   5.505   6.206  0.5134 -0.3431 -0.0582
 2311TIP3    H128348   6.488   5.438   6.216  0.2521 -0.0031  0.4845
 2311TIP3    H228349   6.522   5.581   6.252  1.2589 -0.1656  0.2143
 2312TIP3   OH228350   6.038   3.986  17.028 -0.6963  0.0541  0.4577
 2312TIP3    H128351   5.967   4.039  17.064 -2.3368 -0.4886 -1.7796
 2312TIP3    H228352   6.027   3.993  16.934  0.2048 -2.7158  0.0700
 2313TIP3   OH228353   6.004   3.304  15.309  0.3224 -0.0931 -0.0740
 2313TIP3    H128354   6.003   3.217  15.269  1.1979 -0.0987 -0.1241
 2313TIP3    H228355   6.015   3.288  15.403 -0.2378 -0.0500 -0.0005
 2314TIP3   OH228356   4.051   1.662   0.956  0.4962  0.6455  0.1296
 2314TIP3    H128357   4.052   1.604   0.879 -2.1497  1.3474 -0.5302
 2314TIP3    H228358   4.089   1.609   1.026  2.8681 -0.0704 -1.5564
 2315TIP3   OH228359   0.500   4.573   4.910  0.0904  0.1793  0.8747
 2315TIP3    H128360   0.427   4.631   4.932 -0.0464  0.2484  0.2645
 2315TIP3    H228361   0.566   4.591   4.977 -0.5405 -0.0595  1.5721
 2316TIP3   OH228362   1.527   0.889  15.558 -0.2041  0.0329  0.0216
 2316TIP3    H128363   1.513   0.818  15.620 -1.4493  1.4986  1.4730
 2316TIP3    H228364   1.595   0.943  15.598  0.0315  0.2185 -0.6102
 2317TIP3   OH228365   1.452   3.277  11.437  0.3513  0.1885  0.0325
 2317TIP3    H128366   1.475   3.188  11.466 -1.5170 -0.5745 -0.7046
 2317TIP3    H228367   1.423   3.321  11.517  2.0160  0.4275  0.5464
 2318TIP3   OH228368   1.995   2.741  15.891  0.1275  0.4347 -0.1026
 2318TIP3    H128369   1.911   2.695  15.889  0.6193 -0.4799 -0.5240
 2318TIP3    H228370   2.057   2.678  15.855  0.8191  1.4682 -0.7765
 2319TIP3   OH228371   3.255   2.676  15.479  0.0853  0.3848  0.3363
 2319TIP3    H128372   3.209   2.760  15.474 -0.2868  0.4832  3.3771
 2319TIP3    H228373   3.194   2.613  15.440 -1.1082  1.0619  1.0398
 2320TIP3   OH228374   1.747   1.166   5.342  0.2470 -0.0940  0.4122
 2320TIP3    H128375   1.706   1.192   5.424  0.2491 -1.4296  0.8618
 2320TIP3    H228376   1.839   1.153   5.365  0.5301  0.8422 -0.1231
 2321TIP3   OH228377   5.489   1.872  15.136 -0.0915  0.1466 -0.3501
 2321TIP3    H128378   5.443   1.904  15.059 -0.7066 -1.1469 -0.5359
 2321TIP3    H228379   5.582   1.876  15.112 -0.1825  1.1989 -0.5708
 2322TIP3   OH228380   2.068   5.015  16.488  0.2599 -0.0918 -0.0170
 2322TIP3    H128381   2.044   4.967  16.409 -0.7659  1.9047 -0.9980
 2322TIP3    H228382   2.161   5.035  16.476  1.4002 -3.6785  1.5137
 2323TIP3   OH228383   1.171   3.794   5.340  0.2882 -0.1935 -0.0152
 2323TIP3    H128384   1.132   3.816   5.424  1.3124  0.7187  0.2583
 2323TIP3    H228385   1.098   3.764   5.286 -0.3611 -0.9435  1.2320
 2324TIP3   OH228386   1.038   0.543  11.603  0.5278 -0.4837  0.5269
 2324TIP3    H128387   0.984   0.464  11.596 -1.3198  0.8063 -4.4176
 2324TIP3    H228388   1.112   0.526  11.544  0.4179  1.1554 -0.1501
 2325TIP3   OH228389   1.359   2.742   3.737  0.0522 -0.3142 -0.2594
 2325TIP3    H128390   1.320   2.735   3.650  0.9223 -1.3936 -0.5801
 2325TIP3    H228391   1.453   2.752   3.720  0.4271 -2.0881  0.5672
 2326TIP3   OH228392   1.431   2.929   0.620  0.0313 -0.0518  0.5506
 2326TIP3    H128393   1.498   2.862   0.600  0.5893  0.9197 -0.9861
 2326TIP3    H228394   1.397   2.903   0.706  0.6208 -1.9928  0.2499
 2327TIP3   OH228395   6.455   0.044   0.609 -0.8069  0.2896  0.0474
 2327TIP3    H128396   6.392   0.087   0.551 -1.5406  0.6559  1.0833
 2327TIP3    H228397   6.414  -0.040   0.629  0.1002 -0.4423 -1.0693
 2328TIP3   OH228398   2.871   3.009  17.377  0.2391  0.1892 -0.0209
 2328TIP3    H128399   2.795   2.953  17.396  0.2601 -0.1761 -0.9461
 2328TIP3    H228400   2.917   2.963  17.306  1.6634  0.0977  0.9239
 2329TIP3   OH228401   0.532   3.440  16.814 -0.3396 -0.0735  0.2038
 2329TIP3    H128402   0.495   3.528  16.818  1.4570  0.7198  0.6649
 2329TIP3    H228403   0.530   3.409  16.905  0.1084 -0.0061  0.2426
 2330TIP3   OH228404   4.226   1.507  17.158  0.3440  0.3734 -0.1950
 2330TIP3    H128405   4.141   1.542  17.187 -0.9883 -0.5350 -2.6903
 2330TIP3    H228406   4.229   1.418  17.195  0.5458  0.6449  0.4560
 2331TIP3   OH228407   0.638   4.745   0.110 -0.2016  0.0437  0.0384
 2331TIP3    H128408   0.586   4.775   0.185 -1.9450  0.4486 -1.2627
 2331TIP3    H228409   0.666   4.657   0.133 -2.1307 -0.4825  0.5050
 2332TIP3   OH228410   0.889   6.346  17.259  0.1609 -0.5173  0.1127
 2332TIP3    H128411   0.841   6.427  17.275  0.0857 -0.4138 -0.5904
 2332TIP3    H228412   0.837   6.300  17.193  0.1014 -1.2290  0.6446
 2333TIP3   OH228413   5.169   1.232   3.005 -0.5693  0.1943  0.1629
 2333TIP3    H128414   5.089   1.204   3.050 -0.8398  0.7840  0.0589
 2333TIP3    H228415   5.146   1.315   2.964 -0.4998 -0.6009 -1.5563
 2334TIP3   OH228416   6.491   0.919   1.319 -0.0914  0.0508  0.0127
 2334TIP3    H128417   6.459   0.987   1.378  1.7850  0.1936  0.9417
 2334TIP3    H228418   6.494   0.840   1.373  1.2737  0.0939  0.0519
 2335TIP3   OH228419   6.059   0.704  12.628 -0.4066 -0.4048  0.2142
 2335TIP3    H128420   6.150   0.725  12.606 -0.2289  0.0873  1.3510
 2335TIP3    H228421   6.064   0.620  12.674 -0.5812 -0.5900 -0.1030
 2336TIP3   OH228422   5.685   1.190  12.156 -0.7150  0.6109 -0.0734
 2336TIP3    H128423   5.768   1.143  12.146 -0.7543  0.5245  0.0125
 2336TIP3    H228424   5.710   1.283  12.151 -0.3790  0.6489  1.5874
 2337TIP3   OH228425   6.520   3.068  15.072  0.4445  0.3751  0.5204
 2337TIP3    H128426   6.545   3.138  15.012  2.7693 -0.1557  0.7584
 2337TIP3    H228427   6.535   2.987  15.023 -0.9059 -0.0162  0.7105
 2338TIP3   OH228428   2.581   3.444   4.348  0.1977  0.4043 -0.4154
 2338TIP3    H128429   2.493   3.439   4.312  0.1898  1.3882 -0.5591
 2338TIP3    H228430   2.569   3.461   4.441  0.2106  2.4770 -0.7482
 2339TIP3   OH228431   1.992   2.092  15.368  0.3187 -0.7771  0.2340
 2339TIP3    H128432   1.981   2.179  15.407  0.3008  0.0881 -1.5923
 2339TIP3    H228433   1.940   2.034  15.424 -0.3516  0.5240  1.0085
 2340TIP3   OH228434   1.216   3.699   2.607  0.4666  0.2859 -0.0700
 2340TIP3    H128435   1.200   3.607   2.584  0.9529  0.3321 -0.5982
 2340TIP3    H228436   1.270   3.694   2.686 -2.2930  0.1238  1.9456
 2341TIP3   OH228437   2.902   0.287   2.125 -0.1336 -0.1954 -0.2141
 2341TIP3    H128438   2.889   0.200   2.090 -0.5205 -0.0619 -0.4055
 2341TIP3    H228439   2.903   0.345   2.049  0.2758 -0.0516 -0.1009
 2342TIP3   OH228440   1.723   0.206  15.742  0.1200  0.3118 -0.2968
 2342TIP3    H128441   1.715   0.160  15.826 -1.3906  0.2901 -0.4174
 2342TIP3    H228442   1.799   0.263  15.752  1.1245 -1.0815  0.3981
 2343TIP3   OH228443   0.936   6.660   4.959 -0.4849  0.2028 -0.0209
 2343TIP3    H128444   0.893   6.581   4.992  0.3656 -0.4786 -0.4755
 2343TIP3    H228445   0.944   6.717   5.035 -4.3030  1.4462 -0.3329
 2344TIP3   OH228446   4.057   5.861   4.454  0.2771  0.2519  0.1023
 2344TIP3    H128447   4.137   5.809   4.445  1.8273  2.3356  1.0804
 2344TIP3    H228448   4.079   5.945   4.413 -2.5953 -0.1527 -2.7015
 2345TIP3   OH228449   5.303   4.218  16.688 -0.2362 -0.1737 -0.3324
 2345TIP3    H128450   5.286   4.123  16.689  1.5059 -0.5237  0.1343
 2345TIP3    H228451   5.350   4.234  16.769  0.2615  0.9432 -0.8273
 2346TIP3   OH228452   4.713   0.890   3.712  0.0237 -0.1037 -0.9431
 2346TIP3    H128453   4.635   0.920   3.665  0.2141 -0.8298 -1.7509
 2346TIP3    H228454   4.680   0.849   3.791 -0.3192  0.9135 -0.5419
 2347TIP3   OH228455   0.012   0.411  11.223 -0.2882  0.1303 -0.1180
 2347TIP3    H128456  -0.026   0.342  11.278 -1.1950 -0.6615 -1.6437
 2347TIP3    H228457   0.044   0.477  11.284 -2.2169 -0.1909  1.3164
 2348TIP3   OH228458   4.629   4.313  11.784  0.1936 -0.5090 -0.0611
 2348TIP3    H128459   4.647   4.235  11.732  0.1321  0.1648 -1.1102
 2348TIP3    H228460   4.711   4.363  11.781 -0.5319  0.6475 -1.4928
 2349TIP3   OH228461   6.630   4.158   0.320 -0.0759 -0.7239  0.1395
 2349TIP3    H128462   6.658   4.069   0.342  0.2272 -0.4159  1.0403
 2349TIP3    H228463   6.596   4.193   0.402  0.0009  0.0701 -0.1583
 2350TIP3   OH228464   5.442   5.592   3.900 -0.6033  0.3055  0.1459
 2350TIP3    H128465   5.462   5.524   3.964 -1.7103  0.3022  0.5052
 2350TIP3    H228466   5.446   5.548   3.816 -0.9515 -0.1305  0.3521
 2351TIP3   OH228467   1.606   5.231   4.710  0.0898 -0.0454  0.1422
 2351TIP3    H128468   1.525   5.219   4.760 -0.7117 -0.2819 -1.1744
 2351TIP3    H228469   1.593   5.313   4.662  0.9906  0.3560  0.5532
 2352TIP3   OH228470   5.881   6.465  16.576  0.7198 -0.3122 -0.0244
 2352TIP3    H128471   5.908   6.406  16.506  0.8167  0.3713 -0.5752
 2352TIP3    H228472   5.826   6.530  16.532 -1.7330 -1.5293  1.0021
 2353TIP3   OH228473   2.102   0.407  13.885 -0.1774 -0.0556  1.5006
 2353TIP3    H128474   2.048   0.334  13.854  0.0130  0.3263  0.2134
 2353TIP3    H228475   2.187   0.368  13.902  0.7550  0.2283 -1.7603
 2354TIP3   OH228476   4.001   3.662  12.858 -0.1925  0.2570  0.3502
 2354TIP3    H128477   4.041   3.694  12.938  0.4771 -0.6084  0.3838
 2354TIP3    H228478   3.985   3.569  12.875 -1.0461  0.3068 -0.1296
 2355TIP3   OH228479   4.999   0.539  15.703  0.3968  0.3548  0.1010
 2355TIP3    H128480   5.042   0.493  15.630  1.0560  0.5489  0.3606
 2355TIP3    H228481   4.910   0.504  15.704 -0.0619  1.3603 -1.6995
 2356TIP3   OH228482   1.105   0.963   2.756  0.2524  0.8619  0.9960
 2356TIP3    H128483   1.183   1.015   2.739  0.4744 -0.3877 -2.7585
 2356TIP3    H228484   1.133   0.872   2.747 -1.2422  0.2956  1.6188
 2357TIP3   OH228485   3.779   5.130  17.216  0.3298 -0.0372 -0.1459
 2357TIP3    H128486   3.750   5.069  17.148  0.9943 -1.1186  0.4911
 2357TIP3    H228487   3.861   5.167  17.183  0.1728  0.1410 -0.3329
 2358TIP3   OH228488   3.058   1.405   4.793  0.5857  0.2629 -0.0349
 2358TIP3    H128489   3.090   1.316   4.783  1.1126  0.3204  0.9814
 2358TIP3    H228490   2.970   1.404   4.755  0.3745 -0.8176  0.4500
 2359TIP3   OH228491   1.928   5.069   3.430  0.2518 -0.3581 -0.0262
 2359TIP3    H128492   1.995   5.101   3.370 -0.4172  0.8266 -0.1744
 2359TIP3    H228493   1.859   5.136   3.427  0.0660 -0.4075  1.8132
 2360TIP3   OH228494   2.532   5.751  13.613  0.1275 -0.2636  0.7996
 2360TIP3    H128495   2.516   5.819  13.679  0.7535  0.1832  0.4926
 2360TIP3    H228496   2.560   5.799  13.535 -3.8902 -0.4302 -1.0022
 2361TIP3   OH228497   1.852   2.059  15.598 -0.5198 -0.1283  0.3797
 2361TIP3    H128498   1.772   2.038  15.646  0.6836 -1.6150  1.8427
 2361TIP3    H228499   1.914   1.992  15.625  1.7461  1.9313  0.5807
 2362TIP3   OH228500   5.364   2.639   5.360  0.3080  0.5166 -0.0025
 2362TIP3    H128501   5.350   2.593   5.442  0.0642  0.8429  0.1404
 2362TIP3    H228502   5.279   2.636   5.316  0.5969 -0.2203 -0.5391
 2363TIP3   OH228503   1.882   5.901   7.080  0.1312  0.1445  0.0200
 2363TIP3    H128504   1.848   5.964   7.016 -0.6103 -0.5992 -0.3396
 2363TIP3    H228505   1.971   5.930   7.097  0.0972  0.7834 -0.8036
 2364TIP3   OH228506   3.911   1.701   2.358 -0.9343 -0.5976 -0.0863
 2364TIP3    H128507   3.841   1.639   2.379  0.1413 -1.6406  0.5334
 2364TIP3    H228508   3.971   1.696   2.432  1.0987 -1.6278 -1.7016
 2365TIP3   OH228509   1.512   6.707   1.859 -0.0119 -0.0502  0.1612
 2365TIP3    H128510   1.603   6.677   1.857 -0.1038 -0.3097 -1.4115
 2365TIP3    H228511   1.518   6.802   1.858  0.2440 -0.0670 -0.0559
 2366TIP3   OH228512   6.401   0.685   5.338 -0.0695  0.5264 -0.6877
 2366TIP3    H128513   6.482   0.709   5.383 -1.2293  1.9830  0.7514
 2366TIP3    H228514   6.407   0.729   5.253  1.4622 -0.9862 -1.4189
 2367TIP3   OH228515   4.740   5.470   0.167  0.1897  0.4134  0.6877
 2367TIP3    H128516   4.818   5.492   0.219  0.2863  1.9262 -0.0495
 2367TIP3    H228517   4.769   5.400   0.109  1.2917  1.5877 -0.2229
 2368TIP3   OH228518   3.674   1.417  14.546  0.1466 -0.1780 -0.7315
 2368TIP3    H128519   3.608   1.437  14.612  0.3491 -0.2888 -0.4926
 2368TIP3    H228520   3.677   1.322  14.542  0.2052 -0.1726 -0.8301
 2369TIP3   OH228521   1.546   4.996  13.773 -0.5652  0.4116 -0.2217
 2369TIP3    H128522   1.578   5.079  13.808 -2.3422  0.4515  1.5196
 2369TIP3    H228523   1.551   5.005  13.678  1.9166  1.3842 -0.0505
 2370TIP3   OH228524   5.899   1.884  14.131 -0.5316 -0.0839 -0.4786
 2370TIP3    H128525   5.958   1.888  14.056 -1.3316  0.9441 -1.0846
 2370TIP3    H228526   5.915   1.965  14.179  0.2987 -0.9278  0.7622
 2371TIP3   OH228527   5.353   6.226  11.691 -0.1706 -0.0542  0.5034
 2371TIP3    H128528   5.391   6.298  11.641  2.7282 -1.4471  0.4937
 2371TIP3    H228529   5.419   6.204  11.757 -1.2391 -2.2188  0.9552
 2372TIP3   OH228530   3.509   3.325   5.159  0.1995  0.0882 -0.2777
 2372TIP3    H128531   3.523   3.286   5.073  1.7116 -0.8451  0.3481
 2372TIP3    H228532   3.584   3.384   5.171 -0.0377  0.2596  0.3733
 2373TIP3   OH228533   4.207   5.195  15.214  0.5770  0.2663  0.0784
 2373TIP3    H128534   4.202   5.262  15.146  0.4373 -1.1037 -1.3004
 2373TIP3    H228535   4.290   5.151  15.198  0.0151 -0.8141  0.0724
 2374TIP3   OH228536   2.370   4.820  14.200 -0.1222 -0.1782  1.0067
 2374TIP3    H128537   2.431   4.792  14.268  0.6542 -1.0086  0.0100
 2374TIP3    H228538   2.342   4.908  14.227  1.1975  0.0560  1.7145
 2375TIP3   OH228539   6.728   4.281   0.680  0.6443 -0.4243 -0.3919
 2375TIP3    H128540   6.718   4.233   0.763  0.5974  2.4961  1.4488
 2375TIP3    H228541   6.645   4.267   0.634  0.4992 -1.7758  0.2297
 2376TIP3   OH228542   2.476   6.439  15.143  0.2193  0.4056  0.5297
 2376TIP3    H128543   2.426   6.511  15.179  1.0681  0.6321  1.3048
 2376TIP3    H228544   2.563   6.448  15.182  0.7070 -0.3001 -0.3327
 2377TIP3   OH228545   0.923   5.835  13.359 -0.0159 -0.3066 -0.4110
 2377TIP3    H128546   0.907   5.865  13.448 -0.3051 -0.1462 -0.5144
 2377TIP3    H228547   1.018   5.841  13.348 -0.1306  1.4036 -0.7055
 2378TIP3   OH228548   4.488   1.180  15.037  0.0498 -0.1597 -0.0710
 2378TIP3    H128549   4.408   1.159  15.085 -0.4733  0.7140 -0.5469
 2378TIP3    H228550   4.479   1.135  14.953 -0.2236  0.4304 -0.3612
 2379TIP3   OH228551   4.319   0.508  11.831 -0.1391  0.5346 -0.1121
 2379TIP3    H128552   4.343   0.529  11.741 -0.5665 -0.5642 -0.5021
 2379TIP3    H228553   4.226   0.531  11.837 -0.1718  0.3782 -0.0198
 2380TIP3   OH228554   3.578   3.502  16.114  0.0145  0.3731 -0.8124
 2380TIP3    H128555   3.512   3.433  16.112 -0.5306  0.7996  0.8852
 2380TIP3    H228556   3.657   3.461  16.080 -0.5170 -0.8372 -0.6327
 2381TIP3   OH228557   0.676   0.587   0.715  0.2163 -0.2839  0.4105
 2381TIP3    H128558   0.630   0.607   0.633  0.1103 -1.0024  0.2953
 2381TIP3    H228559   0.765   0.620   0.701  0.0552  0.0838  0.2140
 2382TIP3   OH228560   1.830   3.524  11.818  0.8609  0.3833  0.3029
 2382TIP3    H128561   1.870   3.459  11.761 -0.6180 -0.8931  0.6434
 2382TIP3    H228562   1.898   3.545  11.882  1.9402  0.5069 -0.8581
 2383TIP3   OH228563   3.996   2.006   3.720  0.6092  0.4005  0.1001
 2383TIP3    H128564   3.966   1.981   3.807  0.3406 -0.4273 -0.2275
 2383TIP3    H228565   4.081   1.963   3.711  1.1570  1.3833  0.3709
 2384TIP3   OH228566   2.253   2.844  13.802  0.2264 -0.7079  0.1213
 2384TIP3    H128567   2.203   2.770  13.837 -2.8175  0.5962 -1.0439
 2384TIP3    H228568   2.272   2.819  13.711  1.6590 -1.1414  0.5231
 2385TIP3   OH228569   6.119   0.448  11.983 -0.0953 -0.1317 -0.2345
 2385TIP3    H128570   6.130   0.542  11.968  1.7788 -0.3171 -0.2447
 2385TIP3    H228571   6.098   0.413  11.897  0.4643  0.1269 -0.4834
 2386TIP3   OH228572   3.860   1.492  11.884 -0.5939 -0.2598  0.0565
 2386TIP3    H128573   3.816   1.501  11.800 -0.6437 -0.9896 -0.0051
 2386TIP3    H228574   3.906   1.575  11.896 -1.3607  0.2185 -0.2329
 2387TIP3   OH228575   0.985   4.679  16.930  0.1989  0.6329  0.1241
 2387TIP3    H128576   0.980   4.698  16.837  0.4797 -0.0273 -0.0258
 2387TIP3    H228577   1.071   4.710  16.957 -0.1227  1.4063  0.3053
 2388TIP3   OH228578   4.064   2.423   2.890  0.1315  0.7751  0.0589
 2388TIP3    H128579   4.080   2.445   2.798  0.6967  3.0077  0.6377
 2388TIP3    H228580   4.145   2.381   2.919 -0.4148 -0.8994 -0.6638
 2389TIP3   OH228581   0.329   0.354  13.501 -0.2809  0.0400  0.2894
 2389TIP3    H128582   0.350   0.401  13.421 -1.4564  0.1083  0.0018
 2389TIP3    H228583   0.407   0.301  13.519  1.0361  1.9196  0.5354
 2390TIP3   OH228584   0.538   1.389   0.046 -0.9526 -0.0012  0.3919
 2390TIP3    H128585   0.608   1.432   0.094  1.8757 -1.6215 -1.9168
 2390TIP3    H228586   0.474   1.458   0.030  0.1203  1.6138  2.5013
 2391TIP3   OH228587   2.910   4.556   3.483  0.5170  0.2580 -0.3003
 2391TIP3    H128588   2.949   4.539   3.397  0.2572 -0.8041 -0.2253
 2391TIP3    H228589   2.983   4.549   3.544  0.2335 -1.9609 -0.1348
 2392TIP3   OH228590   3.528   3.808   2.966 -0.4843 -0.2060 -0.3425
 2392TIP3    H128591   3.476   3.853   2.899 -0.4212  0.6848  0.1853
 2392TIP3    H228592   3.513   3.715   2.950 -0.6225  0.0035 -1.4676
 2393TIP3   OH228593   1.954   5.634   2.167 -0.1968 -0.4797 -0.3218
 2393TIP3    H128594   1.907   5.696   2.110  1.7656  0.4054 -1.0760
 2393TIP3    H228595   1.933   5.548   2.131 -1.5565 -0.1707 -0.3490
 2394TIP3   OH228596   6.140   2.566  16.291  0.1961  0.0308 -0.1243
 2394TIP3    H128597   6.135   2.632  16.222 -1.4738  0.5623  0.4647
 2394TIP3    H228598   6.180   2.611  16.365 -0.6627  0.3308  0.1753
 2395TIP3   OH228599   6.092   5.038   1.168 -0.2179  0.6510 -0.1014
 2395TIP3    H128600   6.079   5.106   1.234  0.6827  0.2687  0.5077
 2395TIP3    H228601   6.179   5.002   1.188 -0.5168 -0.4201 -0.6303
 2396TIP3   OH228602   5.281   2.118   0.862 -0.1158  0.4775 -0.1160
 2396TIP3    H128603   5.246   2.194   0.814  0.8389  1.1720  0.2615
 2396TIP3    H228604   5.349   2.155   0.918  0.4902 -0.6948 -0.0628
 2397TIP3   OH228605   1.526   5.447   5.433  0.0948 -0.3408 -0.0990
 2397TIP3    H128606   1.561   5.529   5.397  0.1732 -0.2223  0.2374
 2397TIP3    H228607   1.594   5.417   5.493 -0.1886 -0.3419  0.2272
 2398TIP3   OH228608   6.201   3.392   0.696  0.2181  0.7280 -0.1950
 2398TIP3    H128609   6.268   3.379   0.628  0.8458  1.6423  0.2336
 2398TIP3    H228610   6.154   3.470   0.668  0.0323  0.7096  0.0697
 2399TIP3   OH228611   1.393   2.533  11.126  0.4657  0.1186 -0.1716
 2399TIP3    H128612   1.316   2.564  11.173  0.9479 -1.0957  1.5365
 2399TIP3    H228613   1.358   2.475  11.058 -0.1937  1.0442 -0.6422
 2400TIP3   OH228614   4.864   1.302  12.774  0.2447  0.1927 -0.4451
 2400TIP3    H128615   4.843   1.339  12.860  2.0283  1.3341 -0.4495
 2400TIP3    H228616   4.918   1.226  12.793  0.8108  0.5628 -0.5336
 2401TIP3   OH228617   6.373   0.644  15.066  0.0220 -0.0552  0.9307
 2401TIP3    H128618   6.453   0.656  15.118  0.1390 -0.2856  0.8071
 2401TIP3    H228619   6.406   0.627  14.977 -0.1561 -0.4871  0.9458
 2402TIP3   OH228620   5.282   4.638   5.385 -0.0995 -0.4665  0.1826
 2402TIP3    H128621   5.210   4.670   5.439 -0.9383 -1.2948 -0.4204
 2402TIP3    H228622   5.361   4.657   5.436 -0.7897 -0.2061  1.1768
 2403TIP3   OH228623   4.699   0.086  14.653  0.2803 -0.6114  0.0867
 2403TIP3    H128624   4.756   0.133  14.714  1.5681 -2.2882  0.2135
 2403TIP3    H228625   4.722  -0.006  14.663 -0.8006 -1.1152 -1.5925
 2404TIP3   OH228626   6.481   3.519   2.155 -0.7377  0.0430 -0.0850
 2404TIP3    H128627   6.547   3.456   2.187 -1.2942 -1.2951 -1.4313
 2404TIP3    H228628   6.407   3.507   2.214 -0.2981  0.5344  0.5784
 2405TIP3   OH228629   5.758   4.878   3.254  0.2659  0.2010  0.4940
 2405TIP3    H128630   5.787   4.794   3.217 -0.6814  0.7674 -1.7097
 2405TIP3    H228631   5.681   4.855   3.306 -1.0649 -0.1337 -1.5389
 2406TIP3   OH228632   4.651   2.557   4.854 -0.0743  0.1636  0.1092
 2406TIP3    H128633   4.571   2.605   4.873  0.5363  1.4065 -0.3453
 2406TIP3    H228634   4.628   2.500   4.781 -1.1780 -1.2891  1.5269
 2407TIP3   OH228635   4.677   2.055   1.146 -0.1388  0.0201  1.1227
 2407TIP3    H128636   4.680   1.975   1.198 -1.9736 -0.8280  0.0237
 2407TIP3    H228637   4.743   2.042   1.078 -0.0825 -0.3231  1.2408
 2408TIP3   OH228638   0.406   5.360  11.129  0.1206  0.4588  0.5620
 2408TIP3    H128639   0.402   5.448  11.167  0.7229  1.1040 -0.7822
 2408TIP3    H228640   0.451   5.372  11.045 -1.7021 -0.7554 -0.6840
 2409TIP3   OH228641   5.206   0.703   6.452  0.1891  0.0993  0.2437
 2409TIP3    H128642   5.174   0.649   6.379  0.7956 -2.0159  1.4857
 2409TIP3    H228643   5.188   0.793   6.423 -1.6677 -0.7409 -1.5356
 2410TIP3   OH228644   3.663   1.155   1.763  0.4866  0.0059 -0.3204
 2410TIP3    H128645   3.647   1.167   1.856 -1.0527  1.0427 -0.6864
 2410TIP3    H228646   3.704   1.236   1.735  3.2223 -1.2117 -0.1354
 2411TIP3   OH228647   2.795   4.060   1.269  0.3707 -0.4657  0.4072
 2411TIP3    H128648   2.737   4.000   1.316 -1.1621  0.1846 -0.5779
 2411TIP3    H228649   2.780   4.145   1.310  0.6757 -0.3025  0.1846
 2412TIP3   OH228650   3.339   0.866  12.673 -0.1251  0.7190  0.1860
 2412TIP3    H128651   3.432   0.866  12.695 -0.3716 -1.8092  1.5922
 2412TIP3    H228652   3.333   0.821  12.589 -0.2077 -0.9447  1.0575
 2413TIP3   OH228653   5.183   0.221  15.219  0.0032 -0.3132  0.0875
 2413TIP3    H128654   5.133   0.268  15.153 -0.8486 -0.8787  0.3104
 2413TIP3    H228655   5.122   0.211  15.293  0.7489 -0.1898  0.7354
 2414TIP3   OH228656   5.493   1.019   0.959 -0.1744  0.6677 -0.0278
 2414TIP3    H128657   5.511   0.940   1.010 -1.5908  0.4387  0.1623
 2414TIP3    H228658   5.486   1.088   1.025  0.7328  0.9104 -0.1677
 2415TIP3   OH228659   0.737   5.269   3.769 -0.3711  0.0941  0.4481
 2415TIP3    H128660   0.808   5.333   3.770  0.6908 -1.0227 -0.4594
 2415TIP3    H228661   0.657   5.322   3.765  0.4813  1.3662 -0.6451
 2416TIP3   OH228662   5.428   1.809   1.498 -0.4360 -0.0754 -0.1628
 2416TIP3    H128663   5.460   1.736   1.445 -0.8655 -1.2399  1.1280
 2416TIP3    H228664   5.501   1.830   1.556  0.0207  1.1711 -1.1541
 2417TIP3   OH228665   4.603   6.390  11.241  0.0654  0.8064  0.5227
 2417TIP3    H128666   4.586   6.300  11.212  1.6937  0.6771 -0.0979
 2417TIP3    H228667   4.584   6.444  11.165 -0.2994  0.9441  0.7060
 2418TIP3   OH228668   4.599   0.813  11.187  0.9556  0.3154 -0.2463
 2418TIP3    H128669   4.598   0.815  11.282  0.8653  0.9683 -0.2530
 2418TIP3    H228670   4.610   0.720  11.164 -0.7572 -0.0641  0.3825
 2419TIP3   OH228671   5.756   3.721  12.376  0.0792 -0.1578 -0.3403
 2419TIP3    H128672   5.802   3.791  12.423 -1.3149  0.3253  0.3489
 2419TIP3    H228673   5.721   3.665  12.445 -1.7650  0.4066 -0.7645
 2420TIP3   OH228674   2.160   2.541   0.849  0.4521  0.2374  0.0103
 2420TIP3    H128675   2.117   2.559   0.766  1.0367 -0.2727 -0.4090
 2420TIP3    H228676   2.253   2.537   0.828  0.5319 -0.9204  0.4887
 2421TIP3   OH228677   5.856   2.460   4.298 -0.0731 -0.4763 -0.1705
 2421TIP3    H128678   5.770   2.497   4.275 -0.0925 -0.1038  0.4667
 2421TIP3    H228679   5.911   2.537   4.313  0.4014 -0.7140 -0.6495
 2422TIP3   OH228680   0.338   0.885  11.925  0.2804 -0.1728  0.3318
 2422TIP3    H128681   0.281   0.823  11.880 -0.8722  1.6708 -0.8962
 2422TIP3    H228682   0.390   0.925  11.855  0.2800  0.9354  0.9420
 2423TIP3   OH228683   0.985   1.582   0.871  0.0025  0.0029  0.2735
 2423TIP3    H128684   0.933   1.647   0.919 -0.6238 -1.2429  1.3418
 2423TIP3    H228685   1.001   1.512   0.935  0.4624 -1.0123 -0.9121
 2424TIP3   OH228686   2.015   2.851   1.681 -0.4212 -0.0993 -0.0135
 2424TIP3    H128687   1.969   2.867   1.764  0.0414  0.5969  0.1233
 2424TIP3    H228688   2.102   2.821   1.708 -0.9858 -2.0502 -0.2745
 2425TIP3   OH228689   1.100   4.397  13.644  0.0692  0.0228 -0.2388
 2425TIP3    H128690   1.085   4.357  13.729  1.4358  0.4977  0.2647
 2425TIP3    H228691   1.088   4.326  13.581 -0.2291 -0.5159  0.4130
 2426TIP3   OH228692   0.379   0.758   1.642  0.4615  0.3403  0.1270
 2426TIP3    H128693   0.415   0.720   1.562  0.1032  0.2322  0.0167
 2426TIP3    H228694   0.439   0.727   1.711  0.9795  0.7350 -0.1384
 2427TIP3   OH228695   0.500   4.899   3.755  0.0090  0.7995 -0.6958
 2427TIP3    H128696   0.423   4.951   3.732 -1.1396 -1.5324 -2.4338
 2427TIP3    H228697   0.472   4.846   3.830  0.7028  1.4948  0.0933
 2428TIP3   OH228698   1.126   0.905  13.987 -0.3870 -0.6229 -0.1102
 2428TIP3    H128699   1.149   0.815  14.012  1.7820 -0.1667 -0.3316
 2428TIP3    H228700   1.190   0.960  14.032 -0.5906  0.7058 -1.3865
 2429TIP3   OH228701   6.113   4.384  16.892 -0.0381  1.0211  0.5566
 2429TIP3    H128702   6.127   4.298  16.853  0.1658  0.2711  2.2075
 2429TIP3    H228703   6.176   4.441  16.848  2.7302 -0.5646  2.2382
 2430TIP3   OH228704   1.447   0.009  14.897 -0.0743 -0.6180  0.1221
 2430TIP3    H128705   1.359  -0.028  14.890 -0.3002 -0.0638 -0.0708
 2430TIP3    H228706   1.482  -0.026  14.979 -0.0635 -1.6803 -0.3170
 2431TIP3   OH228707   5.491   1.085  16.306 -0.2947 -0.6976  0.0027
 2431TIP3    H128708   5.432   1.109  16.234 -0.6955  0.0284  0.5655
 2431TIP3    H228709   5.447   1.118  16.385 -0.3157 -2.2997  0.6921
 2432TIP3   OH228710   3.661   5.659  11.567 -0.2048  0.1055 -0.0028
 2432TIP3    H128711   3.623   5.596  11.506  0.4093 -0.3634  0.0847
 2432TIP3    H228712   3.708   5.721  11.511 -0.8156  0.4886 -0.0906
 2433TIP3   OH228713   6.399   0.915   5.890 -0.7127 -0.1612 -0.0276
 2433TIP3    H128714   6.464   0.926   5.959  0.4692 -0.3665 -1.0561
 2433TIP3    H228715   6.334   0.855   5.926 -0.1152 -0.2652  0.8924
 2434TIP3   OH228716   0.609   1.952   2.352 -0.4032 -0.7293  0.1668
 2434TIP3    H128717   0.638   1.937   2.262  0.5214 -2.1993  0.6675
 2434TIP3    H228718   0.528   2.003   2.343  1.2019  1.7376 -1.3564
 2435TIP3   OH228719   4.275   1.828  17.014  0.1618  0.2020  0.2981
 2435TIP3    H128720   4.348   1.874  16.972 -1.1152  1.4765 -0.6331
 2435TIP3    H228721   4.282   1.852  17.107  0.5601  0.8492  0.1087
 2436TIP3   OH228722   5.675   6.645  17.029  0.0997 -0.0089  0.2703
 2436TIP3    H128723   5.715   6.600  16.955 -0.0134 -0.7990  0.6734
 2436TIP3    H228724   5.744   6.702  17.063  0.5816 -0.6332  0.3635
 2437TIP3   OH228725   1.662   5.076   3.754 -0.0881  0.1755 -0.4611
 2437TIP3    H128726   1.685   5.024   3.676  0.3213 -1.4063  0.6587
 2437TIP3    H228727   1.572   5.104   3.738 -0.8464 -2.0940 -0.5288
 2438TIP3   OH228728   3.845   1.909   5.164 -0.2177  0.2100  0.0079
 2438TIP3    H128729   3.846   1.857   5.244 -0.6075 -0.7982 -0.6220
 2438TIP3    H228730   3.862   1.845   5.094  2.1456  1.3598 -0.5710
 2439TIP3   OH228731   1.073   0.808  11.490  0.0454 -0.1638 -0.6326
 2439TIP3    H128732   1.106   0.862  11.562 -1.9398  0.0130  0.2209
 2439TIP3    H228733   1.065   0.720  11.528 -3.0358  0.3301  0.1784
 2440TIP3   OH228734   5.270   6.754  16.731  0.1686 -0.4411 -0.1291
 2440TIP3    H128735   5.344   6.813  16.716 -0.4771  0.6500  0.8241
 2440TIP3    H228736   5.284   6.719  16.819  0.1068 -1.0770 -0.3655
 2441TIP3   OH228737   2.293   0.192   1.711  0.6104 -0.1441 -0.9898
 2441TIP3    H128738   2.208   0.203   1.668 -0.0221 -1.3362 -0.1070
 2441TIP3    H228739   2.321   0.103   1.686  1.8948  0.4369 -1.7382
 2442TIP3   OH228740   6.228   2.075  11.057  0.4456  0.5037  0.6602
 2442TIP3    H128741   6.231   2.017  10.981  0.9300 -0.2998  1.2786
 2442TIP3    H228742   6.137   2.073  11.085  0.6290 -0.7565  1.2577
 2443TIP3   OH228743   4.596   5.618   4.624 -0.5583 -0.2264 -0.2501
 2443TIP3    H128744   4.590   5.601   4.530  0.8440 -1.6817 -0.1184
 2443TIP3    H228745   4.516   5.667   4.644 -2.0327 -1.8457 -1.7669
 2444TIP3   OH228746   0.995   2.119  13.960 -0.5613  0.0703  0.0129
 2444TIP3    H128747   0.950   2.074  13.888 -0.1272 -0.2605 -0.0574
 2444TIP3    H228748   1.031   2.048  14.013  1.5274  0.3366 -0.9803
 2445TIP3   OH228749   1.068   2.290   2.389 -0.6212 -0.3074  0.2515
 2445TIP3    H128750   1.115   2.312   2.309  2.5240  1.6033  2.3468
 2445TIP3    H228751   1.114   2.213   2.423  0.6661  1.1288  1.9629
 2446TIP3   OH228752   6.501   2.243  12.565  0.1682 -0.0592  0.4034
 2446TIP3    H128753   6.408   2.240  12.589  0.1267 -3.1407  0.3086
 2446TIP3    H228754   6.501   2.240  12.469  0.4361  3.9323  0.1212
 2447TIP3   OH228755   2.181   5.207   6.968 -0.6214 -0.0834  0.6062
 2447TIP3    H128756   2.163   5.126   7.016  1.8651 -0.6822  0.6366
 2447TIP3    H228757   2.239   5.180   6.897 -1.0006  1.4538 -0.3241
 2448TIP3   OH228758   1.790   5.303  12.582  0.0335  0.3385  0.3030
 2448TIP3    H128759   1.857   5.343  12.527 -0.2145  0.6062  0.1898
 2448TIP3    H228760   1.736   5.253  12.522  1.6671 -2.0912  0.7203
 2449TIP3   OH228761   1.387   6.751  16.825  0.2839  0.1929 -0.7976
 2449TIP3    H128762   1.337   6.830  16.808 -0.0563 -0.3584 -2.5725
 2449TIP3    H228763   1.477   6.781  16.842 -0.5474  1.2199  2.7373
 2450TIP3   OH228764   5.814   1.882   1.407  0.2722 -0.0567 -0.2131
 2450TIP3    H128765   5.778   1.971   1.402  1.5140  0.4845  0.0341
 2450TIP3    H228766   5.810   1.850   1.317 -1.2159 -0.1931 -0.1225
 2451TIP3   OH228767   3.452   6.622   4.821  0.0986 -0.6917  0.2163
 2451TIP3    H128768   3.482   6.603   4.910  0.8078 -0.8194 -0.0402
 2451TIP3    H228769   3.393   6.697   4.831  1.7633  0.6533  0.5901
 2452TIP3   OH228770   2.091   2.925  14.588  0.0737  0.7693  0.1434
 2452TIP3    H128771   2.024   2.936  14.522 -1.0057 -0.8710  0.8868
 2452TIP3    H228772   2.133   2.841  14.566 -0.2036  0.2675  1.3934
 2453TIP3   OH228773   0.404   5.616  11.223 -0.7470  0.4263  0.3495
 2453TIP3    H128774   0.430   5.651  11.138 -0.5541  0.7237  0.5316
 2453TIP3    H228775   0.480   5.631  11.280 -0.6165 -0.3722  0.4063
 2454TIP3   OH228776   2.500   6.631   0.934 -0.5832  0.2000  0.0442
 2454TIP3    H128777   2.584   6.611   0.894 -0.3427 -0.8146  1.0181
 2454TIP3    H228778   2.469   6.548   0.970 -2.9571  0.0958 -1.9647
 2455TIP3   OH228779   2.351   6.521  13.372  0.7284  0.4519  0.7161
 2455TIP3    H128780   2.313   6.553  13.290  1.8308 -1.8626 -0.7822
 2455TIP3    H228781   2.402   6.595  13.404 -0.3746  1.6835 -0.2328
 2456TIP3   OH228782   2.801   5.622   1.768  0.8034  0.5854 -0.2813
 2456TIP3    H128783   2.875   5.565   1.748  0.7519  0.5041 -0.2386
 2456TIP3    H228784   2.809   5.694   1.704  0.0547 -0.1973 -1.2817
 2457TIP3   OH228785   1.734   5.267  15.465  0.3458 -0.1903  0.4002
 2457TIP3    H128786   1.825   5.239  15.457  0.3218 -0.7586  1.8291
 2457TIP3    H228787   1.683   5.188  15.449  0.1075  0.0927 -0.2433
 2458TIP3   OH228788   1.200   2.096   1.258 -0.1230 -0.3199 -0.1927
 2458TIP3    H128789   1.249   2.014   1.249 -0.7986 -0.5426 -2.3520
 2458TIP3    H228790   1.266   2.160   1.283  0.8760 -1.0435 -0.8823
 2459TIP3   OH228791   4.400   2.583  16.749  0.2472  0.0659 -0.1290
 2459TIP3    H128792   4.393   2.594  16.654  1.1435  0.1830 -0.1964
 2459TIP3    H228793   4.452   2.658  16.778  1.2914 -0.7681  0.2335
 2460TIP3   OH228794   0.447   2.508   1.811 -0.6914  0.4703  0.2322
 2460TIP3    H128795   0.368   2.455   1.799 -0.1652 -0.3467  0.3496
 2460TIP3    H228796   0.429   2.589   1.762 -1.5751  0.2679  0.2148
 2461TIP3   OH228797   2.912   5.578   6.157 -0.8486 -0.1294 -0.0360
 2461TIP3    H128798   2.942   5.497   6.198 -0.4306  0.6378  1.2494
 2461TIP3    H228799   2.907   5.640   6.230 -0.8412  1.0824 -1.0428
 2462TIP3   OH228800   2.034   4.156   4.521 -0.0545  0.1391  0.0052
 2462TIP3    H128801   2.125   4.169   4.495  0.4737 -1.0098  1.1499
 2462TIP3    H228802   1.993   4.241   4.510  1.2011  0.7101 -0.3920
 2463TIP3   OH228803   4.397   6.627  10.460  0.6074  0.3225 -0.4148
 2463TIP3    H128804   4.335   6.656  10.526  0.2915  0.8004 -0.9110
 2463TIP3    H228805   4.345   6.614  10.381  0.9973 -0.1300 -0.6055
 2464TIP3   OH228806   3.280   4.831  13.500  0.5387 -0.6268 -0.4281
 2464TIP3    H128807   3.207   4.856  13.556 -0.8225  0.6395 -2.5783
 2464TIP3    H228808   3.261   4.741  13.473 -0.2918 -0.3014 -0.9824
 2465TIP3   OH228809   3.342   0.868  14.440 -0.1373  0.0293  0.2720
 2465TIP3    H128810   3.433   0.837  14.436 -0.2556 -0.7446  2.4193
 2465TIP3    H228811   3.341   0.928  14.515 -1.4267 -0.1041  0.3717
 2466TIP3   OH228812   5.893   5.139  14.477 -0.5681 -0.4251 -0.1030
 2466TIP3    H128813   5.828   5.182  14.421  0.6248  0.2463 -1.0403
 2466TIP3    H228814   5.956   5.208  14.498  1.1715 -1.5443 -1.3029
 2467TIP3   OH228815   0.913   5.467  11.525 -0.0445 -0.1162 -0.2276
 2467TIP3    H128816   0.857   5.390  11.522  0.1519 -0.2487 -0.4786
 2467TIP3    H228817   0.974   5.456  11.452  0.6665 -0.2379  0.3853
 2468TIP3   OH228818   0.850   5.756   6.327  0.1513  0.5542 -0.4904
 2468TIP3    H128819   0.942   5.782   6.321  0.1778  0.8040  0.7415
 2468TIP3    H228820   0.826   5.772   6.418 -0.6847 -0.9520 -0.4104
 2469TIP3   OH228821   1.213   4.341  14.591 -0.0807 -0.7448 -0.5344
 2469TIP3    H128822   1.221   4.245  14.594  0.7397 -0.6724 -0.0634
 2469TIP3    H228823   1.268   4.367  14.517  1.6533 -0.4874  0.7567
 2470TIP3   OH228824   4.097   1.470   0.763 -0.2976  0.3302  0.4046
 2470TIP3    H128825   4.110   1.375   0.763  1.8742  0.5515  1.7601
 2470TIP3    H228826   4.054   1.488   0.680  1.2755 -1.6090 -0.9216
 2471TIP3   OH228827   5.401   0.506  16.043  0.2827  0.2496  0.3278
 2471TIP3    H128828   5.325   0.466  15.999 -0.0846  0.2761  0.9264
 2471TIP3    H228829   5.433   0.438  16.102 -0.3598  0.8347  1.3676
 2472TIP3   OH228830   0.598   4.638  11.804 -0.1603  0.3332  0.2972
 2472TIP3    H128831   0.594   4.663  11.711  1.5910  0.5104  0.2266
 2472TIP3    H228832   0.549   4.556  11.809 -2.0334  1.3528 -0.3607
 2473TIP3   OH228833   4.861   4.261   1.639  0.0262  0.1738 -0.4030
 2473TIP3    H128834   4.786   4.305   1.599 -1.5499 -0.9216  1.1857
 2473TIP3    H228835   4.913   4.230   1.565 -1.1112  0.9044 -1.5582
 2474TIP3   OH228836   3.345   6.318   0.320 -0.3734 -0.3290  0.1389
 2474TIP3    H128837   3.310   6.242   0.273 -0.0986  0.8862 -2.1293
 2474TIP3    H228838   3.436   6.295   0.337 -0.8429 -1.3798  1.5055
 2475TIP3   OH228839   2.102   4.021   0.797 -0.2488  0.0203 -0.2131
 2475TIP3    H128840   2.182   3.987   0.757  1.5992  2.1117  1.4267
 2475TIP3    H228841   2.067   4.083   0.734 -0.7193 -0.9980 -0.9915
 2476TIP3   OH228842   3.920   0.826   3.640  0.1320  0.4403 -0.3005
 2476TIP3    H128843   3.933   0.920   3.629 -0.8534  0.8312  1.5261
 2476TIP3    H228844   3.826   0.813   3.624 -0.0432  0.0326  0.9677
 2477TIP3   OH228845   1.455   1.328   3.696  0.6003  0.6465 -0.2495
 2477TIP3    H128846   1.455   1.274   3.775  1.2261 -0.3527 -0.9141
 2477TIP3    H228847   1.547   1.331   3.668  0.4640  1.4279 -0.6615
 2478TIP3   OH228848   3.946   6.248  15.639 -0.6636 -0.1874  0.1174
 2478TIP3    H128849   3.965   6.242  15.732 -0.0554  0.0722  0.0174
 2478TIP3    H228850   4.001   6.320  15.608 -0.5475 -0.5405 -0.5178
 2479TIP3   OH228851   5.380   2.402  12.554  0.2797  0.1367  0.1182
 2479TIP3    H128852   5.380   2.388  12.649  0.9582  0.2164  0.1351
 2479TIP3    H228853   5.323   2.477  12.541 -1.8514 -1.3817  0.2151
 2480TIP3   OH228854   5.420   1.248  16.855 -0.1307  0.0583  0.4916
 2480TIP3    H128855   5.499   1.195  16.846 -0.9726 -1.1607  0.1536
 2480TIP3    H228856   5.412   1.263  16.949  0.1633 -0.3387  0.5816
 2481TIP3   OH228857   3.115   1.913   1.832  0.3422 -0.2764 -0.1159
 2481TIP3    H128858   3.032   1.873   1.804  1.1425 -2.1528  0.0519
 2481TIP3    H228859   3.182   1.860   1.790  1.5020 -0.1464  1.5004
 2482TIP3   OH228860   0.236   0.265  11.203 -0.2410 -0.2032 -0.1867
 2482TIP3    H128861   0.152   0.311  11.200 -1.3418 -2.0464 -3.4329
 2482TIP3    H228862   0.300   0.329  11.171 -1.4569 -0.2348 -3.0136
 2483TIP3   OH228863   2.213   5.207   3.956  0.1958  0.1477  0.1145
 2483TIP3    H128864   2.220   5.112   3.964  1.0176 -0.0264 -1.9726
 2483TIP3    H228865   2.261   5.241   4.032  1.5042 -1.1207 -0.0968
 2484TIP3   OH228866   3.899   2.807  12.369  0.1605  0.0362 -0.4037
 2484TIP3    H128867   3.880   2.783  12.278  0.5082 -2.4901  0.1119
 2484TIP3    H228868   3.905   2.723  12.415 -1.3671  1.2679  2.2709
 2485TIP3   OH228869   3.898   4.241   4.829  0.0764  0.0454  0.4165
 2485TIP3    H128870   3.948   4.280   4.758  1.1413  0.6543  1.4666
 2485TIP3    H228871   3.884   4.150   4.802 -0.5327  0.5607 -1.0663
 2486TIP3   OH228872   4.784   1.508  12.589 -0.0338 -0.0280  0.3054
 2486TIP3    H128873   4.863   1.558  12.570 -0.2461  0.4135  0.5875
 2486TIP3    H228874   4.815   1.432  12.638  0.1813  0.2740  0.6357
 2487TIP3   OH228875   5.797   0.765  14.555  0.1774 -0.8016 -0.1341
 2487TIP3    H128876   5.876   0.819  14.564 -0.4528 -0.0761  1.7294
 2487TIP3    H228877   5.791   0.746  14.462  1.8584  0.1876 -0.4896
 2488TIP3   OH228878   3.866   3.216  13.244 -0.1204 -0.4281  0.6134
 2488TIP3    H128879   3.816   3.163  13.181 -0.5246  0.3966  0.2267
 2488TIP3    H228880   3.837   3.184  13.329 -0.7952 -0.4527  0.3883
 2489TIP3   OH228881   3.174   3.371   0.648  0.4285 -0.3597 -0.2175
 2489TIP3    H128882   3.153   3.398   0.559 -0.1115 -1.3443 -0.4094
 2489TIP3    H228883   3.265   3.398   0.661 -0.3610  2.4272  0.0055
 2490TIP3   OH228884   1.028   3.423  15.961 -0.6326 -0.3016 -0.1869
 2490TIP3    H128885   0.998   3.497  15.907  0.3754  0.6165  0.4692
 2490TIP3    H228886   0.955   3.406  16.020  0.0293  1.9757  1.4627
 2491TIP3   OH228887   4.833   0.294   5.620 -0.0372  0.4074  0.0094
 2491TIP3    H128888   4.887   0.294   5.700  0.1132  0.6603 -0.0897
 2491TIP3    H228889   4.895   0.313   5.550  0.0120 -0.8244 -0.2997
 2492TIP3   OH228890   4.867   5.970   3.815 -0.0687 -0.0112 -0.1784
 2492TIP3    H128891   4.873   6.007   3.903  0.0547 -1.0968  0.2770
 2492TIP3    H228892   4.805   5.898   3.823  1.4652 -1.4315 -0.5106
 2493TIP3   OH228893   1.789   0.022  11.434  0.0161 -0.0995 -0.5395
 2493TIP3    H128894   1.796  -0.070  11.408 -0.1886 -0.4284  0.5176
 2493TIP3    H228895   1.756   0.066  11.356 -1.8517 -1.2707 -0.4972
 2494TIP3   OH228896   6.721   0.020   4.024  0.1566 -0.1261  0.2469
 2494TIP3    H128897   6.641   0.030   3.973  0.6504 -0.1914 -0.5574
 2494TIP3    H228898   6.712   0.082   4.096 -0.0073  0.8921 -0.6286
 2495TIP3   OH228899   1.011   6.489   3.751 -0.2258 -0.5474 -0.2743
 2495TIP3    H128900   0.920   6.518   3.753 -0.2460 -0.4093 -2.0722
 2495TIP3    H228901   1.061   6.568   3.734  0.0815 -0.8844 -0.9550
 2496TIP3   OH228902   5.918   1.241  15.657  0.2795 -0.1951  0.0206
 2496TIP3    H128903   5.985   1.303  15.628  0.1547  0.0468  0.2424
 2496TIP3    H228904   5.836   1.277  15.623  0.4753 -1.6162 -2.1013
 2497TIP3   OH228905   2.050   4.629  11.683 -0.1639 -0.0051 -0.1854
 2497TIP3    H128906   2.091   4.639  11.769  1.6617  0.5915 -1.0526
 2497TIP3    H228907   2.122   4.645  11.621 -0.8174 -2.8631 -1.8343
 2498TIP3   OH228908   2.009   5.783  14.009 -0.5690 -0.1662  0.0912
 2498TIP3    H128909   1.951   5.832  14.067 -0.3833  0.7432 -0.4711
 2498TIP3    H228910   2.086   5.765  14.063 -0.0342  1.4156 -0.0881
 2499TIP3   OH228911   0.257   5.192  13.618  0.3453  0.0382  0.1264
 2499TIP3    H128912   0.303   5.148  13.546  0.5226 -0.2989  0.4374
 2499TIP3    H228913   0.324   5.246  13.660  0.4363 -0.3624  0.5084
 2500TIP3   OH228914   5.598   3.841   6.565  0.2287  0.2616  0.0690
 2500TIP3    H128915   5.521   3.804   6.609 -1.0509 -0.5442 -2.6665
 2500TIP3    H228916   5.570   3.929   6.538 -0.1549 -0.4096 -1.8341
 2501TIP3   OH228917   1.991   1.684  15.417  0.1407 -0.3939 -0.5405
 2501TIP3    H128918   2.061   1.717  15.361 -0.4903  0.3329 -0.9125
 2501TIP3    H228919   1.913   1.684  15.361 -0.0650 -1.6766 -0.2864
 2502TIP3   OH228920   1.373   0.790  15.198  0.2826  0.1414  0.2374
 2502TIP3    H128921   1.455   0.810  15.153  0.3357 -0.8946 -0.1441
 2502TIP3    H228922   1.385   0.701  15.232 -0.0329  0.6227  1.6903
 2503TIP3   OH228923   0.387   0.602   1.269 -0.2388  0.2838 -0.0110
 2503TIP3    H128924   0.429   0.632   1.350 -2.3161  1.4204  0.7293
 2503TIP3    H228925   0.321   0.539   1.299 -1.9976  1.7561 -0.6119
 2504TIP3   OH228926   3.616   5.553  15.920 -0.4874 -0.0367 -0.5177
 2504TIP3    H128927   3.607   5.571  16.014  0.9752  0.9645 -0.5458
 2504TIP3    H228928   3.600   5.459  15.913 -0.4263 -0.1663  0.7601
 2505TIP3   OH228929   6.278   4.287  14.030  0.1916 -0.2601  0.2668
 2505TIP3    H128930   6.199   4.238  14.053  0.2867  0.0273  1.2688
 2505TIP3    H228931   6.348   4.245  14.081  0.4179  0.3862  0.5068
 2506TIP3   OH228932   2.386   0.120  11.828 -0.6792 -0.2374  0.4561
 2506TIP3    H128933   2.453   0.056  11.856 -1.8983 -0.3577  3.5771
 2506TIP3    H228934   2.427   0.205  11.843 -0.2577 -0.2921 -0.3612
 2507TIP3   OH228935   4.758   0.739  16.262  0.0720 -0.0603  0.6576
 2507TIP3    H128936   4.764   0.653  16.303  1.6937 -0.9483 -1.2676
 2507TIP3    H228937   4.726   0.720  16.173  2.7270  0.9498 -0.6284
 2508TIP3   OH228938   5.394   0.535  11.739  0.0507  0.0292 -0.2755
 2508TIP3    H128939   5.457   0.486  11.686 -1.0751 -0.8749 -0.8147
 2508TIP3    H228940   5.417   0.515  11.829 -0.7804 -2.0573 -0.4860
 2509TIP3   OH228941   4.431   6.364   1.572 -0.1140 -0.3388 -0.0476
 2509TIP3    H128942   4.425   6.314   1.653 -1.3465 -1.0666 -0.5600
 2509TIP3    H228943   4.349   6.345   1.526  0.3384  0.4623 -1.2338
 2510TIP3   OH228944   6.013   0.343  10.712  0.7290  0.3264 -0.1003
 2510TIP3    H128945   6.100   0.369  10.683  1.7504 -1.1652  1.4181
 2510TIP3    H228946   6.026   0.311  10.801 -1.3890  0.0485  0.1715
 2511TIP3   OH228947   0.306   1.638   3.497  0.1799 -0.2899 -0.1735
 2511TIP3    H128948   0.340   1.725   3.479 -1.0601  0.7088  1.9136
 2511TIP3    H228949   0.372   1.598   3.554 -0.9339  0.8408  2.0841
 2512TIP3   OH228950   0.081   0.289  16.363 -0.6124 -0.1502 -0.5140
 2512TIP3    H128951   0.021   0.269  16.292 -0.8831  0.1510 -0.3722
 2512TIP3    H228952   0.044   0.244  16.439 -1.3025  0.9711 -0.1577
 2513TIP3   OH228953   4.721   4.082   0.804 -0.1616  0.4489  0.3683
 2513TIP3    H128954   4.746   3.991   0.816 -1.3197  0.1294  0.4033
 2513TIP3    H228955   4.787   4.117   0.743  1.0324 -0.0493  1.3323
 2514TIP3   OH228956   1.613   0.111  16.203  0.0182  0.2977 -0.0276
 2514TIP3    H128957   1.585   0.078  16.118 -1.6221  1.1190  0.1404
 2514TIP3    H228958   1.537   0.099  16.260  1.4404 -1.3039  1.6832
 2515TIP3   OH228959   6.025   2.437  12.787 -0.0955 -0.8254  0.0584
 2515TIP3    H128960   5.988   2.517  12.823  0.0259 -0.6344 -0.2414
 2515TIP3    H228961   5.993   2.367  12.845 -1.3283 -0.7269 -0.4761
 2516TIP3   OH228962   5.462   1.884  14.474  0.2724 -0.0393 -0.4420
 2516TIP3    H128963   5.488   1.871  14.383 -1.8632  0.4389 -1.1818
 2516TIP3    H228964   5.380   1.934  14.469 -0.2941 -0.6252  1.7113
 2517TIP3   OH228965   5.489   5.391  14.614  0.0040 -0.4092  0.2493
 2517TIP3    H128966   5.541   5.446  14.672 -3.0140  1.0974  1.7835
 2517TIP3    H228967   5.452   5.324  14.671  1.4805 -2.5173 -1.1187
 2518TIP3   OH228968   5.750   1.693  16.354  0.0206  0.4999  0.4654
 2518TIP3    H128969   5.839   1.695  16.319  0.1866  1.9698  0.9204
 2518TIP3    H228970   5.695   1.720  16.281  0.0296  0.4698  0.4468
 2519TIP3   OH228971   3.713   5.946  11.794  0.0483  0.6124 -0.2028
 2519TIP3    H128972   3.700   5.881  11.862  0.4218 -0.0948 -0.7944
 2519TIP3    H228973   3.627   5.952  11.750 -0.5299  1.9078  1.0202
 2520TIP3   OH228974   0.275   3.921  12.899  0.8043  0.0696  0.0077
 2520TIP3    H128975   0.207   3.979  12.865  1.4801  1.5373  1.0691
 2520TIP3    H228976   0.242   3.892  12.984 -0.1631 -2.3203 -1.0825
 2521TIP3   OH228977   0.806   4.311   4.126  0.1090 -0.1819  0.5333
 2521TIP3    H128978   0.748   4.280   4.057 -1.3073  3.2760 -0.0477
 2521TIP3    H228979   0.894   4.287   4.096 -0.6072 -0.3568 -1.5686
 2522TIP3   OH228980   4.763   6.254  14.332  0.4956  0.0440 -0.0799
 2522TIP3    H128981   4.727   6.215  14.253  0.6944 -0.2369 -0.0329
 2522TIP3    H228982   4.843   6.298  14.303  1.2606 -1.1198  0.1591
 2523TIP3   OH228983   0.312   2.042   5.515 -0.0882  0.0122 -0.1122
 2523TIP3    H128984   0.270   2.093   5.584  0.5831  1.4251 -0.6846
 2523TIP3    H228985   0.400   2.026   5.547  0.6401  1.7379 -1.0582
 2524TIP3   OH228986   5.255   6.340   1.114 -0.0666  0.3013  0.2895
 2524TIP3    H128987   5.198   6.299   1.179 -1.2926  0.7377 -0.4772
 2524TIP3    H228988   5.235   6.433   1.119 -2.1290  0.1447 -2.3990
 2525TIP3   OH228989   6.200   6.536   1.117 -0.4926  0.1842 -0.3849
 2525TIP3    H128990   6.193   6.620   1.162 -0.6242  0.8347 -1.5766
 2525TIP3    H228991   6.130   6.482   1.154 -0.6814  0.7479  0.0819
 2526TIP3   OH228992   4.807   6.481   3.802  0.5173  0.1556  0.3790
 2526TIP3    H128993   4.722   6.442   3.778 -0.3968  0.8624  2.2564
 2526TIP3    H228994   4.819   6.552   3.740  0.3379 -0.6887 -0.6582
 2527TIP3   OH228995   3.838   1.823   1.858  0.0888 -0.1300  0.6460
 2527TIP3    H128996   3.921   1.784   1.887 -0.3037 -2.0925 -0.7012
 2527TIP3    H228997   3.778   1.807   1.931 -0.4326 -3.4858 -0.3314
 2528TIP3   OH228998   5.445   3.506  16.167 -0.0476  0.3948 -0.5054
 2528TIP3    H128999   5.517   3.560  16.200 -2.0217  1.5757  2.2053
 2528TIP3    H229000   5.427   3.443  16.237  0.5913 -2.3247 -2.6011
 2529TIP3   OH229001   0.374   1.164  10.950  0.2011  0.2552 -0.0598
 2529TIP3    H129002   0.450   1.222  10.958  0.3167  0.2346 -0.8968
 2529TIP3    H229003   0.372   1.140  10.857  0.3866 -1.4139  0.3540
 2530TIP3   OH229004   0.430   5.204  15.398 -0.3437 -0.2521 -0.5840
 2530TIP3    H129005   0.369   5.258  15.447  0.2444  0.1128 -0.2377
 2530TIP3    H229006   0.448   5.129  15.455  0.2053  0.0840 -0.3101
 2531TIP3   OH229007   0.382   3.253  12.118 -0.4086  0.3973  0.3659
 2531TIP3    H129008   0.351   3.200  12.191 -0.0688  0.0579  0.2692
 2531TIP3    H229009   0.307   3.307  12.094 -0.3567  0.9098  1.3192
 2532TIP3   OH229010   1.796   4.033  11.511  0.2785  0.0969 -0.2330
 2532TIP3    H129011   1.789   4.076  11.597  1.5933 -0.2882  0.0884
 2532TIP3    H229012   1.747   3.952  11.522  0.3455  0.1003  0.1214
 2533TIP3   OH229013   5.214   6.106  14.936  0.3541  0.3576  0.2984
 2533TIP3    H129014   5.249   6.194  14.953  0.3648  0.9587 -2.4128
 2533TIP3    H229015   5.122   6.121  14.913  0.8470  0.0100 -2.2232
 2534TIP3   OH229016   3.004   1.059  13.403 -0.0965 -0.0017 -0.0956
 2534TIP3    H129017   2.935   1.094  13.347  0.3583  2.9758  1.0305
 2534TIP3    H229018   2.959   0.997  13.461 -1.1160 -0.7661 -1.6288
 2535TIP3   OH229019   3.947   5.469  17.138 -0.3082 -0.4057 -0.3443
 2535TIP3    H129020   3.867   5.521  17.146  0.8818  1.6946 -1.2388
 2535TIP3    H229021   3.989   5.477  17.223  0.2117  0.7407 -0.6941
 2536TIP3   OH229022   1.795   2.596   0.700 -0.1359 -0.5266 -0.3461
 2536TIP3    H129023   1.717   2.642   0.669 -0.9765 -2.5811 -1.4907
 2536TIP3    H229024   1.767   2.505   0.708  2.1894 -1.3762 -1.0165
 2537TIP3   OH229025   1.010   5.352   0.757 -0.0219  0.0299 -0.3863
 2537TIP3    H129026   1.095   5.331   0.718  1.1961  0.3324  1.9238
 2537TIP3    H229027   0.994   5.444   0.734  1.3381  0.6177  0.9000
 2538TIP3   OH229028   5.951   3.579  16.092 -0.2423 -0.0097  0.7738
 2538TIP3    H129029   6.006   3.505  16.117  0.9576  0.8816  0.8296
 2538TIP3    H229030   6.008   3.636  16.040 -0.8296  1.3894  1.6037
 2539TIP3   OH229031   5.703   1.941   3.579 -0.0650 -0.4339  0.2653
 2539TIP3    H129032   5.794   1.918   3.597 -0.4288 -1.3760  0.9870
 2539TIP3    H229033   5.680   2.003   3.648  0.3602  0.7171 -0.5973
 2540TIP3   OH229034   2.584   3.118   4.906  0.1783  0.0043 -0.6166
 2540TIP3    H129035   2.522   3.103   4.834 -1.8519  1.3142  0.7249
 2540TIP3    H229036   2.543   3.076   4.982  0.0592  2.2551  0.6620
 2541TIP3   OH229037   2.809   2.685   3.173  0.1477  0.1243 -0.5147
 2541TIP3    H129038   2.802   2.603   3.221  0.6559 -0.3679 -1.2770
 2541TIP3    H229039   2.844   2.747   3.237  0.0389 -0.3181 -0.0182
 2542TIP3   OH229040   1.821   4.727  14.628  0.2331 -0.4199 -0.3209
 2542TIP3    H129041   1.814   4.657  14.692  0.6802 -0.7719 -0.6498
 2542TIP3    H229042   1.884   4.694  14.564 -0.4153 -0.2040 -1.0908
 2543TIP3   OH229043   0.159   0.048   3.840  0.0601  0.0691 -0.0033
 2543TIP3    H129044   0.099   0.061   3.914  1.8506 -0.7826  1.6949
 2543TIP3    H229045   0.164   0.134   3.798 -0.0801  0.9125  1.6223
 2544TIP3   OH229046   0.944   5.512  10.908 -0.3136 -0.1013  0.1500
 2544TIP3    H129047   1.022   5.552  10.945 -0.3848 -0.6521  0.9102
 2544TIP3    H229048   0.871   5.548  10.958 -0.4654 -0.3516  0.1143
 2545TIP3   OH229049   3.408   0.034  12.678 -0.0996 -0.0524  0.4023
 2545TIP3    H129050   3.440   0.031  12.769 -0.9966  1.2793  0.7892
 2545TIP3    H229051   3.377  -0.054  12.661 -1.2688  0.0214  1.9205
 2546TIP3   OH229052   2.106   0.764   5.406 -0.8288 -0.0386 -0.3087
 2546TIP3    H129053   2.028   0.709   5.401  0.7177 -2.4313  0.6541
 2546TIP3    H229054   2.178   0.708   5.378  0.9940  1.1231  1.7045
 2547TIP3   OH229055   6.114   3.010  13.549  0.2364  0.5203 -0.0165
 2547TIP3    H129056   6.098   3.104  13.539 -1.5342  0.4270  1.4036
 2547TIP3    H229057   6.100   2.974  13.462  1.3704  1.6053 -0.6814
 2548TIP3   OH229058   5.853   5.418   5.302 -0.0341  0.4524 -1.3668
 2548TIP3    H129059   5.891   5.506   5.305  0.9688  0.0142 -0.2957
 2548TIP3    H229060   5.929   5.360   5.303 -0.6840 -0.4370 -2.0906
 2549TIP3   OH229061   1.093   2.944  10.441  0.3400 -0.1710 -0.0463
 2549TIP3    H129062   1.184   2.939  10.471  0.2798  2.2565  0.8189
 2549TIP3    H229063   1.050   2.998  10.507 -1.3373  0.0541 -1.2671
 2550TIP3   OH229064   6.367   1.909  12.390 -0.0109 -0.0459  0.6197
 2550TIP3    H129065   6.325   1.929  12.306 -1.5446 -0.2453  1.3102
 2550TIP3    H229066   6.461   1.920  12.373 -0.2912 -0.0849 -1.1124
 2551TIP3   OH229067   3.580   0.564   5.343  0.1556  0.1801  0.0732
 2551TIP3    H129068   3.634   0.607   5.409 -0.6569  0.1539  0.7756
 2551TIP3    H229069   3.591   0.470   5.361  0.7596  0.1334 -0.5088
 2552TIP3   OH229070   2.263   6.374   2.019 -0.3404  0.5617 -0.2025
 2552TIP3    H129071   2.212   6.454   2.006 -0.6659  0.5433  0.8910
 2552TIP3    H229072   2.201   6.313   2.060  0.1046 -0.0134 -0.3822
 2553TIP3   OH229073   4.648   3.943   6.027 -0.0345  0.1181  0.3095
 2553TIP3    H129074   4.674   3.949   6.119  0.2594  0.7432  0.1912
 2553TIP3    H229075   4.642   4.034   5.998  0.7540 -0.0879 -0.5418
 2554TIP3   OH229076   0.074   1.041   5.692  0.0452  0.3829 -0.0329
 2554TIP3    H129077   0.098   1.036   5.599 -0.8056 -0.5506 -0.2135
 2554TIP3    H229078   0.080   0.950   5.723 -2.3026  0.2397  0.1412
 2555TIP3   OH229079   2.318   2.813  12.055 -0.0431  0.1557  0.3066
 2555TIP3    H129080   2.381   2.777  12.116  0.6300  0.6373 -0.0886
 2555TIP3    H229081   2.261   2.739  12.032  1.7336 -0.8579 -1.0421
 2556TIP3   OH229082   5.802   5.605  15.762  0.0872  0.0245 -0.2351
 2556TIP3    H129083   5.826   5.542  15.830  0.7674 -0.5516 -0.9816
 2556TIP3    H229084   5.775   5.550  15.688 -0.6852  0.6394 -0.4238
 2557TIP3   OH229085   5.083   5.743  11.357  0.7328 -0.4959  0.2849
 2557TIP3    H129086   5.060   5.774  11.269 -1.0213 -0.8412  0.5840
 2557TIP3    H229087   5.170   5.779  11.373  0.6187  0.5088 -1.1438
 2558TIP3   OH229088   5.088   1.660   5.339  0.0014  0.4266  0.1083
 2558TIP3    H129089   5.106   1.572   5.373 -0.7153 -0.0886 -0.7936
 2558TIP3    H229090   5.131   1.719   5.401 -0.6709 -0.4984  1.5140
 2559TIP3   OH229091   0.268   3.997  11.644 -0.0608 -0.3023 -0.8539
 2559TIP3    H129092   0.274   3.963  11.555  1.8403  0.2211 -0.9623
 2559TIP3    H229093   0.208   4.071  11.637  1.9363  1.2797 -2.2416
 2560TIP3   OH229094   5.342   1.389   2.641  0.5670 -0.0765  0.5031
 2560TIP3    H129095   5.389   1.340   2.708  0.8076 -0.5741 -0.0228
 2560TIP3    H229096   5.347   1.480   2.670  2.4802 -0.0160  0.0912
 2561TIP3   OH229097   1.574   1.987   6.030  0.4968 -0.4797 -0.0359
 2561TIP3    H129098   1.530   1.976   5.946  0.5767  0.4453 -0.2119
 2561TIP3    H229099   1.561   1.904   6.075 -1.2134 -0.3270 -0.1773
 2562TIP3   OH229100   5.010   6.032  13.528  0.1545  0.3533 -0.5060
 2562TIP3    H129101   4.929   6.054  13.574  0.2299  0.3634 -0.3769
 2562TIP3    H229102   5.052   6.116  13.513  1.0407  0.2332  1.0821
 2563TIP3   OH229103   1.372   4.186  11.009  0.0720 -0.1242 -1.1398
 2563TIP3    H129104   1.306   4.239  10.965 -0.6135  0.5795  0.6474
 2563TIP3    H229105   1.437   4.249  11.040  1.0766 -0.7105 -1.9847
 2564TIP3   OH229106   0.920   3.327  15.643  0.0538  0.2302 -0.3024
 2564TIP3    H129107   0.961   3.414  15.637 -0.3002  0.4217 -0.0018
 2564TIP3    H229108   0.826   3.345  15.643 -0.0215 -0.1605 -0.3403
 2565TIP3   OH229109   3.610   3.947  11.889  0.5981 -0.1040 -0.4820
 2565TIP3    H129110   3.633   3.966  11.980 -1.2214 -1.9275  0.4665
 2565TIP3    H229111   3.570   4.027  11.857 -1.0425 -0.1494  1.2297
 2566TIP3   OH229112   0.428   1.673  17.175  0.5966 -0.2760  0.2624
 2566TIP3    H129113   0.470   1.736  17.232 -0.9275  0.0591  1.0780
 2566TIP3    H229114   0.358   1.723  17.131 -1.0462 -1.4763  1.3821
 2567TIP3   OH229115   0.809   2.725   0.078 -0.4039  0.3682 -0.2490
 2567TIP3    H129116   0.904   2.729   0.092 -0.2391 -2.7840  0.3018
 2567TIP3    H229117   0.775   2.800   0.127  1.7041  0.8698  0.5823
 2568TIP3   OH229118   0.435   3.964   4.180  0.2871 -0.5356  0.1685
 2568TIP3    H129119   0.342   3.959   4.155  0.5374  1.9348 -1.6713
 2568TIP3    H229120   0.481   3.975   4.097  1.8808  1.5455  1.2384
 2569TIP3   OH229121   0.815   3.293   3.942 -0.0465  0.0992 -0.3741
 2569TIP3    H129122   0.731   3.340   3.944 -0.3788 -0.4661  1.5012
 2569TIP3    H229123   0.790   3.200   3.939  0.4195 -0.1472  1.8102
 2570TIP3   OH229124   4.214   2.813  16.658  0.0895 -0.5490 -0.1717
 2570TIP3    H129125   4.252   2.781  16.576 -2.2865 -0.6024 -1.3094
 2570TIP3    H229126   4.213   2.736  16.715 -0.9479 -1.2857 -1.1400
 2571TIP3   OH229127   4.067   6.308   0.152 -0.5384  0.1124  0.4086
 2571TIP3    H129128   4.061   6.387   0.206  1.1743  0.3243  0.3271
 2571TIP3    H229129   3.976   6.278   0.144 -1.3136  2.4605 -0.1688
 2572TIP3   OH229130   1.587   4.856  16.515 -1.1181  0.0320 -0.6805
 2572TIP3    H129131   1.521   4.801  16.471 -2.1395  1.9212 -1.6291
 2572TIP3    H229132   1.536   4.922  16.562  0.0619  1.7318 -1.6801
 2573TIP3   OH229133   5.355   5.128  15.381 -0.2219 -0.0340  0.2659
 2573TIP3    H129134   5.349   5.032  15.373 -0.2906 -0.0396  0.3885
 2573TIP3    H229135   5.449   5.144  15.392 -0.3514 -0.2150  1.8925
 2574TIP3   OH229136   3.490   0.999   2.239  0.0675 -0.2301  0.2495
 2574TIP3    H129137   3.580   0.994   2.270  0.6020 -2.7970 -1.4006
 2574TIP3    H229138   3.445   0.929   2.285 -1.2760  1.3383  1.4279
 2575TIP3   OH229139   1.695   5.454  14.010 -0.0220 -0.5831  0.3596
 2575TIP3    H129140   1.735   5.516  13.950 -0.9264 -1.9501 -1.7879
 2575TIP3    H229141   1.699   5.497  14.096 -2.1881  3.2634 -1.2240
 2576TIP3   OH229142   0.296   4.219  14.968  0.3323  0.5298  0.6702
 2576TIP3    H129143   0.356   4.204  14.896  0.7691  1.4113  0.8324
 2576TIP3    H229144   0.226   4.273  14.931 -0.0262  0.0391  0.6336
 2577TIP3   OH229145   6.636   3.685  12.692  0.2042 -0.0421  0.2627
 2577TIP3    H129146   6.723   3.725  12.693 -0.6877  2.1328 -1.5438
 2577TIP3    H229147   6.635   3.629  12.770  2.7856  0.7448  0.9660
 2578TIP3   OH229148   0.771   4.245   0.837  0.0050 -0.2346  0.0589
 2578TIP3    H129149   0.766   4.310   0.768 -0.4000 -0.2872  0.0354
 2578TIP3    H229150   0.743   4.164   0.796 -1.6534  0.0132  0.6279
 2579TIP3   OH229151   5.205   3.783  12.231  0.3714 -0.3403 -0.2403
 2579TIP3    H129152   5.141   3.712  12.222  1.4877 -1.2338 -1.5445
 2579TIP3    H229153   5.152   3.862  12.237 -0.8732 -1.0703 -1.0507
 2580TIP3   OH229154   2.604   1.173   3.017 -0.3868  0.0274 -0.1937
 2580TIP3    H129155   2.510   1.172   3.002 -0.4299  1.3669 -0.0720
 2580TIP3    H229156   2.635   1.089   2.980 -1.5234 -0.1443 -0.7948
 2581TIP3   OH229157   2.131   1.578   5.949 -0.2073 -0.4294 -0.0715
 2581TIP3    H129158   2.144   1.624   6.032  0.8403 -1.4105  0.3404
 2581TIP3    H229159   2.037   1.563   5.944 -0.6246  1.8878 -0.3215
 2582TIP3   OH229160   2.634   6.250   2.164  0.7298 -0.1430  0.5805
 2582TIP3    H129161   2.567   6.182   2.162  0.6360 -0.0692 -1.5094
 2582TIP3    H229162   2.717   6.202   2.171  0.5518 -0.2488  2.7635
 2583TIP3   OH229163   1.374   4.667  12.678  0.5435  0.1384  0.1602
 2583TIP3    H129164   1.356   4.745  12.625  2.1682  0.4456  0.0289
 2583TIP3    H229165   1.373   4.700  12.768 -2.3560 -0.4080  0.4378
 2584TIP3   OH229166   5.232   0.780  11.668 -0.0146 -0.5266 -0.4786
 2584TIP3    H129167   5.270   0.853  11.620 -0.9506 -0.1581 -0.6738
 2584TIP3    H229168   5.300   0.712  11.666  0.6442  0.1268 -0.7726
 2585TIP3   OH229169   0.254   2.092   5.764  0.3699  0.1424 -0.1116
 2585TIP3    H129170   0.225   2.139   5.842 -1.5786  0.3260 -0.8735
 2585TIP3    H229171   0.319   2.029   5.795 -0.9894 -0.3889  1.7940
 2586TIP3   OH229172   5.325   5.539  15.794  0.8400 -0.2767 -0.3796
 2586TIP3    H129173   5.236   5.568  15.775  0.4444 -1.1589  0.0666
 2586TIP3    H229174   5.314   5.464  15.853  1.8396 -1.1356 -1.2484
 2587TIP3   OH229175   3.735   4.612  16.341  0.0600  0.8483 -0.0875
 2587TIP3    H129176   3.771   4.620  16.429 -0.5441  1.1451  0.1433
 2587TIP3    H229177   3.699   4.524  16.337 -0.0259  0.8776  0.0157
 2588TIP3   OH229178   5.772   3.806  15.732  0.5045  0.0352  0.4067
 2588TIP3    H129179   5.723   3.731  15.698  1.4288 -0.0036 -0.9111
 2588TIP3    H229180   5.740   3.817  15.822 -1.9143  0.0265 -0.3668
 2589TIP3   OH229181   4.139   2.383   4.170  0.1221 -0.3934  0.4058
 2589TIP3    H129182   4.217   2.418   4.212 -0.1779 -0.0242  0.6643
 2589TIP3    H229183   4.154   2.288   4.167  0.3204 -0.3851  0.9954
 2590TIP3   OH229184   1.546   1.807   4.705 -0.1860 -0.0456  0.1002
 2590TIP3    H129185   1.563   1.792   4.612 -0.7180 -0.0864  0.0054
 2590TIP3    H229186   1.461   1.852   4.707 -0.1045  0.0922  0.5566
 2591TIP3   OH229187   6.165   6.304  13.236  0.0380  0.0525  0.1864
 2591TIP3    H129188   6.087   6.349  13.269 -0.8717 -0.6021 -0.9867
 2591TIP3    H229189   6.182   6.344  13.151  0.4151 -0.4412  0.0215
 2592TIP3   OH229190   1.970   0.343   3.539 -0.0332 -0.6248 -0.1573
 2592TIP3    H129191   1.945   0.256   3.570  0.7518 -0.4360  1.1064
 2592TIP3    H229192   1.940   0.403   3.608 -0.3266  0.0857 -0.8822
 2593TIP3   OH229193   4.909   4.968  14.653 -0.4308  0.3136  0.1655
 2593TIP3    H129194   4.894   4.911  14.578  2.9569 -1.6379  0.7501
 2593TIP3    H229195   4.910   5.056  14.616 -0.4882 -0.4481 -1.7710
 2594TIP3   OH229196   3.098   5.473   1.162  0.3340  0.0546  0.4194
 2594TIP3    H129197   3.154   5.395   1.165  1.2878  0.7062 -0.0065
 2594TIP3    H229198   3.060   5.477   1.250  0.0026 -1.0748  0.3460
 2595TIP3   OH229199   1.383   5.252  16.817  0.1544  0.1263 -0.2984
 2595TIP3    H129200   1.355   5.234  16.907  1.4542 -0.5957 -0.0298
 2595TIP3    H229201   1.457   5.312  16.826  0.3744 -0.0522 -0.8923
 2596TIP3   OH229202   2.194   3.664  15.920 -0.4026  0.4336 -0.2221
 2596TIP3    H129203   2.148   3.658  15.837 -0.3476  0.1799 -0.2332
 2596TIP3    H229204   2.207   3.758  15.934  0.4291  0.4414 -0.9596
 2597TIP3   OH229205   3.321   6.000   5.417  0.3003 -0.2551  0.3643
 2597TIP3    H129206   3.308   5.946   5.339  1.2894 -1.2490  0.8662
 2597TIP3    H229207   3.289   6.086   5.391 -2.1563 -1.2355 -0.1839
 2598TIP3   OH229208   1.083   6.079  17.345  0.3267  0.2162  0.4966
 2598TIP3    H129209   0.999   6.113  17.375  0.2100  0.5222 -0.1653
 2598TIP3    H229210   1.113   6.023  17.417 -0.5320 -0.0522  0.6634
 2599TIP3   OH229211   5.749   1.847  14.454  0.5096  0.3143  0.7553
 2599TIP3    H129212   5.769   1.761  14.418 -0.5272  0.3008  0.1842
 2599TIP3    H229213   5.667   1.834  14.501  0.1615  1.0714  0.3656
 2600TIP3   OH229214   0.769   2.013   6.277 -0.6511 -0.8273 -0.3143
 2600TIP3    H129215   0.826   2.063   6.219  0.7216 -2.9369 -0.9083
 2600TIP3    H229216   0.823   1.995   6.354 -1.0843 -1.4130 -0.1332
 2601TIP3   OH229217   1.845   5.939   0.947  0.5722 -0.5023  0.8771
 2601TIP3    H129218   1.896   5.860   0.927  1.5456  0.5758 -1.1504
 2601TIP3    H229219   1.910   6.004   0.973 -0.0430  0.1790  0.7311
 2602TIP3   OH229220   5.999   4.588  17.218  0.1434 -0.6782  0.3585
 2602TIP3    H129221   6.091   4.582  17.242  0.4776  1.8284 -0.1080
 2602TIP3    H229222   5.963   4.658  17.272 -1.3741 -1.1974  0.0979
 2603TIP3   OH229223   3.430   0.091  10.233 -0.0314 -0.2890 -0.4563
 2603TIP3    H129224   3.336   0.108  10.237  0.3679  4.2352 -3.1145
 2603TIP3    H229225   3.465   0.139  10.308  0.2896  0.4888 -1.0887
 2604TIP3   OH229226   4.764   1.465  14.349 -0.0931 -0.3354 -0.5619
 2604TIP3    H129227   4.682   1.504  14.379  0.2244  1.1979 -1.5381
 2604TIP3    H229228   4.825   1.539  14.345  2.5374 -1.9676  3.7449
 2605TIP3   OH229229   1.041   6.231  11.927 -0.6806 -0.1273  0.0058
 2605TIP3    H129230   1.072   6.150  11.886 -1.3732  0.1881 -1.1866
 2605TIP3    H229231   1.092   6.300  11.885 -0.3418  0.0968  0.7669
 2606TIP3   OH229232   2.076   2.893  13.493 -0.3357  0.4339  0.8076
 2606TIP3    H129233   2.168   2.918  13.494 -0.3824  0.5985  1.9057
 2606TIP3    H229234   2.030   2.969  13.527 -0.8518  0.2458  0.5428
 2607TIP3   OH229235   4.672   3.319  17.086  0.6167  0.3081 -0.0153
 2607TIP3    H129236   4.583   3.330  17.119  1.2459  0.1179  1.8502
 2607TIP3    H229237   4.661   3.287  16.997 -1.1772  0.0541  0.2683
 2608TIP3   OH229238   0.515   6.661   1.154  0.1284  0.0511 -0.0010
 2608TIP3    H129239   0.573   6.585   1.144 -1.0996 -1.1273  1.2974
 2608TIP3    H229240   0.487   6.657   1.245 -0.7410  1.5126 -0.1803
 2609TIP3   OH229241   3.355   0.985  16.466  0.3243 -0.3767 -0.2388
 2609TIP3    H129242   3.295   0.947  16.402 -0.1626 -0.1079  0.0583
 2609TIP3    H229243   3.313   1.067  16.493 -0.2449 -1.2187  1.5793
 2610TIP3   OH229244   0.107   1.680  11.117 -0.8391 -0.0044  0.1859
 2610TIP3    H129245   0.063   1.685  11.032  1.2574 -1.2275 -1.0634
 2610TIP3    H229246   0.151   1.764  11.127 -1.6346  0.3943  0.4008
 2611TIP3   OH229247   2.341   0.550   5.607 -0.2746 -0.0563  0.3120
 2611TIP3    H129248   2.269   0.489   5.593 -0.4697  0.0376  0.8704
 2611TIP3    H229249   2.400   0.505   5.668 -0.8252  0.6181  1.3701
 2612TIP3   OH229250   4.312   4.257  15.191 -0.2594 -0.3470  0.4382
 2612TIP3    H129251   4.346   4.346  15.183 -1.0914 -0.2170 -3.1213
 2612TIP3    H229252   4.391   4.202  15.200  0.2835  0.6168  2.0030
 2613TIP3   OH229253   2.340   5.511   3.826  0.5015  0.1074  0.0472
 2613TIP3    H129254   2.358   5.587   3.881  1.8503  0.1451 -0.4096
 2613TIP3    H229255   2.246   5.496   3.836  0.6569  0.2397  2.1682
 2614TIP3   OH229256   0.690   5.713  17.179 -0.4684 -0.0335  0.6224
 2614TIP3    H129257   0.765   5.653  17.173 -0.3124  0.0776  1.3654
 2614TIP3    H229258   0.684   5.751  17.092  0.2425 -0.1711  0.5007
 2615TIP3   OH229259   6.507   1.199   1.020  0.3764 -0.0933 -0.3192
 2615TIP3    H129260   6.412   1.212   1.020  0.3412 -0.3325 -1.0653
 2615TIP3    H229261   6.542   1.286   1.039 -0.0116 -0.3034  1.5857
 2616TIP3   OH229262   6.482   1.838  11.076  0.0670  0.2131  0.1933
 2616TIP3    H129263   6.448   1.888  11.151  1.9754  0.4263  0.9698
 2616TIP3    H229264   6.527   1.763  11.115 -0.6625 -0.8007 -0.8624
 2617TIP3   OH229265   6.721   5.482   5.659 -0.7543  0.1551  0.2395
 2617TIP3    H129266   6.787   5.537   5.617  0.5527 -0.3732  1.5406
 2617TIP3    H229267   6.639   5.506   5.616  0.2049  1.1418 -1.1120
 2618TIP3   OH229268   1.033   4.913   3.593 -0.5315 -0.1642 -0.0602
 2618TIP3    H129269   1.080   4.875   3.668 -0.2367  1.3254  0.5507
 2618TIP3    H229270   0.977   4.980   3.632  2.2040  3.1874 -1.3746
 2619TIP3   OH229271   3.657   5.517  12.093  0.1146  0.0478 -0.1048
 2619TIP3    H129272   3.578   5.469  12.069 -0.0486  0.7964 -1.0980
 2619TIP3    H229273   3.640   5.547  12.182 -0.7099  0.1704 -0.2949
 2620TIP3   OH229274   3.152   6.028   0.298  0.1193 -0.3758  0.0148
 2620TIP3    H129275   3.221   6.012   0.363  0.3255 -1.3531 -0.4247
 2620TIP3    H229276   3.179   5.978   0.221 -0.2301  0.6013 -0.7626
 2621TIP3   OH229277   4.313   3.698  14.541 -0.3306  0.7318 -0.1333
 2621TIP3    H129278   4.282   3.769  14.485 -1.4315 -0.0297 -0.5315
 2621TIP3    H229279   4.296   3.729  14.630 -1.0294  0.8821 -0.3106
 2622TIP3   OH229280   2.048   6.155  15.102  0.5039  0.2255 -0.1123
 2622TIP3    H129281   2.046   6.250  15.107 -0.3155  0.2736 -0.9256
 2622TIP3    H229282   2.123   6.135  15.046  0.8760  0.3702  0.3298
 2623TIP3   OH229283   2.976   6.671   3.578  0.2521 -0.1004  0.0463
 2623TIP3    H129284   3.034   6.604   3.614  0.5407  0.0064 -0.2097
 2623TIP3    H229285   2.980   6.742   3.642  1.8481  0.6597 -0.8162
 2624TIP3   OH229286   1.363   0.875  16.164 -0.0187 -0.5128 -0.3521
 2624TIP3    H129287   1.359   0.934  16.239  3.7729  2.2258 -1.9996
 2624TIP3    H229288   1.425   0.807  16.191  0.0106 -0.5222 -0.4451
 2625TIP3   OH229289   5.438   0.512   2.086  0.3174  0.2524  0.1441
 2625TIP3    H129290   5.482   0.448   2.031 -0.8794 -0.5253  0.0535
 2625TIP3    H229291   5.347   0.511   2.057  0.3089  2.2103 -0.0461
 2626TIP3   OH229292   5.223   3.805   4.802  1.3994  0.3566  0.0236
 2626TIP3    H129293   5.270   3.875   4.848  3.0306 -0.0926 -0.8857
 2626TIP3    H229294   5.138   3.802   4.845  0.8883  3.5584 -0.5368
 2627TIP3   OH229295   0.018   3.354  14.646  0.7278  0.7849 -0.0324
 2627TIP3    H129296   0.040   3.434  14.598  1.3008 -0.6229 -2.3012
 2627TIP3    H229297   0.085   3.347  14.714  0.5463  2.3053  0.3257
 2628TIP3   OH229298   4.814   5.950  16.793  0.0152  0.0749  0.5326
 2628TIP3    H129299   4.895   6.001  16.804 -0.4246  0.3347  3.0153
 2628TIP3    H229300   4.831   5.868  16.839 -1.6993  0.8254  2.6192
 2629TIP3   OH229301   0.588   5.404   0.482  0.3399  0.0908  0.0039
 2629TIP3    H129302   0.650   5.472   0.454 -0.6332  0.3229 -1.7819
 2629TIP3    H229303   0.579   5.347   0.405 -0.7207 -0.6270  0.6320
 2630TIP3   OH229304   3.748   1.580  11.626 -0.1600 -0.8055  0.3546
 2630TIP3    H129305   3.666   1.619  11.656  0.7770  1.7921 -0.1911
 2630TIP3    H229306   3.726   1.538  11.543 -1.2523 -1.6119  1.0308
 2631TIP3   OH229307   4.267   5.010  13.438  0.1693 -0.0328 -0.1170
 2631TIP3    H129308   4.218   5.082  13.476 -1.7152 -1.4350  0.2028
 2631TIP3    H229309   4.309   4.968  13.512  0.1161 -0.1219 -0.1378
 2632TIP3   OH229310   4.922   0.163  13.946  0.9325 -0.7523  0.2440
 2632TIP3    H129311   4.992   0.123  13.895  2.0357  0.7332  0.5250
 2632TIP3    H229312   4.925   0.118  14.031  1.5682 -0.6765  0.2640
 2633TIP3   OH229313   2.276   1.455  17.024 -0.1711 -0.3021 -0.5325
 2633TIP3    H129314   2.189   1.461  16.985  0.9057  3.3249 -2.8406
 2633TIP3    H229315   2.329   1.518  16.975  3.4980 -1.4535  1.5574
 2634TIP3   OH229316   4.352   4.062   3.008  0.0274  0.3924  0.3410
 2634TIP3    H129317   4.366   4.116   2.931 -0.8499  1.1593  0.6994
 2634TIP3    H229318   4.397   4.108   3.079  2.0971 -1.0503  0.0670
 2635TIP3   OH229319   2.007   0.836  15.366 -0.1826  0.0633 -0.4738
 2635TIP3    H129320   2.093   0.879  15.364 -0.9130  1.5727 -1.4529
 2635TIP3    H229321   1.955   0.889  15.425 -0.2350 -1.3468  0.7937
 2636TIP3   OH229322   3.034   4.065   6.194  0.2029  0.0818 -0.1988
 2636TIP3    H129323   3.022   4.074   6.289 -1.4050  1.0856 -0.4641
 2636TIP3    H229324   3.098   3.994   6.185  0.0364 -0.3612  1.6215
 2637TIP3   OH229325   5.104   6.729  13.064 -0.4442 -0.0362  0.0272
 2637TIP3    H129326   5.180   6.676  13.091  1.3881  1.4664 -1.7808
 2637TIP3    H229327   5.102   6.801  13.126 -1.0770 -0.6059  0.6905
 2638TIP3   OH229328   3.374   6.468  13.804  0.6364  0.3440  0.3180
 2638TIP3    H129329   3.377   6.508  13.891  1.4588 -0.6261  0.7447
 2638TIP3    H229330   3.323   6.530  13.752 -0.2468  0.7328  1.5884
 2639TIP3   OH229331   2.811   6.498   4.329 -0.2512 -0.4103  0.2791
 2639TIP3    H129332   2.751   6.546   4.386 -1.4943 -1.8394  0.2360
 2639TIP3    H229333   2.894   6.497   4.376 -0.2395  1.5020  0.3961
 2640TIP3   OH229334   4.254   2.457  15.265  1.3261  0.3261  0.3404
 2640TIP3    H129335   4.260   2.549  15.240  0.4690  0.0703 -0.9348
 2640TIP3    H229336   4.316   2.412  15.207  0.9099 -0.0301  0.1636
 2641TIP3   OH229337   6.420   0.888  13.268  0.8353 -0.4089 -0.4194
 2641TIP3    H129338   6.487   0.820  13.267 -0.4714 -1.7626  0.2057
 2641TIP3    H229339   6.363   0.866  13.342 -0.5423  0.4501 -1.1675
 2642TIP3   OH229340   5.555   6.311  10.158 -0.2874  0.2207  0.3614
 2642TIP3    H129341   5.494   6.351  10.096 -1.8522 -0.4445  1.4061
 2642TIP3    H229342   5.585   6.383  10.213 -0.3278  0.5250 -0.0169
 2643TIP3   OH229343   6.007   1.696  17.001  0.7168  0.3893  0.1902
 2643TIP3    H129344   5.994   1.661  17.089  0.6449  1.7593  0.7559
 2643TIP3    H229345   5.929   1.669  16.953  1.5595 -1.8670  0.0117
 2644TIP3   OH229346   0.678   5.673   4.601 -0.1845 -0.4529 -0.4482
 2644TIP3    H129347   0.686   5.583   4.570  1.3507  0.0705 -1.7110
 2644TIP3    H229348   0.668   5.665   4.696  2.0729 -1.9371 -0.2368
 2645TIP3   OH229349   3.389   3.351   1.984  0.7553  0.8086  0.2388
 2645TIP3    H129350   3.464   3.405   1.956 -0.0076  1.3814 -0.7663
 2645TIP3    H229351   3.353   3.316   1.902  1.8873 -2.1962  0.8962
 2646TIP3   OH229352   3.722   4.992   1.653  0.4332  0.3090 -0.0995
 2646TIP3    H129353   3.798   5.034   1.694  0.1913 -1.9077  3.0338
 2646TIP3    H229354   3.649   5.013   1.711 -0.9106  0.5176 -1.7958
 2647TIP3   OH229355   4.557   1.968   5.755 -0.2980  0.1705 -0.2225
 2647TIP3    H129356   4.599   2.005   5.833 -0.2090 -0.0919 -0.1451
 2647TIP3    H229357   4.473   2.013   5.750 -0.5579 -0.2374  0.3659
 2648TIP3   OH229358   0.146   1.336   0.476  0.5174  0.5527  0.0502
 2648TIP3    H129359   0.158   1.267   0.410  0.0588 -0.1463  0.6858
 2648TIP3    H229360   0.054   1.327   0.503  1.3100 -0.8214  2.5914
 2649TIP3   OH229361   2.194   4.592  12.867 -0.1610 -0.2525  0.1173
 2649TIP3    H129362   2.188   4.645  12.787  1.6436 -0.3241 -0.1119
 2649TIP3    H229363   2.189   4.656  12.938 -1.3780 -0.1498 -0.0317
 2650TIP3   OH229364   1.703   6.189   0.464 -0.0325  0.0857  0.3248
 2650TIP3    H129365   1.730   6.181   0.373 -3.8317 -0.1252 -0.9548
 2650TIP3    H229366   1.748   6.267   0.496  2.9156 -0.9333 -1.0148
 2651TIP3   OH229367   2.566   1.947  15.346 -0.3065 -0.3878  0.3878
 2651TIP3    H129368   2.587   1.980  15.433  1.4762 -0.6744  0.0942
 2651TIP3    H229369   2.621   1.869  15.335  0.4375  0.3265 -1.4405
 2652TIP3   OH229370   5.272   2.310   3.043  0.1104  0.5262  0.0682
 2652TIP3    H129371   5.243   2.227   3.081 -0.3675  0.2015 -0.9656
 2652TIP3    H229372   5.347   2.336   3.097 -0.8147  0.3387  1.5154
 2653TIP3   OH229373   0.515   3.097  14.775  0.4419  0.1653  0.5120
 2653TIP3    H129374   0.422   3.084  14.790  0.2293 -0.2976 -1.0158
 2653TIP3    H229375   0.520   3.136  14.688  1.6940 -0.1948  0.3978
 2654TIP3   OH229376   2.208   6.567  14.640  0.1234  0.5172  0.1990
 2654TIP3    H129377   2.190   6.584  14.548 -1.8449  0.3309  0.4899
 2654TIP3    H229378   2.143   6.621  14.687  1.1904  0.7406  1.4798
 2655TIP3   OH229379   1.890   2.270   4.173 -0.1257 -0.0511  0.2297
 2655TIP3    H129380   1.935   2.353   4.159  1.1153 -0.6370  0.5689
 2655TIP3    H229381   1.957   2.204   4.157 -1.6180 -1.0916 -2.1502
 2656TIP3   OH229382   1.231   0.693   1.969 -0.0668 -0.3232 -0.1664
 2656TIP3    H129383   1.233   0.788   1.969  0.0908 -0.3145 -1.2814
 2656TIP3    H229384   1.319   0.667   1.940  0.1333 -0.8270  0.8505
 2657TIP3   OH229385   4.809   4.295   2.072 -0.4065  0.3348  0.1155
 2657TIP3    H129386   4.861   4.320   1.996 -1.0114 -0.7162 -0.6515
 2657TIP3    H229387   4.719   4.295   2.041 -0.5425 -1.5530  0.4058
 2658TIP3   OH229388   2.307   3.583   3.870  0.0278 -0.3037  0.4946
 2658TIP3    H129389   2.345   3.658   3.916  1.1209 -0.7734  0.3869
 2658TIP3    H229390   2.348   3.584   3.784 -2.3081  0.8122 -0.7029
 2659TIP3   OH229391   2.876   1.293  11.407  0.4939  0.3872  0.2311
 2659TIP3    H129392   2.813   1.315  11.339  0.9274 -0.2021 -0.3705
 2659TIP3    H229393   2.942   1.240  11.363  1.1510  0.5826  0.9595
 2660TIP3   OH229394   6.260   0.330   5.155 -0.3961 -0.3107 -0.3698
 2660TIP3    H129395   6.285   0.250   5.109 -0.1996  0.6590 -2.0110
 2660TIP3    H229396   6.225   0.387   5.087  0.6286  1.4794  0.5328
 2661TIP3   OH229397   3.065   2.922   1.474  0.6938  0.1611  0.3476
 2661TIP3    H129398   3.142   2.865   1.478 -0.7477 -2.0224 -0.8341
 2661TIP3    H229399   2.991   2.862   1.461 -0.9815  2.2986 -0.6901
 2662TIP3   OH229400   0.337   3.476   1.274 -0.1597 -0.5939 -0.0612
 2662TIP3    H129401   0.248   3.441   1.279 -0.9122  0.9542 -1.5879
 2662TIP3    H229402   0.376   3.454   1.359 -2.5893  0.2263  1.3773
 2663TIP3   OH229403   0.790   5.581   0.393 -0.1451 -0.0634 -0.2975
 2663TIP3    H129404   0.744   5.664   0.401 -0.2859 -0.1066 -0.6796
 2663TIP3    H229405   0.883   5.605   0.388 -0.1797  0.0632 -0.3142
 2664TIP3   OH229406   2.576   4.758   5.298  0.2077 -1.1120  0.0469
 2664TIP3    H129407   2.484   4.765   5.275 -0.0720 -0.5744  1.2438
 2664TIP3    H229408   2.620   4.737   5.216 -0.6941  0.8515 -1.0065
 2665TIP3   OH229409   2.556   0.330   6.759  0.1014  0.5810 -0.0801
 2665TIP3    H129410   2.490   0.332   6.829 -0.1347  1.3713 -0.3192
 2665TIP3    H229411   2.592   0.418   6.758 -0.9728  1.0522 -1.9588
 2666TIP3   OH229412   1.337   0.998   5.731  0.3433 -0.1526  0.3423
 2666TIP3    H129413   1.314   1.083   5.770  0.6097 -0.3583  0.9543
 2666TIP3    H229414   1.432   0.993   5.739  0.3394 -0.4617  0.1997
 2667TIP3   OH229415   2.878   4.623  13.092 -0.3127 -0.2381 -0.5692
 2667TIP3    H129416   2.870   4.699  13.148 -0.0075 -1.4311  1.1692
 2667TIP3    H229417   2.796   4.620  13.043 -1.3181 -0.0769  1.0377
 2668TIP3   OH229418   2.024   3.060   0.948  0.0511  0.0223 -0.1010
 2668TIP3    H129419   2.040   3.012   1.029 -1.8509  1.0039  0.9323
 2668TIP3    H229420   1.998   3.148   0.977 -2.5768 -0.1388 -1.6494
 2669TIP3   OH229421   4.943   2.594  15.696 -0.0872 -0.2256 -0.0755
 2669TIP3    H129422   5.002   2.662  15.662 -0.4501  0.2846  0.3044
 2669TIP3    H229423   4.863   2.641  15.718  0.4819 -0.3278  2.5050
 2670TIP3   OH229424   4.168   5.518  16.032  0.2829 -0.0114  0.1448
 2670TIP3    H129425   4.154   5.556  15.945  0.2502  1.8687  0.9385
 2670TIP3    H229426   4.080   5.511  16.069  0.4156  0.5203  0.5620
 2671TIP3   OH229427   1.389   5.736   0.823 -0.5902  0.4655  0.3344
 2671TIP3    H129428   1.376   5.759   0.914 -0.4289  1.1946  0.1791
 2671TIP3    H229429   1.441   5.808   0.787 -1.2686  0.5534 -0.5063
 2672TIP3   OH229430   1.733   6.455  16.359  0.2328 -0.0329  0.1291
 2672TIP3    H129431   1.665   6.438  16.424  0.1268  0.1412  0.0623
 2672TIP3    H229432   1.685   6.470  16.277  0.3910 -1.0535 -0.1671
 2673TIP3   OH229433   0.282   3.743   3.898  0.0647 -0.1810 -0.2109
 2673TIP3    H129434   0.377   3.751   3.894 -0.1254  2.5359 -0.7338
 2673TIP3    H229435   0.255   3.720   3.809  0.1976 -0.6337 -0.1357
 2674TIP3   OH229436   3.266   3.380   3.600  0.4819  0.6006 -0.1983
 2674TIP3    H129437   3.343   3.435   3.585  1.2845  0.1936  2.1051
 2674TIP3    H229438   3.280   3.341   3.686 -1.8377 -0.2859 -0.1446
 2675TIP3   OH229439   5.888   2.821   5.191  0.0506 -0.0528  0.2044
 2675TIP3    H129440   5.980   2.844   5.175  0.2938 -1.6137 -0.9155
 2675TIP3    H229441   5.887   2.782   5.278 -0.1914  2.9635  1.6795
 2676TIP3   OH229442   0.960   3.763   1.372  0.1584 -0.1034 -0.6500
 2676TIP3    H129443   1.036   3.735   1.423 -1.2554  1.1798  2.3853
 2676TIP3    H229444   0.964   3.859   1.374 -2.0050  0.0197  0.4521
 2677TIP3   OH229445   4.388   0.598   4.916  0.0199  0.2590 -0.0402
 2677TIP3    H129446   4.320   0.588   4.850 -0.9368  0.0577  0.9363
 2677TIP3    H229447   4.340   0.605   4.999  1.1914 -0.0622  0.6981
 2678TIP3   OH229448   1.601   1.902   2.167 -0.2825  0.2183 -0.1783
 2678TIP3    H129449   1.578   1.914   2.259 -1.7049  1.1476 -0.6096
 2678TIP3    H229450   1.519   1.873   2.126  0.6086 -1.2745 -0.9696
 2679TIP3   OH229451   5.257   3.353  17.129 -0.0603  0.1636 -0.1979
 2679TIP3    H129452   5.334   3.302  17.153 -0.5097 -0.5053 -0.1455
 2679TIP3    H229453   5.186   3.288  17.126 -1.2177  1.1603  2.4570
 2680TIP3   OH229454   5.236   1.915  15.896  0.0289 -0.8755 -0.6794
 2680TIP3    H129455   5.246   1.984  15.961 -0.4271 -1.4083 -0.0396
 2680TIP3    H229456   5.222   1.963  15.813 -0.1162 -0.2009 -0.2759
 2681TIP3   OH229457   5.221   4.869   4.919  0.5586  0.9481  0.3723
 2681TIP3    H129458   5.255   4.816   4.992  2.2326  0.2925 -0.8093
 2681TIP3    H229459   5.202   4.954   4.958 -1.0466 -0.1171  2.0787
 2682TIP3   OH229460   2.620   4.641  12.982 -0.2009 -0.0438 -0.1556
 2682TIP3    H129461   2.565   4.613  13.055 -1.1815  0.3378 -0.7324
 2682TIP3    H229462   2.587   4.591  12.907  0.2606  0.1734 -0.5089
 2683TIP3   OH229463   0.111   4.347  15.281  0.2910  0.2940 -0.2367
 2683TIP3    H129464   0.057   4.300  15.345  1.4472 -2.0988 -0.8839
 2683TIP3    H229465   0.064   4.337  15.198  0.9694 -0.5626 -0.5392
 2684TIP3   OH229466   2.127   4.967  12.228  0.1897  0.6930  0.3146
 2684TIP3    H129467   2.132   4.874  12.208  0.5226  0.5441  1.0532
 2684TIP3    H229468   2.035   4.990  12.214  0.1532  0.3062 -0.0892
 2685TIP3   OH229469   1.505   4.058   5.054 -0.2656 -0.3274  0.1659
 2685TIP3    H129470   1.474   3.967   5.060 -1.2274  0.0351  0.8673
 2685TIP3    H229471   1.516   4.073   4.960 -0.6632 -0.9852  0.0078
 2686TIP3   OH229472   1.969   0.714   2.230 -0.0913  0.3431 -0.1545
 2686TIP3    H129473   1.971   0.757   2.315  0.7294  1.0785 -0.5304
 2686TIP3    H229474   2.057   0.726   2.195 -0.1352 -0.7937 -0.7004
 2687TIP3   OH229475   5.247   3.435   0.913  0.0168 -0.1120  0.2052
 2687TIP3    H129476   5.243   3.472   1.001  0.9531 -1.1967  0.7358
 2687TIP3    H229477   5.274   3.344   0.927  1.3802  0.0230 -1.2767
 2688TIP3   OH229478   4.970   3.647  12.775 -0.3189 -0.2071  0.0907
 2688TIP3    H129479   4.945   3.606  12.692  0.6832 -1.1033  0.2189
 2688TIP3    H229480   5.013   3.728  12.749 -2.0431  0.6662 -0.1753
 2689TIP3   OH229481   5.863   2.321   3.450 -0.2733 -0.0065 -0.8340
 2689TIP3    H129482   5.791   2.277   3.405 -0.4712 -0.1428 -0.3862
 2689TIP3    H229483   5.887   2.261   3.521 -0.0257  0.2488 -0.7024
 2690TIP3   OH229484   6.626   0.298   4.709 -0.3030  0.5976 -0.3179
 2690TIP3    H129485   6.535   0.313   4.734 -0.0891 -1.2375  1.8578
 2690TIP3    H229486   6.622   0.227   4.645 -0.3561 -0.4598  0.8266
 2691TIP3   OH229487   5.891   4.435   5.167  0.0154  0.2356 -0.1378
 2691TIP3    H129488   5.850   4.426   5.253  1.2605 -0.0467  0.4491
 2691TIP3    H229489   5.857   4.517   5.133 -0.7164  0.2076  0.4978
 2692TIP3   OH229490   1.915   3.722  11.244  0.1008  0.1791 -0.6372
 2692TIP3    H129491   1.931   3.662  11.317  0.2262  0.9214 -0.0437
 2692TIP3    H229492   1.990   3.710  11.186 -0.1543 -0.6434 -0.8112
 2693TIP3   OH229493   1.628   3.825   5.125 -0.2759 -0.1257 -0.5790
 2693TIP3    H129494   1.698   3.851   5.065 -0.1727 -0.7779 -0.7469
 2693TIP3    H229495   1.668   3.757   5.180  0.0087  1.2583  1.0375
 2694TIP3   OH229496   5.088   0.251   1.768 -0.0100  0.3979 -0.2285
 2694TIP3    H129497   5.097   0.335   1.724  1.2556  0.6719  0.5058
 2694TIP3    H229498   5.067   0.189   1.698 -0.6593  1.2572 -0.8128
 2695TIP3   OH229499   1.069   0.043  12.063  0.1840 -0.3390 -0.1026
 2695TIP3    H129500   1.061  -0.052  12.061  0.4566 -0.3525 -1.0235
 2695TIP3    H229501   1.118   0.065  11.984  0.3260  0.5496  0.2192
 2696TIP3   OH229502   0.303   2.124   2.598 -0.3695 -0.3158  0.3167
 2696TIP3    H129503   0.303   2.063   2.524  0.5203 -0.4733  0.4285
 2696TIP3    H229504   0.276   2.071   2.672 -2.3101  0.0907 -0.0612
 2697TIP3   OH229505   2.483   1.031  13.047  0.2312 -0.9010 -0.4200
 2697TIP3    H129506   2.416   1.018  12.980 -0.2462 -1.5102  0.1552
 2697TIP3    H229507   2.531   0.948  13.049  1.5353 -0.1970 -1.3797
 2698TIP3   OH229508   6.661   6.251   0.680  0.0909  0.9036  0.2946
 2698TIP3    H129509   6.579   6.218   0.717 -0.4549  0.1991 -1.4484
 2698TIP3    H229510   6.634   6.318   0.617  0.8128  0.3966 -0.5776
 2699TIP3   OH229511   4.470   5.759  17.294  0.2784 -0.1580 -0.3444
 2699TIP3    H129512   4.407   5.776  17.364 -0.7253  0.2352 -1.3056
 2699TIP3    H229513   4.455   5.668  17.270 -0.4794  0.1491 -1.0834
 2700TIP3   OH229514   4.885   6.408  11.262 -1.0166 -0.0646 -0.2607
 2700TIP3    H129515   4.902   6.372  11.349 -0.3663 -0.6403 -0.6161
 2700TIP3    H229516   4.792   6.395  11.248 -0.9772 -0.6741  0.0311
 2701TIP3   OH229517   4.762   1.284   4.755  0.0709  0.0481  0.2082
 2701TIP3    H129518   4.727   1.209   4.802  1.0506  0.7325  2.1608
 2701TIP3    H229519   4.699   1.354   4.772  0.6518  0.4143  0.9529
 2702TIP3   OH229520   3.950   1.914  14.808  0.2378  0.0703  0.5782
 2702TIP3    H129521   3.884   1.858  14.767  1.2924 -0.2344 -0.7835
 2702TIP3    H229522   3.933   1.907  14.902 -0.5242 -1.4166  0.3579
 2703TIP3   OH229523   0.451   1.160   5.911  0.2925 -0.1438  0.0045
 2703TIP3    H129524   0.477   1.140   6.001 -1.4599  1.1805  0.8717
 2703TIP3    H229525   0.357   1.176   5.917  0.3937  1.4150 -1.8057
 2704TIP3   OH229526   6.315   5.021  10.904 -0.5828  0.5072 -0.9654
 2704TIP3    H129527   6.400   5.047  10.940 -1.2681  0.6944  0.6417
 2704TIP3    H229528   6.335   4.980  10.820  0.9218  2.0977 -1.4251
 2705TIP3   OH229529   4.103   2.009   2.046  0.5380  0.0892 -0.0588
 2705TIP3    H129530   4.170   1.960   1.999  0.0028 -0.3241 -0.4065
 2705TIP3    H229531   4.106   1.973   2.135 -0.4716 -1.2630 -0.5332
 2706TIP3   OH229532   0.549   0.630  11.986  0.0132 -0.3071 -0.2808
 2706TIP3    H129533   0.457   0.605  11.991 -0.3376 -0.0956 -3.4652
 2706TIP3    H229534   0.555   0.712  12.035 -1.4909 -0.2715 -0.1088
 2707TIP3   OH229535   1.113   6.113  15.887  0.1303  0.0525  0.0960
 2707TIP3    H129536   1.088   6.206  15.885  1.4749  0.6152  3.3337
 2707TIP3    H229537   1.202   6.111  15.852  0.6915  0.2929  1.4404
 2708TIP3   OH229538   1.335   5.462  15.813 -0.5465  0.1831 -0.0787
 2708TIP3    H129539   1.392   5.429  15.882  0.3891 -0.3926 -1.0962
 2708TIP3    H229540   1.393   5.478  15.739 -1.5415  0.6455 -0.7879
 2709TIP3   OH229541   2.701   6.569   6.037  0.1095 -0.2383 -0.1042
 2709TIP3    H129542   2.775   6.513   6.013 -0.1772 -0.4310 -0.5604
 2709TIP3    H229543   2.735   6.626   6.105  1.1847  0.8414 -1.4764
 2710TIP3   OH229544   4.227   3.203  16.110 -0.6380 -0.0537  0.1332
 2710TIP3    H129545   4.282   3.127  16.132 -0.7317 -0.3529 -0.6469
 2710TIP3    H229546   4.230   3.257  16.189  0.8025 -0.0465  0.1066
 2711TIP3   OH229547   3.622   5.867   3.112 -0.1004  0.3173 -0.6374
 2711TIP3    H129548   3.625   5.855   3.017  0.6812  0.2302 -0.6054
 2711TIP3    H229549   3.548   5.926   3.126 -0.7849 -0.3791 -1.2228
 2712TIP3   OH229550   3.351   1.141   1.693 -0.3539  0.1526 -0.3602
 2712TIP3    H129551   3.316   1.078   1.756  0.2981 -0.8530 -0.9873
 2712TIP3    H229552   3.396   1.206   1.748 -1.5755  0.4502  0.3266
 2713TIP3   OH229553   2.620   1.822  16.646  0.1052  0.6074  0.1284
 2713TIP3    H129554   2.628   1.874  16.726 -2.2615  0.6579  0.3979
 2713TIP3    H229555   2.619   1.731  16.677 -3.1160  0.6598  0.5287
 2714TIP3   OH229556   0.506   2.824   5.909  0.0302  0.4429  0.4367
 2714TIP3    H129557   0.464   2.909   5.897 -1.3405 -0.2675 -0.1216
 2714TIP3    H229558   0.478   2.773   5.833  0.0947 -0.7755  1.1996
 2715TIP3   OH229559   2.407   5.602   3.021 -0.2417 -0.2166 -0.9227
 2715TIP3    H129560   2.415   5.595   3.116  0.1640 -0.8535 -0.9969
 2715TIP3    H229561   2.319   5.635   3.006 -0.5676 -0.8219 -0.3539
 2716TIP3   OH229562   1.267   0.264   4.439  0.6818  0.2168  0.7999
 2716TIP3    H129563   1.244   0.349   4.477 -1.1980 -0.2054  0.6549
 2716TIP3    H229564   1.358   0.276   4.410  0.2990  2.3725  0.2682
 2717TIP3   OH229565   5.957   4.800   2.876 -0.2900 -0.3655  0.1418
 2717TIP3    H129566   5.927   4.804   2.785  0.9835 -0.2972 -0.2962
 2717TIP3    H229567   5.881   4.769   2.925 -1.0264 -0.3138 -0.9287
 2718TIP3   OH229568   6.388   2.429  14.300  0.2862  0.6910 -0.2496
 2718TIP3    H129569   6.452   2.412  14.231 -2.0122  0.4203 -2.4734
 2718TIP3    H229570   6.377   2.524  14.298  1.8537  0.9635  1.4173
 2719TIP3   OH229571   3.779   4.791  13.236  0.3042 -0.6186  0.4925
 2719TIP3    H129572   3.844   4.743  13.183 -0.7300 -0.9135 -0.5618
 2719TIP3    H229573   3.762   4.871  13.186 -0.5060 -0.7792  0.5004
 2720TIP3   OH229574   1.284   2.838  15.827  0.4758 -0.0796 -0.1769
 2720TIP3    H129575   1.297   2.923  15.784  0.3526 -1.0743 -2.3032
 2720TIP3    H229576   1.355   2.833  15.891  0.4075  1.6660  0.0975
 2721TIP3   OH229577   1.840   5.139  11.627 -0.6514 -0.1022 -0.1170
 2721TIP3    H129578   1.773   5.202  11.599 -1.6242 -0.8526  0.4710
 2721TIP3    H229579   1.886   5.183  11.698 -2.0336 -0.4254  1.0316
 2722TIP3   OH229580   4.396   6.565   3.269 -0.6438  0.2698  0.0298
 2722TIP3    H129581   4.385   6.650   3.227  0.3022  0.1015 -0.5915
 2722TIP3    H229582   4.470   6.577   3.329  0.1082 -0.3525 -0.7495
 2723TIP3   OH229583   5.017   0.084  16.738  0.4107 -0.6606  0.4461
 2723TIP3    H129584   5.108   0.106  16.754 -0.0251  0.2500  1.8754
 2723TIP3    H229585   4.995   0.020  16.806 -0.5727  0.7560  1.5260
 2724TIP3   OH229586   2.327   1.247   1.239 -0.5723 -0.0949  0.5576
 2724TIP3    H129587   2.242   1.219   1.273 -1.9888  4.1144  1.0847
 2724TIP3    H229588   2.372   1.286   1.314  1.0442 -0.5114 -0.1401
 2725TIP3   OH229589   6.119   6.645  14.427  0.0126  0.0422 -0.5546
 2725TIP3    H129590   6.151   6.682  14.345  0.8736  1.9333  0.5690
 2725TIP3    H229591   6.142   6.552  14.423 -1.7055 -0.3634 -3.2427
 2726TIP3   OH229592   0.279   4.681   2.918 -0.0170  0.2856  0.4895
 2726TIP3    H129593   0.304   4.644   2.834  1.1482  2.3136 -0.1270
 2726TIP3    H229594   0.208   4.625   2.949  1.0411 -1.8652 -0.7513
 2727TIP3   OH229595   1.188   0.455   5.126  0.4714 -0.1521 -0.0932
 2727TIP3    H129596   1.192   0.417   5.214  2.6966  2.4431  1.0966
 2727TIP3    H229597   1.278   0.482   5.108 -0.5229  2.5010 -1.6763
 2728TIP3   OH229598   4.735   0.310   4.373  0.1214  0.1051  0.4329
 2728TIP3    H129599   4.780   0.246   4.318 -2.1343 -1.0354 -0.2118
 2728TIP3    H229600   4.660   0.337   4.320 -1.2511  0.1564  2.3360
 2729TIP3   OH229601   3.653   1.931  12.857  0.9292 -0.0356 -0.5000
 2729TIP3    H129602   3.704   2.012  12.860  0.5934  0.2620 -1.9647
 2729TIP3    H229603   3.709   1.870  12.808  0.8349 -0.4344 -0.1149
 2730TIP3   OH229604   0.180   3.994   1.587  0.1176  0.4971 -0.3823
 2730TIP3    H129605   0.170   3.977   1.493  2.9004 -0.0886 -0.6515
 2730TIP3    H229606   0.144   3.916   1.629  0.4499 -0.0189 -1.0382
 2731TIP3   OH229607   4.820   3.872  14.670 -0.0706  0.4014  0.6247
 2731TIP3    H129608   4.863   3.885  14.754 -1.3680  0.1381  1.3474
 2731TIP3    H229609   4.841   3.951  14.620  0.5774  0.6341  1.2428
 2732TIP3   OH229610   6.373   1.354   1.245 -0.7608  0.4549  0.1153
 2732TIP3    H129611   6.310   1.338   1.175  1.7018 -1.5386 -1.8293
 2732TIP3    H229612   6.440   1.410   1.205  1.1660 -1.4447  0.4911
 2733TIP3   OH229613   2.672   5.900  12.063  0.6104 -0.1464  0.3987
 2733TIP3    H129614   2.759   5.874  12.093  0.2396 -0.4129  1.2745
 2733TIP3    H229615   2.676   5.995  12.058  0.7095 -0.1020  1.2320
 2734TIP3   OH229616   0.336   3.233   5.323 -0.4090 -0.3380  0.4981
 2734TIP3    H129617   0.300   3.227   5.234 -0.3113 -1.5196  0.5221
 2734TIP3    H229618   0.381   3.317   5.324  0.6062 -0.8119 -0.9735
 2735TIP3   OH229619   1.925   3.546  16.130  0.1130  0.6351 -0.0308
 2735TIP3    H129620   1.882   3.601  16.065 -1.6035 -1.4401 -0.7567
 2735TIP3    H229621   1.937   3.603  16.206 -1.9467  1.9266 -0.5960
 2736TIP3   OH229622   2.517   1.212  12.218  0.2768 -0.3984  0.2165
 2736TIP3    H129623   2.542   1.150  12.286  1.8449 -0.4882 -0.3975
 2736TIP3    H229624   2.583   1.281  12.224  0.5477 -0.4933 -1.3038
 2737TIP3   OH229625   1.316   2.086  16.724 -0.1593 -0.1091 -0.4643
 2737TIP3    H129626   1.322   2.150  16.795 -1.5849 -0.2790 -0.1489
 2737TIP3    H229627   1.223   2.062  16.722  0.1290 -1.2254 -1.4116
 2738TIP3   OH229628   4.121   1.749  10.852 -0.0877  0.0389 -0.4855
 2738TIP3    H129629   4.147   1.717  10.939 -0.0883  1.3047  0.0060
 2738TIP3    H229630   4.035   1.709  10.837 -0.6483  0.7571  0.6587
 2739TIP3   OH229631   6.487   1.117   4.089 -0.0797  0.0187 -0.6425
 2739TIP3    H129632   6.501   1.209   4.067  0.9787 -0.5710 -2.7313
 2739TIP3    H229633   6.413   1.118   4.150 -0.5918  2.1876 -1.2048
 2740TIP3   OH229634   2.006   2.461  10.514  0.1731 -0.2173 -0.1738
 2740TIP3    H129635   2.026   2.418  10.598 -1.3066  1.3545  1.0500
 2740TIP3    H229636   1.914   2.441  10.499 -0.1750  1.3749 -0.2491
 2741TIP3   OH229637   4.004   2.018  14.553 -0.3898 -0.0205  0.0776
 2741TIP3    H129638   3.973   1.937  14.593 -3.1988  0.1305 -1.5173
 2741TIP3    H229639   3.960   2.088  14.601 -1.0591  0.3162 -0.9848
 2742TIP3   OH229640   4.547   2.235   1.460 -0.0345  0.5070 -0.2481
 2742TIP3    H129641   4.516   2.150   1.429 -1.7699  1.8735 -2.4977
 2742TIP3    H229642   4.642   2.232   1.447 -0.3014 -0.3533 -2.2499
 2743TIP3   OH229643   6.420   6.588  14.681 -0.1899  0.2324 -0.0935
 2743TIP3    H129644   6.379   6.503  14.697  0.9693 -0.2655  0.3977
 2743TIP3    H229645   6.410   6.636  14.764 -1.6535  0.9623 -0.6549
 2744TIP3   OH229646   2.034   0.972  14.990  0.1616  0.0650  0.0179
 2744TIP3    H129647   2.103   0.939  14.932 -0.1824  0.4870 -0.6485
 2744TIP3    H229648   2.076   1.039  15.043  0.3790 -0.0269 -0.0394
 2745TIP3   OH229649   0.027   3.906  11.421 -0.2770  0.4991 -0.0935
 2745TIP3    H129650   0.005   3.934  11.332 -0.2094 -0.3919 -0.3957
 2745TIP3    H229651  -0.005   3.816  11.427 -1.0178  0.8094  1.0614
 2746TIP3   OH229652   5.859   1.641  14.292  0.4086 -0.0141  0.5411
 2746TIP3    H129653   5.935   1.599  14.330  0.2900 -0.1266  0.6554
 2746TIP3    H229654   5.894   1.716  14.244  0.3486  2.0250  3.3811
 2747TIP3   OH229655   2.069   6.607  16.750 -0.3428 -0.2786 -0.7595
 2747TIP3    H129656   2.060   6.515  16.776 -0.2303 -0.1075 -0.0693
 2747TIP3    H229657   2.008   6.654  16.808 -0.7486  0.0367 -1.4239
 2748TIP3   OH229658   1.465   5.034  16.162 -0.1630 -1.1638 -0.2153
 2748TIP3    H129659   1.532   5.048  16.095  1.0826  0.0468  1.2007
 2748TIP3    H229660   1.449   4.940  16.162  1.6046 -1.4954 -0.5603
 2749TIP3   OH229661   2.536   5.137   0.413  0.1725 -0.6002  0.4148
 2749TIP3    H129662   2.607   5.159   0.473  1.8473 -1.4757 -1.0963
 2749TIP3    H229663   2.535   5.209   0.350  0.0149 -0.7965  0.1911
 2750TIP3   OH229664   1.871   2.194   4.563 -0.4590  0.3198 -0.0387
 2750TIP3    H129665   1.782   2.227   4.571 -0.8951 -0.6915 -0.5330
 2750TIP3    H229666   1.870   2.108   4.606 -0.2896 -0.6406 -1.8326
 2751TIP3   OH229667   3.712   4.712   3.222 -0.2340 -0.4571  0.1983
 2751TIP3    H129668   3.808   4.701   3.223 -0.3543 -1.6577  1.5654
 2751TIP3    H229669   3.698   4.797   3.265  0.2636  0.5287 -1.4932
 2752TIP3   OH229670   5.472   1.367   3.330  0.0877  0.0557 -0.0297
 2752TIP3    H129671   5.437   1.455   3.336  0.2638  0.0894  0.6521
 2752TIP3    H229672   5.536   1.371   3.259  1.8620  1.1326  1.5090
 2753TIP3   OH229673   3.222   3.802   3.168  0.5857  0.3987  0.1020
 2753TIP3    H129674   3.177   3.887   3.166 -3.1832 -1.3980 -2.0843
 2753TIP3    H229675   3.218   3.771   3.078 -0.5157 -3.1065  1.1985
 2754TIP3   OH229676   2.778   5.261   2.239  0.7932  1.0440 -0.4976
 2754TIP3    H129677   2.699   5.248   2.290  1.4516  2.4736  1.0059
 2754TIP3    H229678   2.830   5.182   2.254  0.5180  0.9887  0.2051
 2755TIP3   OH229679   3.348   4.420  14.364 -0.5091 -0.6024 -0.0164
 2755TIP3    H129680   3.286   4.367  14.414  0.4739 -0.2630  1.6508
 2755TIP3    H229681   3.387   4.360  14.301  0.6817 -1.9438  1.9171
 2756TIP3   OH229682   1.601   1.632   0.020  0.3642 -0.8239  0.0990
 2756TIP3    H129683   1.587   1.717   0.062  3.0871 -0.5901  0.6647
 2756TIP3    H229684   1.574   1.568   0.087 -0.2450 -0.4416  0.2315
 2757TIP3   OH229685   3.174   2.340  15.051  0.3341 -0.4085 -0.3231
 2757TIP3    H129686   3.090   2.303  15.076  0.2412 -0.2424 -0.3832
 2757TIP3    H229687   3.152   2.409  14.988  0.2838  1.4891  1.6389
 2758TIP3   OH229688   3.944   0.343   2.773  0.2313  0.2436 -0.2177
 2758TIP3    H129689   3.928   0.425   2.820  0.6122  0.2134 -0.0298
 2758TIP3    H229690   4.019   0.362   2.716  0.7892 -0.1754  0.3583
 2759TIP3   OH229691   3.452   3.797  12.534  0.5603 -0.2271  0.4880
 2759TIP3    H129692   3.386   3.857  12.569 -0.4354 -1.3297  0.5951
 2759TIP3    H229693   3.445   3.719  12.590  1.0261 -0.8716 -0.3334
 2760TIP3   OH229694   3.657   4.369   0.520  0.6803 -0.4201  0.4957
 2760TIP3    H129695   3.608   4.355   0.439  0.0583  0.1151  0.7600
 2760TIP3    H229696   3.589   4.373   0.588  1.2883 -2.4326  1.2853
 2761TIP3   OH229697   0.390   4.926   0.949  0.3836  0.7734  0.2902
 2761TIP3    H129698   0.467   4.888   0.905 -0.0267  1.2155 -0.8511
 2761TIP3    H229699   0.316   4.894   0.898 -0.1627  0.8025  1.0548
 2762TIP3   OH229700   0.038   5.466  16.532  0.2208 -0.2099 -0.3316
 2762TIP3    H129701   0.023   5.480  16.438 -0.8798  0.1409 -0.1115
 2762TIP3    H229702   0.054   5.554  16.566 -0.3322 -0.2261 -0.0303
 2763TIP3   OH229703   2.106   3.059  16.545 -0.3363 -0.3782 -0.0234
 2763TIP3    H129704   2.125   3.005  16.468  1.2930  0.0986  0.0118
 2763TIP3    H229705   2.088   3.146  16.509 -0.0405 -0.2658  0.0979
 2764TIP3   OH229706   5.350   3.738   5.117  0.5125  0.2488 -0.5108
 2764TIP3    H129707   5.314   3.779   5.038  0.3266 -0.0984 -0.6102
 2764TIP3    H229708   5.340   3.644   5.102  1.9193  0.1259 -0.7486
 2765TIP3   OH229709   2.078   2.033   5.291 -0.1173  0.2734  0.0862
 2765TIP3    H129710   2.043   1.948   5.317  0.4782  0.1779  0.6124
 2765TIP3    H229711   2.072   2.087   5.370 -0.2493  0.6399 -0.1713
 2766TIP3   OH229712   0.002   0.985   1.988  0.5360  0.2428  0.2917
 2766TIP3    H129713   0.078   0.950   1.942 -0.1448  0.6681 -1.2047
 2766TIP3    H229714  -0.007   1.074   1.955 -0.0539  0.5152  1.1683
 2767TIP3   OH229715   1.378   2.267   1.371  0.3888 -0.4294 -0.3224
 2767TIP3    H129716   1.462   2.266   1.418 -0.4800 -0.2755  1.2831
 2767TIP3    H229717   1.375   2.353   1.330  0.2863  0.2407  1.0367
 2768TIP3   OH229718   0.010   1.921   1.038 -0.1685  0.0847  0.2694
 2768TIP3    H129719  -0.067   1.867   1.053 -0.2470  0.1285  0.0302
 2768TIP3    H229720   0.084   1.861   1.045 -0.3551 -0.5675 -2.2927
 2769TIP3   OH229721   1.358   4.106   3.082 -0.3449 -0.4199  0.8700
 2769TIP3    H129722   1.439   4.056   3.080  0.3297  0.6599  0.7630
 2769TIP3    H229723   1.338   4.116   3.175 -0.7155 -1.2115  0.8933
 2770TIP3   OH229724   1.446   6.133   0.525  0.5012  0.0510  0.1230
 2770TIP3    H129725   1.406   6.188   0.457  0.8887  1.3033  0.8758
 2770TIP3    H229726   1.535   6.166   0.533  1.1722 -1.5466 -0.2836
 2771TIP3   OH229727   1.754   2.971   4.382 -0.7439  0.5937  0.5116
 2771TIP3    H129728   1.743   3.019   4.300  0.8384  2.9340  1.5504
 2771TIP3    H229729   1.675   2.992   4.432 -1.2137  0.0261  0.0290
 2772TIP3   OH229730   3.194   6.021   1.362 -0.1041 -0.0091 -0.9691
 2772TIP3    H129731   3.098   6.015   1.356 -0.0303 -1.7456 -0.9544
 2772TIP3    H229732   3.223   5.930   1.363  1.5479  0.4979 -0.7443
 2773TIP3   OH229733   0.529   2.460   2.548  0.6013 -0.0955  0.1193
 2773TIP3    H129734   0.436   2.436   2.551  1.0008 -1.9098 -0.5003
 2773TIP3    H229735   0.547   2.475   2.455  1.1262 -0.6958  0.1137
 2774TIP3   OH229736   2.066   4.417  13.271  0.3606  0.5307  0.5367
 2774TIP3    H129737   2.014   4.338  13.254  0.6373  0.7982 -1.8426
 2774TIP3    H229738   2.002   4.480  13.305 -0.6867  0.4394 -1.1259
 2775TIP3   OH229739   4.724   4.312  15.018  0.0402 -0.0568 -0.0980
 2775TIP3    H129740   4.648   4.364  14.993  2.0695  3.4152  0.2397
 2775TIP3    H229741   4.770   4.297  14.935  0.0831 -0.1921 -0.0486
 2776TIP3   OH229742   3.224   3.120  15.716  0.3049 -0.0931 -0.0169
 2776TIP3    H129743   3.199   3.160  15.799  0.0267 -0.0347 -0.1298
 2776TIP3    H229744   3.156   3.147  15.654  0.6247  0.0446 -0.3163
 2777TIP3   OH229745   2.424   0.595   1.510  0.2437  0.5941  0.8707
 2777TIP3    H129746   2.471   0.643   1.442  0.4389  0.5067  0.9423
 2777TIP3    H229747   2.332   0.618   1.497  0.0461 -0.8006 -0.5667
 2778TIP3   OH229748   3.080   2.489  11.862 -0.3874  0.3025  0.1549
 2778TIP3    H129749   3.170   2.459  11.875 -0.4730  0.4592  1.2181
 2778TIP3    H229750   3.029   2.408  11.853 -0.5027  0.0929  2.2147
 2779TIP3   OH229751   2.487   0.041   5.653 -0.1335 -0.0448 -0.2238
 2779TIP3    H129752   2.497  -0.054   5.647 -1.4184 -0.1653 -0.8858
 2779TIP3    H229753   2.497   0.072   5.563 -0.1687  0.3843 -0.0817
 2780TIP3   OH229754   0.694   1.112  11.306 -0.2121 -0.5357 -0.2981
 2780TIP3    H129755   0.765   1.119  11.242 -0.7164 -1.4702 -0.9780
 2780TIP3    H229756   0.719   1.037  11.361  0.0551  0.0582  0.4023
 2781TIP3   OH229757   2.981   2.867  13.374  0.0636 -0.2134 -0.0283
 2781TIP3    H129758   3.012   2.783  13.409  1.5898  0.4841  0.4103
 2781TIP3    H229759   3.017   2.933  13.434 -1.7626  0.7278  0.0875
 2782TIP3   OH229760   5.671   4.994   4.688 -0.2125 -0.4584 -0.4145
 2782TIP3    H129761   5.694   5.013   4.597 -0.9756  0.6845 -0.3915
 2782TIP3    H229762   5.576   4.981   4.686 -0.0650 -1.8230  0.0130
 2783TIP3   OH229763   5.492   3.527   4.085  0.1578  0.1255  0.0094
 2783TIP3    H129764   5.426   3.460   4.068  2.1854 -2.8462  2.7499
 2783TIP3    H229765   5.563   3.508   4.022  1.3603 -1.4025  1.7257
 2784TIP3   OH229766   6.125   0.221  13.272  0.0575 -0.4368 -0.0888
 2784TIP3    H129767   6.073   0.291  13.313  1.9990 -0.0866  1.9296
 2784TIP3    H229768   6.085   0.140  13.303 -0.1857 -0.1921  0.2409
 2785TIP3   OH229769   4.070   2.663  13.516 -0.1410  0.1660 -0.5757
 2785TIP3    H129770   4.163   2.685  13.518 -0.5672  2.1802 -0.9912
 2785TIP3    H229771   4.063   2.585  13.572  1.7722 -0.0392 -0.5434
 2786TIP3   OH229772   3.918   2.903  15.768  0.5084 -0.4527 -0.2150
 2786TIP3    H129773   3.858   2.952  15.712 -1.4441 -0.7793  1.4449
 2786TIP3    H229774   3.876   2.818  15.779  1.3397 -0.7468  0.8952
 2787TIP3   OH229775   1.210   0.331  11.895  0.2752  0.0513  0.4533
 2787TIP3    H129776   1.117   0.335  11.871  0.2546  0.8628  0.6449
 2787TIP3    H229777   1.211   0.343  11.990  0.7214  2.5711  0.1757
 2788TIP3   OH229778   1.491   3.778  12.915  0.8100  0.1768 -0.2098
 2788TIP3    H129779   1.583   3.787  12.889  1.3136 -0.5806  1.1675
 2788TIP3    H229780   1.495   3.735  13.001 -0.8374  0.1309 -0.1255
 2789TIP3   OH229781   4.301   0.151  13.811  0.4707  0.3864 -0.3630
 2789TIP3    H129782   4.350   0.212  13.757  0.7164  1.0220  0.5540
 2789TIP3    H229783   4.228   0.123  13.756  1.6505 -0.2995 -1.6201
 2790TIP3   OH229784   5.391   5.421  10.418 -0.1476 -0.2784  0.1932
 2790TIP3    H129785   5.444   5.363  10.364  0.8393  1.2192 -0.4993
 2790TIP3    H229786   5.325   5.363  10.457  0.6577 -1.8143 -0.6223
 2791TIP3   OH229787   6.157   0.463   3.673  0.0076 -0.0304  0.3983
 2791TIP3    H129788   6.122   0.550   3.696 -0.2061 -0.1795  0.6466
 2791TIP3    H229789   6.179   0.470   3.580 -1.8827 -0.3186 -0.1115
 2792TIP3   OH229790   6.018   5.737  11.688  0.2296  0.5946 -0.0687
 2792TIP3    H129791   6.003   5.818  11.638  0.5340  0.6290 -0.1063
 2792TIP3    H229792   6.026   5.669  11.622 -1.0059  0.3592 -0.0092
 2793TIP3   OH229793   0.649   3.038  12.738  0.0052 -0.6452  0.5669
 2793TIP3    H129794   0.610   2.955  12.711 -0.1017 -0.4032 -0.0191
 2793TIP3    H229795   0.574   3.093  12.761 -0.0075 -0.1725 -0.5827
 2794TIP3   OH229796   4.144   1.327  15.696 -0.4235 -0.5438 -0.0697
 2794TIP3    H129797   4.090   1.367  15.628  0.4983  1.4141  0.2618
 2794TIP3    H229798   4.229   1.371  15.688 -0.4547  0.2472  2.7076
 2795TIP3   OH229799   1.973   2.945   2.317  0.0811 -0.0222 -0.0677
 2795TIP3    H129800   2.001   3.018   2.261  0.0785  0.6197  0.7370
 2795TIP3    H229801   1.930   2.884   2.258  2.1423 -0.4899 -1.1727
 2796TIP3   OH229802   4.864   4.468   5.177  0.4806  0.0733  0.0932
 2796TIP3    H129803   4.915   4.398   5.218  0.4360 -0.0065  0.0123
 2796TIP3    H229804   4.914   4.548   5.196  0.4915  0.0305  0.2517
 2797TIP3   OH229805   2.343   1.212  11.670  0.2517 -0.4192 -0.0883
 2797TIP3    H129806   2.431   1.196  11.639  0.0077 -2.4928  0.1060
 2797TIP3    H229807   2.287   1.164  11.610 -0.5501 -0.9713  1.0519
 2798TIP3   OH229808   5.205   5.491  12.166  0.3199 -0.2317 -0.4631
 2798TIP3    H129809   5.142   5.546  12.119 -0.2239  1.4025  1.9653
 2798TIP3    H229810   5.154   5.452  12.237  1.8825  0.9519  1.4398
 2799TIP3   OH229811   6.644   5.661   0.486 -0.1347 -0.2607 -0.1178
 2799TIP3    H129812   6.604   5.612   0.414 -2.3246  0.1026  0.7774
 2799TIP3    H229813   6.669   5.595   0.550 -0.4911 -0.4104 -0.1329
 2800TIP3   OH229814   2.844   2.389   1.735 -0.3298 -0.1454  0.0893
 2800TIP3    H129815   2.826   2.369   1.643 -0.5093 -0.7710  0.2566
 2800TIP3    H229816   2.923   2.340   1.755  0.2545  0.7436  0.0110
 2801TIP3   OH229817   3.229   6.653   5.496 -0.6787  0.2099  0.7124
 2801TIP3    H129818   3.216   6.685   5.406  0.8292 -0.5698  0.1755
 2801TIP3    H229819   3.269   6.567   5.484  0.0808  0.3447  2.1388
 2802TIP3   OH229820   5.252   5.998  16.556 -0.2569 -0.0218 -0.2135
 2802TIP3    H129821   5.307   6.066  16.516  1.5793  0.5602  2.9511
 2802TIP3    H229822   5.242   6.026  16.647 -1.4880 -2.8095  0.6059
 2803TIP3   OH229823   3.010   3.145  13.342 -0.5362  0.4749  0.2023
 2803TIP3    H129824   2.987   3.054  13.323  1.1499 -0.4055  2.0028
 2803TIP3    H229825   3.063   3.173  13.267 -0.0750 -0.4521  0.1718
 2804TIP3   OH229826   0.050   3.292   0.697 -0.2114  0.0146 -0.5585
 2804TIP3    H129827   0.131   3.279   0.746 -1.2500 -1.0687  0.9419
 2804TIP3    H229828   0.046   3.216   0.638 -1.0292 -0.9404  0.6911
 2805TIP3   OH229829   0.754   3.846  17.304 -0.9307 -0.2950  0.3395
 2805TIP3    H129830   0.740   3.921  17.362  0.6666 -0.2613  0.7449
 2805TIP3    H229831   0.841   3.862  17.266 -1.5245 -0.8213 -1.3100
 2806TIP3   OH229832   1.908   2.704  13.346 -0.1865  0.2986  0.0099
 2806TIP3    H129833   1.955   2.787  13.344  0.2575  0.0364 -1.0724
 2806TIP3    H229834   1.923   2.666  13.260 -3.4181  0.7630 -0.8773
 2807TIP3   OH229835   5.087   5.036   5.454 -0.4951 -0.2251 -0.0948
 2807TIP3    H129836   5.127   4.994   5.530  0.9130 -0.0869 -0.7301
 2807TIP3    H229837   5.016   4.977   5.429  0.2014 -1.2260  0.2120
 2808TIP3   OH229838   2.865   0.545  16.573 -0.5292 -0.0253  0.5243
 2808TIP3    H129839   2.915   0.491  16.634  2.4331  0.9045 -0.8843
 2808TIP3    H229840   2.895   0.634  16.589  0.5543  0.2237 -2.3341
 2809TIP3   OH229841   1.052   3.876   1.151  0.1442  0.0488  0.0854
 2809TIP3    H129842   1.024   3.824   1.227  1.4281 -1.3609 -0.3442
 2809TIP3    H229843   1.147   3.862   1.147  0.3236  1.3912 -0.8505
 2810TIP3   OH229844   3.832   6.217   0.128  0.3849  0.2329 -0.4742
 2810TIP3    H129845   3.830   6.122   0.139  2.1789  0.1847 -0.1537
 2810TIP3    H229846   3.752   6.238   0.080  0.0586 -1.4630 -0.7324
 2811TIP3   OH229847   6.161   2.120  12.498 -0.1170 -0.1545 -0.4568
 2811TIP3    H129848   6.091   2.076  12.547 -0.1497  0.5879  0.1735
 2811TIP3    H229849   6.213   2.048  12.462 -0.9144 -0.7192 -0.5309
 2812TIP3   OH229850   6.461   5.098  16.662  0.0691  0.1164 -0.3256
 2812TIP3    H129851   6.508   5.168  16.616 -1.8125  1.1348 -0.8185
 2812TIP3    H229852   6.470   5.119  16.755  1.0978 -0.0638 -0.3799
 2813TIP3   OH229853   0.647   0.419   0.081  0.0429  0.3986  0.3222
 2813TIP3    H129854   0.558   0.410   0.045  0.4677 -1.6456 -0.3812
 2813TIP3    H229855   0.680   0.329   0.083  2.5438  1.2169 -0.6174
 2814TIP3   OH229856   6.152   3.521  12.195 -0.3387 -0.0350 -0.6668
 2814TIP3    H129857   6.176   3.613  12.209  0.8184 -0.3158 -0.6971
 2814TIP3    H229858   6.168   3.479  12.280 -0.5845 -0.2646 -0.7337
 2815TIP3   OH229859   3.074   2.523   2.375  0.0390 -0.6613  0.1762
 2815TIP3    H129860   3.043   2.479   2.296  0.3395  1.1517 -1.0244
 2815TIP3    H229861   2.995   2.545   2.423 -0.1542 -1.6365  0.3332
 2816TIP3   OH229862   0.825   0.871   3.532  0.7157 -0.0218 -0.4941
 2816TIP3    H129863   0.901   0.906   3.578  0.0149 -0.1223  0.8018
 2816TIP3    H229864   0.753   0.930   3.556  0.5506  0.6872 -2.5260
 2817TIP3   OH229865   3.895   6.193  14.113 -0.8163 -0.6898  0.0766
 2817TIP3    H129866   3.952   6.125  14.080 -0.7052 -0.2165 -0.7257
 2817TIP3    H229867   3.869   6.163  14.200  0.1247 -1.2136  0.1850
 2818TIP3   OH229868   4.732   5.202   4.896  0.0334  0.7633 -0.2451
 2818TIP3    H129869   4.774   5.201   4.810 -0.1923 -1.4008 -0.3780
 2818TIP3    H229870   4.727   5.110   4.921 -2.4017  1.1284  0.8728
 2819TIP3   OH229871   2.579   3.903  12.990 -0.3934 -0.0846 -0.1520
 2819TIP3    H129872   2.630   3.854  13.054 -1.0384  0.0407  0.4807
 2819TIP3    H229873   2.527   3.837  12.944 -0.5246 -0.0996  0.0165
 2820TIP3   OH229874   3.569   6.038   0.620 -0.2142  0.0374 -0.1617
 2820TIP3    H129875   3.571   6.125   0.660 -0.0446 -0.2242  0.4114
 2820TIP3    H229876   3.572   5.977   0.695  1.2477 -0.4610 -0.5840
 2821TIP3   OH229877   3.003   1.949   6.055  0.1296 -0.0198 -0.3829
 2821TIP3    H129878   2.970   1.995   5.978 -2.2981  0.6939  1.0039
 2821TIP3    H229879   3.067   2.009   6.093 -0.3391  0.6236 -0.5951
 2822TIP3   OH229880   5.970   4.395   2.565 -0.0300 -0.0814 -0.2654
 2822TIP3    H129881   6.040   4.330   2.567  0.1603  0.1315  1.5442
 2822TIP3    H229882   5.997   4.457   2.498  1.0224 -0.5280 -0.2742
 2823TIP3   OH229883   4.500   4.797  12.306 -0.4256 -0.0105  0.0112
 2823TIP3    H129884   4.479   4.873  12.251 -1.1337  1.4056  2.1102
 2823TIP3    H229885   4.483   4.722  12.250  0.5926  1.3471 -2.2655
 2824TIP3   OH229886   1.276   3.888  13.619 -0.3156 -0.2151 -0.2968
 2824TIP3    H129887   1.302   3.797  13.611 -1.0095 -0.4243 -0.2651
 2824TIP3    H229888   1.197   3.896  13.565 -1.3150 -0.0963  1.0894
 2825TIP3   OH229889   0.344   0.255  14.266 -0.2730  0.3488 -0.6460
 2825TIP3    H129890   0.316   0.299  14.346 -0.6829  1.7815 -1.5332
 2825TIP3    H229891   0.270   0.265  14.206 -0.4269 -1.7058 -0.8461
 2826TIP3   OH229892   0.518   3.676   2.115 -0.0799  0.5360  0.2397
 2826TIP3    H129893   0.480   3.724   2.041  0.9695  0.5853 -0.2806
 2826TIP3    H229894   0.477   3.589   2.111  2.9682 -1.0081 -3.0433
 2827TIP3   OH229895   2.265   1.533   3.492  0.0017 -0.0084 -0.2928
 2827TIP3    H129896   2.266   1.453   3.545  2.8631 -1.7454 -2.7092
 2827TIP3    H229897   2.241   1.503   3.404 -1.5170  2.2931 -0.7442
 2828TIP3   OH229898   3.311   2.239  16.434  0.6491 -0.2974  0.3678
 2828TIP3    H129899   3.322   2.279  16.347  0.5661  0.1089  0.5458
 2828TIP3    H229900   3.239   2.177  16.423 -0.8401  1.3384  0.6928
 2829TIP3   OH229901   3.019   3.190  15.566  0.0642  0.5057 -0.1817
 2829TIP3    H129902   3.047   3.264  15.512 -0.1218  2.1094  1.8106
 2829TIP3    H229903   2.924   3.187  15.555 -0.0982  1.4950  0.8142
 2830TIP3   OH229904   5.502   1.295   1.101 -0.2458 -0.2731  0.2147
 2830TIP3    H129905   5.451   1.377   1.100 -0.2728 -0.2530  1.4093
 2830TIP3    H229906   5.512   1.275   1.194 -0.2503 -1.6470 -0.0635
 2831TIP3   OH229907   4.592   0.314   3.915 -0.0579  0.6780 -0.1587
 2831TIP3    H129908   4.687   0.325   3.925 -0.2736  2.0520  0.5693
 2831TIP3    H229909   4.582   0.269   3.832  1.3043 -0.8186  0.4342
 2832TIP3   OH229910   6.293   0.421  14.859 -0.7252 -0.0916 -0.3597
 2832TIP3    H129911   6.264   0.401  14.948 -1.8688  2.6498 -0.0014
 2832TIP3    H229912   6.380   0.459  14.870 -1.3144  1.2846 -0.2260
 2833TIP3   OH229913   3.671   4.526  14.370 -0.1736  0.3377 -0.3300
 2833TIP3    H129914   3.748   4.583  14.379  0.3453 -0.0496 -1.9248
 2833TIP3    H229915   3.597   4.584  14.386  0.4147  0.8320  0.7596
 2834TIP3   OH229916   5.420   0.678   5.314 -0.4847 -0.0003  0.4197
 2834TIP3    H129917   5.464   0.677   5.398 -0.6613 -1.4052  0.5183
 2834TIP3    H229918   5.480   0.632   5.255 -0.3342  1.0207 -0.2444
 2835TIP3   OH229919   2.346   5.890   0.328 -0.1701 -0.4312 -0.0772
 2835TIP3    H129920   2.309   5.809   0.293 -0.4877 -0.6327  0.7088
 2835TIP3    H229921   2.356   5.947   0.251 -4.1502  0.4658 -0.1216
 2836TIP3   OH229922   4.082   6.692  11.870 -0.0418  0.0697  0.5953
 2836TIP3    H129923   4.170   6.689  11.908  0.7815 -0.4670 -1.2419
 2836TIP3    H229924   4.069   6.784  11.847  0.5128 -0.0267 -0.1367
 2837TIP3   OH229925   2.535   6.380   6.188  0.1071 -0.0561  0.8341
 2837TIP3    H129926   2.526   6.438   6.264 -0.8692 -0.9970  1.4610
 2837TIP3    H229927   2.585   6.432   6.125  1.8656  0.3974  2.4769
 2838TIP3   OH229928   0.601   0.403   4.740  0.1048 -0.2002  0.0565
 2838TIP3    H129929   0.661   0.335   4.771  1.9093  1.0746 -0.4594
 2838TIP3    H229930   0.575   0.450   4.820  1.4670  0.5047  0.1182
 2839TIP3   OH229931   5.722   0.057  14.496  0.1589  0.2249 -0.2823
 2839TIP3    H129932   5.638   0.057  14.450 -0.1787 -1.9904  0.2378
 2839TIP3    H229933   5.745   0.150  14.503 -1.5249  0.8106 -1.6982
 2840TIP3   OH229934   0.369   0.689   0.728  0.2798  0.3959 -0.2245
 2840TIP3    H129935   0.292   0.644   0.694  0.0454 -0.3064  1.1415
 2840TIP3    H229936   0.411   0.728   0.652 -1.7391  1.2844 -0.9212
 2841TIP3   OH229937   0.960   2.855  13.861  0.4143  0.0096  0.2571
 2841TIP3    H129938   0.977   2.835  13.769  0.3437 -0.3143  0.3104
 2841TIP3    H229939   1.019   2.926  13.883  1.0520 -0.4931  0.1950
 2842TIP3   OH229940   0.664   5.313   2.267 -0.0057 -0.2580 -0.0839
 2842TIP3    H129941   0.637   5.233   2.312 -0.1041 -0.7991 -1.0801
 2842TIP3    H229942   0.731   5.285   2.206  2.5037  0.9627  1.9099
 2843TIP3   OH229943   2.821   3.460  15.744  0.6226  0.1131 -0.7831
 2843TIP3    H129944   2.909   3.462  15.782  0.3420  0.1512 -0.1203
 2843TIP3    H229945   2.785   3.376  15.770  0.1395  0.4607 -0.2889
 2844TIP3   OH229946   3.643   4.042   4.964 -0.3869  0.0439  0.1782
 2844TIP3    H129947   3.709   3.996   4.913  0.6126  0.5593  0.9785
 2844TIP3    H229948   3.672   4.034   5.055 -1.7066 -0.1633  0.6123
 2845TIP3   OH229949   2.523   1.017   4.769  0.1311  0.0452  0.2573
 2845TIP3    H129950   2.476   1.100   4.764 -0.1931 -0.1890 -1.3936
 2845TIP3    H229951   2.604   1.032   4.721  0.9532 -0.0747  1.5588
 2846TIP3   OH229952   3.412   4.562   1.050 -0.7004 -0.4962  0.4451
 2846TIP3    H129953   3.439   4.481   1.006 -0.8799  0.1954 -1.0084
 2846TIP3    H229954   3.480   4.625   1.029 -0.8206 -0.1317  1.1367
 2847TIP3   OH229955   4.082   4.390  15.294 -0.5347  0.0727  0.2691
 2847TIP3    H129956   4.140   4.331  15.245  0.3194  0.1821  1.1221
 2847TIP3    H229957   4.018   4.420  15.229 -0.0041 -0.5259 -0.5521
 2848TIP3   OH229958   0.086   3.653   1.913  0.4952 -0.5256 -0.2982
 2848TIP3    H129959   0.157   3.598   1.878 -0.5173 -1.6534 -0.6339
 2848TIP3    H229960   0.068   3.715   1.843  1.3571 -0.0267 -0.0890
 2849TIP3   OH229961   0.527   0.321  15.801 -0.5183  0.7298 -0.2641
 2849TIP3    H129962   0.435   0.295  15.808 -1.1668  3.1952  1.5927
 2849TIP3    H229963   0.524   0.413  15.776  1.4936  0.6694 -0.8514
 2850TIP3   OH229964   5.976   0.429  15.339  0.8168  0.5666 -0.1589
 2850TIP3    H129965   5.895   0.382  15.353 -1.0634  3.4223 -0.6380
 2850TIP3    H229966   6.018   0.432  15.425  0.9160 -1.6489 -0.0820
 2851TIP3   OH229967   3.353   4.422   4.454 -0.4223 -0.2300  0.1351
 2851TIP3    H129968   3.263   4.453   4.447 -0.8273 -1.1459  1.0076
 2851TIP3    H229969   3.398   4.491   4.503 -0.9273 -0.2889  0.6907
 2852TIP3   OH229970   6.381   0.122   3.611 -0.4487  0.5733 -0.2900
 2852TIP3    H129971   6.360   0.052   3.550 -2.4000  0.7992  0.0447
 2852TIP3    H229972   6.296   0.154   3.641  0.4252  0.9897  1.9629
 2853TIP3   OH229973   4.432   6.598   5.138  0.4153  0.0680 -0.8455
 2853TIP3    H129974   4.470   6.613   5.225 -0.0441  0.2645 -0.6760
 2853TIP3    H229975   4.459   6.509   5.115 -0.8774 -0.6483  0.2377
 2854TIP3   OH229976   0.809   1.688  12.154  0.2114 -0.0548  0.2262
 2854TIP3    H129977   0.774   1.705  12.067  2.1078  1.1057 -0.3548
 2854TIP3    H229978   0.787   1.596  12.170 -1.8802  0.2314 -0.6031
 2855TIP3   OH229979   1.897   0.075  16.228 -0.1189 -0.1113 -0.3121
 2855TIP3    H129980   1.880   0.038  16.314 -0.6367 -0.1622 -0.4348
 2855TIP3    H229981   1.811   0.100  16.194  0.0365 -0.4500 -0.9780
 2856TIP3   OH229982   4.821   0.927  16.927 -0.3928 -0.5375  0.2504
 2856TIP3    H129983   4.852   0.856  16.984  0.2110 -0.2038  0.3528
 2856TIP3    H229984   4.862   0.910  16.842  0.0674 -0.1064  0.3789
 2857TIP3   OH229985   3.146   4.695   0.318 -0.1169 -0.3354  0.0870
 2857TIP3    H129986   3.237   4.722   0.311 -0.3877  0.4456 -0.5195
 2857TIP3    H229987   3.104   4.765   0.368 -0.7681  0.2820 -1.2767
 2858TIP3   OH229988   1.420   2.518   0.435  0.1702 -0.0417 -0.0955
 2858TIP3    H129989   1.437   2.536   0.343 -0.1918 -2.3885 -0.6820
 2858TIP3    H229990   1.325   2.522   0.444  0.0395 -1.8855 -0.3497
 2859TIP3   OH229991   6.591   0.713   1.089 -0.0953  1.0343 -0.1487
 2859TIP3    H129992   6.678   0.723   1.127 -0.8072  1.6297  1.4304
 2859TIP3    H229993   6.537   0.680   1.162 -1.0181 -0.1127 -1.3057
 2860TIP3   OH229994   6.548   3.361   4.970 -0.6549 -0.6112  0.4396
 2860TIP3    H129995   6.464   3.384   5.012  0.3256  0.8067  1.7679
 2860TIP3    H229996   6.531   3.279   4.925 -2.9734  0.0251  0.0097
 2861TIP3   OH229997   5.229   0.829  11.940  0.4830  0.3310 -0.4200
 2861TIP3    H129998   5.247   0.800  11.851 -1.0888  0.9856 -0.9772
 2861TIP3    H229999   5.152   0.778  11.967 -0.2167  1.4775 -0.1559
 2862TIP3   OH230000   4.284   1.087   4.338  0.1161 -0.1453 -0.6768
 2862TIP3    H130001   4.316   1.176   4.349  0.3097 -0.3596  0.8127
 2862TIP3    H230002   4.364   1.033   4.338 -0.0781 -0.4561  0.3331
 2863TIP3   OH230003   6.660   2.848   1.978  0.3050 -0.4074 -0.5563
 2863TIP3    H130004   6.657   2.783   1.908  1.3223  0.9466 -1.9305
 2863TIP3    H230005   6.705   2.804   2.050 -0.2672 -1.6579 -0.9377
 2864TIP3   OH230006   2.414   2.283  16.652  0.0335  0.4485 -0.0362
 2864TIP3    H130007   2.438   2.323  16.736 -1.6084  0.3779  0.5097
 2864TIP3    H230008   2.318   2.277  16.655  0.0020 -0.3420 -1.5673
 2865TIP3   OH230009   6.217   5.873   0.856  0.0777 -0.1446  0.1916
 2865TIP3    H130010   6.128   5.844   0.874  0.2777 -0.4061  0.7946
 2865TIP3    H230011   6.271   5.794   0.864  0.2864 -0.1280 -0.8488
 2866TIP3   OH230012   1.271   4.205   0.746 -0.1704  0.1411  0.4280
 2866TIP3    H130013   1.259   4.140   0.677 -1.9225  0.6617  0.2177
 2866TIP3    H230014   1.291   4.153   0.824 -2.6321 -0.7791  0.5203
 2867TIP3   OH230015   1.282   0.295   0.087 -0.5501 -0.3785 -0.1058
 2867TIP3    H130016   1.323   0.333   0.009 -1.1901  2.1394  0.6565
 2867TIP3    H230017   1.209   0.243   0.053 -0.7833  0.6275 -1.2188
 2868TIP3   OH230018   5.535   3.937  16.609  0.4802 -0.5694  0.0263
 2868TIP3    H130019   5.515   4.024  16.572 -0.6060 -0.0280  1.7872
 2868TIP3    H230020   5.611   3.952  16.665 -0.3548 -0.5156  1.1620
 2869TIP3   OH230021   1.846   3.198   4.557 -0.3336  0.1094 -0.4934
 2869TIP3    H130022   1.872   3.108   4.540  0.1240  0.4864 -1.9545
 2869TIP3    H230023   1.811   3.197   4.646 -1.0744 -1.6494 -0.7676
 2870TIP3   OH230024   2.273   5.132   5.188  0.5696 -0.1156 -0.3146
 2870TIP3    H130025   2.276   5.198   5.120  1.3336  0.5503  0.3419
 2870TIP3    H230026   2.180   5.113   5.200  0.2979  1.3522 -0.0209
 2871TIP3   OH230027   3.221   5.022  16.214 -0.1839  0.0068  0.0438
 2871TIP3    H130028   3.234   4.944  16.268 -1.6858  0.1070  0.6067
 2871TIP3    H230029   3.174   4.991  16.137 -0.0644  0.2302 -0.1202
 2872TIP3   OH230030   1.158   1.319  15.199  0.4220 -0.6530  0.1716
 2872TIP3    H130031   1.082   1.261  15.196 -0.7737  0.6864  2.0538
 2872TIP3    H230032   1.211   1.285  15.271 -0.3350  0.5347  1.3510
 2873TIP3   OH230033   5.854   0.033   2.313  0.0984  0.0990  0.0733
 2873TIP3    H130034   5.789   0.043   2.243  0.0558 -1.3523 -0.1263
 2873TIP3    H230035   5.938   0.049   2.269 -0.0923  1.9142  0.3183
 2874TIP3   OH230036   3.843   4.446   3.539  0.3829 -0.7512 -0.6420
 2874TIP3    H130037   3.763   4.465   3.491  0.4153  0.6898 -0.1511
 2874TIP3    H230038   3.910   4.498   3.495  0.9334 -1.4612 -0.6530
 2875TIP3   OH230039   6.485   2.333  12.873  0.2797 -0.2820 -0.5793
 2875TIP3    H130040   6.423   2.316  12.803  0.1233 -1.0898 -0.2600
 2875TIP3    H230041   6.517   2.247  12.898  0.7078  0.0368 -0.0002
 2876TIP3   OH230042   5.205   1.312   2.372  0.2303 -0.0652 -0.6187
 2876TIP3    H130043   5.239   1.340   2.457 -1.7365 -0.2031  0.2698
 2876TIP3    H230044   5.139   1.377   2.350  0.1397 -0.4928 -1.6589
 2877TIP3   OH230045   0.618   2.964   0.497  0.1725 -0.1210 -0.1367
 2877TIP3    H130046   0.570   3.029   0.548  1.0742 -0.7745  1.6510
 2877TIP3    H230047   0.705   2.960   0.538  0.1361 -2.4542 -0.1342
 2878TIP3   OH230048   2.165   0.461  17.101  0.1661  0.3105  0.7098
 2878TIP3    H130049   2.120   0.528  17.050 -0.3763  0.0472  0.8345
 2878TIP3    H230050   2.108   0.446  17.177  1.1234  0.9340  1.5766
 2879TIP3   OH230051   6.139   3.450  13.628 -0.1216 -0.6822 -0.5607
 2879TIP3    H130052   6.078   3.399  13.575 -0.7720 -0.6733  0.1629
 2879TIP3    H230053   6.084   3.490  13.696  0.8441 -1.5175  0.7448
 2880TIP3   OH230054   5.797   5.625  13.084 -0.7129 -0.6151  0.1660
 2880TIP3    H130055   5.887   5.657  13.081 -0.9421  0.0247 -0.2241
 2880TIP3    H230056   5.771   5.618  12.992 -0.6980 -1.8815  0.2409
 2881TIP3   OH230057   2.379   2.066   4.189  0.4995 -0.1203  0.1979
 2881TIP3    H130058   2.444   2.126   4.226  1.1262 -0.3223 -0.5480
 2881TIP3    H230059   2.404   2.058   4.097  0.3625 -1.4237  0.2519
 2882TIP3   OH230060   4.556   0.219  16.990  0.6198  0.1758  0.2807
 2882TIP3    H130061   4.605   0.183  17.064  1.0765  1.5366  0.6565
 2882TIP3    H230062   4.515   0.298  17.024 -0.5615 -0.0853 -0.4709
 2883TIP3   OH230063   4.097   5.857  17.327 -0.3900 -0.2477  0.3046
 2883TIP3    H130064   4.146   5.842  17.246  1.0426 -0.3716  1.1604
 2883TIP3    H230065   4.156   5.828  17.396  0.1020  3.5943  1.7094
 2884TIP3   OH230066   2.487   0.216  13.095  0.2839  0.4346 -0.0066
 2884TIP3    H130067   2.392   0.200  13.104  0.4242  0.2476  1.4985
 2884TIP3    H230068   2.522   0.132  13.065 -0.1461  0.8395 -1.7197
 2885TIP3   OH230069   1.778   3.646  14.667 -0.1048  0.1001  0.1912
 2885TIP3    H130070   1.844   3.587  14.631 -1.5110 -1.2870 -0.2371
 2885TIP3    H230071   1.746   3.601  14.745 -0.2142  0.9936  0.6775
 2886TIP3   OH230072   0.084   0.244   3.540 -0.3343 -0.1761  0.6632
 2886TIP3    H130073  -0.003   0.279   3.527 -0.3317 -0.7057 -1.0230
 2886TIP3    H230074   0.095   0.179   3.470  1.1280 -0.6513  1.2813
 2887TIP3   OH230075   5.798   2.508   1.586 -0.0829  0.4524 -0.1555
 2887TIP3    H130076   5.793   2.601   1.564 -1.0133 -0.2014 -3.2082
 2887TIP3    H230077   5.824   2.466   1.504  3.1302 -1.7820  1.8030
 2888TIP3   OH230078   2.718   2.955   2.555  0.2895 -0.2508 -0.3669
 2888TIP3    H130079   2.688   2.864   2.559 -0.1979 -0.2513 -2.5781
 2888TIP3    H230080   2.794   2.957   2.613  0.8286 -2.3169 -0.8794
 2889TIP3   OH230081   4.700   0.422   2.168 -0.7004 -0.2115 -0.0460
 2889TIP3    H130082   4.708   0.475   2.088  0.1064  1.8562  1.3009
 2889TIP3    H230083   4.749   0.342   2.149 -1.9779 -0.5436 -2.1934
 2890TIP3   OH230084   0.966   4.332  16.786  0.6317  0.5314  0.4888
 2890TIP3    H130085   0.904   4.272  16.827 -0.8563  0.9886 -0.9599
 2890TIP3    H230086   1.033   4.275  16.749 -0.3493 -0.2190 -0.1963
 2891TIP3   OH230087   5.119   3.061   5.783 -0.4962  0.1561  0.1234
 2891TIP3    H130088   5.180   2.989   5.796  0.3545  0.8326 -0.0196
 2891TIP3    H230089   5.082   3.047   5.696  1.3239  1.0807 -0.8380
 2892TIP3   OH230090   5.887   6.095   5.623  0.3823 -0.1254 -0.5493
 2892TIP3    H130091   5.821   6.026   5.619  0.8029 -0.4905 -1.6134
 2892TIP3    H230092   5.934   6.078   5.705 -1.2434  0.5439  0.5540
 2893TIP3   OH230093   5.421   4.812  17.107  0.3528  0.6975 -0.0315
 2893TIP3    H130094   5.392   4.799  17.017  0.2861  0.0314  0.0834
 2893TIP3    H230095   5.388   4.899  17.131  2.4413  1.9777 -1.4536
 2894TIP3   OH230096   4.102   6.460  15.565 -0.1617 -0.7679  0.0100
 2894TIP3    H130097   4.192   6.449  15.533  0.8070  0.3128  2.1060
 2894TIP3    H230098   4.079   6.550  15.542 -0.3074 -0.7128  0.3671
 2895TIP3   OH230099   1.821   4.812  16.872 -0.0571  0.2512  0.0906
 2895TIP3    H130100   1.861   4.726  16.865 -1.5353 -0.4725  0.3220
 2895TIP3    H230101   1.812   4.842  16.781  2.1438  1.0062  0.0644
 2896TIP3   OH230102   1.873   3.511   3.473 -0.4905 -0.4482 -0.2848
 2896TIP3    H130103   1.905   3.502   3.383 -2.0150  1.3553 -1.0703
 2896TIP3    H230104   1.779   3.523   3.464 -1.2737 -3.6486  1.8361
 2897TIP3   OH230105   0.700   4.610   3.675  0.0595  0.1021  0.2182
 2897TIP3    H130106   0.785   4.612   3.631 -0.0767  3.0076 -0.0865
 2897TIP3    H230107   0.640   4.651   3.613 -0.8125  1.3215  1.8166
 2898TIP3   OH230108   1.232   0.194   3.182 -0.7378 -0.4876  0.0855
 2898TIP3    H130109   1.274   0.177   3.098  0.1286  0.3351  0.3498
 2898TIP3    H230110   1.304   0.213   3.242 -1.4128 -0.1805  0.8106
 2899TIP3   OH230111   2.587   5.195  13.212 -0.1927  0.0164  0.1969
 2899TIP3    H130112   2.533   5.116  13.202 -0.4615  0.3104 -0.8497
 2899TIP3    H230113   2.525   5.263  13.237  0.0105 -0.0651  0.9228
 2900TIP3   OH230114   1.422   6.109  16.358 -0.2362 -0.0825 -0.6308
 2900TIP3    H130115   1.446   6.175  16.423  0.3614  0.6776 -1.5958
 2900TIP3    H230116   1.364   6.155  16.298 -2.0238 -1.1789  0.1584
 2901TIP3   OH230117   3.024   5.287  14.649  0.0278  0.2069  0.2630
 2901TIP3    H130118   3.119   5.281  14.655  0.2078  0.2232 -1.9569
 2901TIP3    H230119   2.995   5.198  14.632 -0.4914  0.0246  1.8819
 2902TIP3   OH230120   3.865   2.335  15.010  0.4021  0.2099  0.6476
 2902TIP3    H130121   3.783   2.355  14.963 -0.5600 -0.5807  1.9353
 2902TIP3    H230122   3.838   2.320  15.100  2.0414  0.2841  1.1816
 2903TIP3   OH230123   5.205   3.888  16.734  0.2889  0.0476 -0.2475
 2903TIP3    H130124   5.153   3.809  16.717  0.8591 -0.1239 -1.2780
 2903TIP3    H230125   5.281   3.879  16.676  0.8895  0.8449  0.4054
 2904TIP3   OH230126   5.011   6.729   2.912  0.1427  0.4995 -0.3509
 2904TIP3    H130127   4.927   6.740   2.867 -0.4342  0.0856  0.5889
 2904TIP3    H230128   5.062   6.806   2.886 -0.0974  0.1832 -1.8336
 2905TIP3   OH230129   1.964   6.597  13.523  0.1917 -0.0577  0.1782
 2905TIP3    H130130   2.013   6.663  13.572  0.0198 -1.1110  1.8394
 2905TIP3    H230131   2.030   6.535  13.491  0.2790  0.5001 -0.7648
 2906TIP3   OH230132   5.545   1.276   5.168  0.0101  0.2038 -0.5362
 2906TIP3    H130133   5.454   1.291   5.192  0.3758  2.0225 -0.1026
 2906TIP3    H230134   5.594   1.292   5.249  0.8842  1.7536 -1.3181
 2907TIP3   OH230135   5.383   6.336   3.779 -0.1344 -0.3663 -0.0320
 2907TIP3    H130136   5.399   6.246   3.748  1.4481  0.1634 -0.8794
 2907TIP3    H230137   5.424   6.391   3.712 -2.8204  1.0957 -0.5987
 2908TIP3   OH230138   0.406   5.205  13.204  0.2916 -0.4776  0.1346
 2908TIP3    H130139   0.311   5.200  13.208  0.2184 -0.1066 -0.9126
 2908TIP3    H230140   0.436   5.172  13.289 -0.6505 -3.6956 -0.6530
 2909TIP3   OH230141   6.296   1.497   3.265 -0.0964 -0.1190 -0.3562
 2909TIP3    H130142   6.275   1.544   3.184 -1.2125 -0.1713 -0.1089
 2909TIP3    H230143   6.348   1.422   3.236  1.1490  0.8825 -0.8180
 2910TIP3   OH230144   4.674   2.860  12.486  0.2231  0.1826  0.0325
 2910TIP3    H130145   4.658   2.945  12.527  0.0252  0.2043 -0.0905
 2910TIP3    H230146   4.587   2.820  12.476  0.4170 -0.5997  1.2854
 2911TIP3   OH230147   4.115   3.102  14.105 -0.2099 -0.5690  0.2758
 2911TIP3    H130148   4.117   3.018  14.059  1.0061 -0.8865  0.8715
 2911TIP3    H230149   4.145   3.165  14.040 -0.6234 -0.6564 -0.0130
 2912TIP3   OH230150   2.798   5.207   1.743  0.1417  0.1822 -0.1349
 2912TIP3    H130151   2.731   5.209   1.811  1.6497 -1.0663  1.4920
 2912TIP3    H230152   2.864   5.270   1.774  1.3041 -1.1197  0.1148
 2913TIP3   OH230153   0.816   3.276   0.884  0.0741  0.3981 -0.4012
 2913TIP3    H130154   0.774   3.242   0.964 -0.5061  2.8266  0.4017
 2913TIP3    H230155   0.909   3.255   0.895 -0.1944 -0.5881  0.1842
 2914TIP3   OH230156   4.023   0.306  12.337  0.6694 -0.0256 -0.2117
 2914TIP3    H130157   3.983   0.231  12.382 -1.1645  1.3779  0.6060
 2914TIP3    H230158   4.115   0.303  12.365  0.2366 -0.9126  1.2960
 2915TIP3   OH230159   3.280   0.401   5.114  0.1872 -0.4527  0.1353
 2915TIP3    H130160   3.217   0.384   5.043  1.6400  0.1823 -1.3756
 2915TIP3    H230161   3.290   0.316   5.157 -0.5370 -0.9225 -0.5711
 2916TIP3   OH230162   4.603   2.940  12.202 -0.2583 -0.1174  0.0706
 2916TIP3    H130163   4.673   2.998  12.172 -0.9964  1.5561  1.3676
 2916TIP3    H230164   4.648   2.873  12.254  0.3673  1.7593  2.1304
 2917TIP3   OH230165   2.144   6.225  13.088  0.9433 -0.0648 -0.1260
 2917TIP3    H130166   2.202   6.259  13.020  0.7876 -1.5125 -1.0097
 2917TIP3    H230167   2.082   6.169  13.042 -1.6184  1.8794  0.6810
 2918TIP3   OH230168   5.526   2.253  12.242 -0.6168  0.4009 -0.5263
 2918TIP3    H130169   5.595   2.203  12.286 -0.5228  1.5266  0.6658
 2918TIP3    H230170   5.487   2.191  12.180  1.4820 -0.2441 -1.2737
 2919TIP3   OH230171   4.073   5.700  13.073  0.5897  0.5461 -0.4553
 2919TIP3    H130172   4.017   5.777  13.079 -0.2654  0.0942 -1.9207
 2919TIP3    H230173   4.115   5.694  13.158  0.5234  2.5002 -0.2420
 2920TIP3   OH230174   0.368   4.577  15.758 -0.3699 -0.2795  0.2052
 2920TIP3    H130175   0.276   4.596  15.776  0.1640  0.3700  2.7052
 2920TIP3    H230176   0.393   4.638  15.689 -1.9797 -1.0441 -1.1138
 2921TIP3   OH230177   3.159   0.449  14.954  0.6391  0.3464  0.2806
 2921TIP3    H130178   3.108   0.524  14.985  0.3149 -0.1235  0.9066
 2921TIP3    H230179   3.192   0.408  15.034 -1.2415 -1.6262  0.1446
 2922TIP3   OH230180   1.139   3.145  11.612  0.8599  0.0112 -0.1956
 2922TIP3    H130181   1.096   3.167  11.529  0.1645 -0.9104 -0.0926
 2922TIP3    H230182   1.129   3.225  11.665 -0.8401 -0.1872 -0.1474
 2923TIP3   OH230183   6.524   3.992   2.216  1.0178 -0.3037  0.1341
 2923TIP3    H130184   6.584   4.066   2.206 -0.3070  0.9148  0.8346
 2923TIP3    H230185   6.439   4.027   2.189  0.3782 -1.5972  0.4162
 2924TIP3   OH230186   0.164   5.088   3.485 -0.4274 -0.3744  0.1798
 2924TIP3    H130187   0.135   5.119   3.399  1.2921  0.8669  0.0051
 2924TIP3    H230188   0.223   5.016   3.466 -0.2110 -0.2362  0.3209
 2925TIP3   OH230189   2.677   0.547   5.437  0.4309  0.0592 -0.2557
 2925TIP3    H130190   2.646   0.637   5.445 -1.3143 -0.5300  0.0417
 2925TIP3    H230191   2.618   0.507   5.373  0.8260 -1.0290  0.0356
 2926TIP3   OH230192   0.454   0.259   1.409  0.6518  0.0932 -0.2058
 2926TIP3    H130193   0.425   0.168   1.414  1.0404  0.0008  0.5484
 2926TIP3    H230194   0.544   0.253   1.375 -0.0555  0.3562 -2.2528
 2927TIP3   OH230195   1.952   1.694   5.284  0.0143  0.5576  0.0160
 2927TIP3    H130196   1.865   1.707   5.246 -0.0229  0.5644  0.1042
 2927TIP3    H230197   2.005   1.664   5.210 -0.4626 -1.0950  0.3027
 2928TIP3   OH230198   2.707   0.368   5.669  0.3565  0.1827 -0.4659
 2928TIP3    H130199   2.616   0.369   5.700  0.1888  0.2714 -0.9536
 2928TIP3    H230200   2.715   0.447   5.617  0.7158  0.1723 -0.4253
 2929TIP3   OH230201   5.147   4.702  17.369  0.3298  0.8524 -0.1936
 2929TIP3    H130202   5.061   4.672  17.399  0.6771 -1.3258 -1.2157
 2929TIP3    H230203   5.128   4.746  17.286  0.3462 -1.4780 -1.5128
 2930TIP3   OH230204   0.713   2.959   1.688  0.2900 -0.5346  0.1231
 2930TIP3    H130205   0.677   3.008   1.615 -0.6046  0.9332  1.4717
 2930TIP3    H230206   0.804   2.988   1.695 -0.0118  0.3666  0.4204
 2931TIP3   OH230207   2.742   5.905  17.238 -0.3697 -0.3087 -0.1850
 2931TIP3    H130208   2.811   5.972  17.237  0.9007 -1.5175  1.5127
 2931TIP3    H230209   2.726   5.886  17.146  0.5910  0.9631 -0.6492
 2932TIP3   OH230210   0.040   5.073   1.173 -0.6778  0.1763  0.0294
 2932TIP3    H130211   0.016   5.064   1.080  1.5236  1.3553 -0.7308
 2932TIP3    H230212   0.006   5.159   1.198 -1.1622 -0.0896  0.3114
 2933TIP3   OH230213   3.449   0.117   3.123 -0.2223 -0.5359 -0.5070
 2933TIP3    H130214   3.359   0.115   3.091 -0.2517 -1.0766 -0.4089
 2933TIP3    H230215   3.498   0.161   3.054 -0.6719  0.3780 -0.2594
 2934TIP3   OH230216   6.718   4.372  14.644 -0.6002  0.3872 -0.7539
 2934TIP3    H130217   6.638   4.419  14.622 -0.4835 -0.3095 -2.9381
 2934TIP3    H230218   6.697   4.280  14.632  0.4491  0.1804 -1.1718
 2935TIP3   OH230219   3.917   3.848  12.110  0.3438  0.0224  0.0820
 2935TIP3    H130220   3.856   3.919  12.092  0.4704  0.0978 -0.0527
 2935TIP3    H230221   3.989   3.889  12.158 -0.1511 -0.2425  1.0696
 2936TIP3   OH230222   2.376   3.252  16.680 -0.1948  0.1612  0.3482
 2936TIP3    H130223   2.301   3.204  16.645  1.4687 -1.0780 -1.7432
 2936TIP3    H230224   2.404   3.308  16.608  0.8503  0.6473  1.1108
 2937TIP3   OH230225   2.031   4.267   2.890 -0.2499 -0.3475  0.4180
 2937TIP3    H130226   2.098   4.199   2.891  1.4277  1.1900 -0.1843
 2937TIP3    H230227   2.030   4.299   2.800 -0.6609  0.7123  0.7760
 2938TIP3   OH230228   2.235   1.145   3.367 -0.1676 -0.9110 -0.0567
 2938TIP3    H130229   2.312   1.176   3.416  0.2200 -1.5947 -0.2180
 2938TIP3    H230230   2.261   1.058   3.335 -0.9069 -1.0237 -0.3555
 2939TIP3   OH230231   2.180   5.339  10.682  0.1267 -0.1130 -0.2913
 2939TIP3    H130232   2.203   5.252  10.713 -0.6608  0.2321  1.4013
 2939TIP3    H230233   2.086   5.333  10.661  0.5350 -0.2113 -2.2900
 2940TIP3   OH230234   3.797   3.525   3.516  0.2516 -0.3664 -0.0473
 2940TIP3    H130235   3.822   3.559   3.430 -0.1299  1.2226  0.4497
 2940TIP3    H230236   3.792   3.430   3.503 -1.4331 -0.0589 -2.2145
 2941TIP3   OH230237   6.112   3.789   4.707  0.1545 -0.1044  0.5671
 2941TIP3    H130238   6.118   3.876   4.668  2.6091  0.0577  1.1782
 2941TIP3    H230239   6.171   3.735   4.654  2.4456 -0.2033  3.0307
 2942TIP3   OH230240   6.520   2.599  12.790 -0.1563  0.8718  0.0246
 2942TIP3    H130241   6.521   2.506  12.813 -1.1860  1.0434  0.8223
 2942TIP3    H230242   6.497   2.601  12.697  0.0715  0.3290 -0.0466
 2943TIP3   OH230243   1.344   1.543  11.857  0.5005  0.0273  0.0478
 2943TIP3    H130244   1.371   1.486  11.786 -1.7306 -0.5730 -0.4004
 2943TIP3    H230245   1.313   1.623  11.813 -0.3653 -0.1282  0.3456
 2944TIP3   OH230246   5.028   3.373   5.700  0.3218 -0.3302  0.0422
 2944TIP3    H130247   5.105   3.417   5.734  0.8709 -0.5604 -0.8755
 2944TIP3    H230248   4.993   3.324   5.775  0.4260  0.6386  0.7407
 2945TIP3   OH230249   2.279   2.015   5.586  0.4001 -0.0393 -0.1995
 2945TIP3    H130250   2.280   1.922   5.564  3.0690  0.1227 -1.2447
 2945TIP3    H230251   2.205   2.026   5.645 -0.9881 -2.4893 -1.3547
 2946TIP3   OH230252   1.905   5.427  13.707 -0.0201  0.6087 -0.0427
 2946TIP3    H130253   1.867   5.484  13.773 -1.7670  0.0946 -0.5508
 2946TIP3    H230254   1.946   5.356  13.757  2.4243  2.3498  0.6078
 2947TIP3   OH230255   3.540   6.184  14.629  0.2641  0.2713  0.0743
 2947TIP3    H130256   3.474   6.118  14.611  0.8174  0.3307 -2.4530
 2947TIP3    H230257   3.615   6.135  14.663  0.1641 -0.2169 -0.4116
 2948TIP3   OH230258   0.093   2.574  15.496 -0.0242  0.0666  0.1617
 2948TIP3    H130259   0.002   2.545  15.500  0.3634 -1.0975  1.5923
 2948TIP3    H230260   0.100   2.640  15.565  0.1057  0.4844 -0.2503
 2949TIP3   OH230261   6.696   2.968  11.395  0.1876  0.4248  0.7551
 2949TIP3    H130262   6.713   2.879  11.426  1.6196  0.8385  1.2566
 2949TIP3    H230263   6.687   2.959  11.300 -3.0118 -0.6789  1.0471
 2950TIP3   OH230264   5.510   3.351  13.813  0.2034  0.0999 -0.4594
 2950TIP3    H130265   5.560   3.306  13.745  1.5774 -0.8790  1.1359
 2950TIP3    H230266   5.425   3.306  13.814  1.4994 -2.5389  1.0238
 2951TIP3   OH230267   5.898   3.044  16.497  0.7000 -0.2660  0.6068
 2951TIP3    H130268   5.805   3.067  16.507  0.6024 -0.6970  0.7301
 2951TIP3    H230269   5.931   3.107  16.434  0.4894  0.3225  1.0799
 2952TIP3   OH230270   5.530   6.622   4.867 -0.1626  0.1836 -0.0459
 2952TIP3    H130271   5.548   6.627   4.961  0.0767  1.3676 -0.1387
 2952TIP3    H230272   5.454   6.680   4.854  0.8284  1.3651 -0.8073
 2953TIP3   OH230273   3.854   4.641  16.593 -0.1836  0.3282  0.1573
 2953TIP3    H130274   3.938   4.630  16.549 -0.5594  0.9677 -0.7552
 2953TIP3    H230275   3.863   4.723  16.642  0.1147 -0.2056  1.0211
 2954TIP3   OH230276   2.239   0.234   5.972  0.7114 -0.6945  0.4715
 2954TIP3    H130277   2.299   0.204   6.040  0.0133 -2.6940  0.2876
 2954TIP3    H230278   2.211   0.154   5.928  0.2661  0.4542 -1.4457
 2955TIP3   OH230279   0.987   3.619  17.101  0.0577  0.0894  0.3737
 2955TIP3    H130280   0.981   3.552  17.033  1.4837 -0.5371  0.8235
 2955TIP3    H230281   0.901   3.662  17.101 -1.1920 -2.2588  0.6108
 2956TIP3   OH230282   4.900   1.630   4.469  0.0696  0.7101 -0.4504
 2956TIP3    H130283   4.875   1.646   4.560 -0.5379 -0.2826 -0.4263
 2956TIP3    H230284   4.985   1.587   4.474 -0.5693 -0.6109 -0.2464
 2957TIP3   OH230285   0.894   0.389   0.828 -0.1362  0.1850  0.3004
 2957TIP3    H130286   0.901   0.299   0.796 -0.6354 -0.3079  1.5200
 2957TIP3    H230287   0.982   0.425   0.816  0.4758 -0.9558  1.1856
 2958TIP3   OH230288   3.662   0.038   6.183 -0.4050  0.5471  0.0613
 2958TIP3    H130289   3.571   0.063   6.170 -0.5233  1.3835  2.1652
 2958TIP3    H230290   3.659  -0.030   6.251  0.5551  1.0319  0.6114
 2959TIP3   OH230291   0.190   5.441   4.803 -0.2958 -0.0771 -0.1830
 2959TIP3    H130292   0.178   5.512   4.867  2.1019 -0.5044  0.8685
 2959TIP3    H230293   0.282   5.448   4.777 -0.2406 -2.2165 -0.7658
 2960TIP3   OH230294   4.464   1.863   1.318  0.4328  0.2811 -0.3295
 2960TIP3    H130295   4.399   1.924   1.283  1.3352  1.6847  0.3751
 2960TIP3    H230296   4.471   1.886   1.411  0.7092 -1.0023 -0.0035
 2961TIP3   OH230297   4.660   2.076   0.390  0.1270 -0.6535  0.2423
 2961TIP3    H130298   4.736   2.045   0.440  0.2896 -0.6807 -0.0192
 2961TIP3    H230299   4.587   2.024   0.424  0.1262 -0.2435  0.8759
 2962TIP3   OH230300   0.558   4.355   5.854  0.0870 -0.2122  0.3335
 2962TIP3    H130301   0.564   4.442   5.814  0.1413 -0.3929 -0.0512
 2962TIP3    H230302   0.470   4.353   5.892  0.0927  0.0207  0.3628
 2963TIP3   OH230303   4.036   6.101   0.825 -0.0054  0.3491 -0.3959
 2963TIP3    H130304   4.118   6.110   0.873  0.3766 -0.4898 -0.8682
 2963TIP3    H230305   3.969   6.095   0.894  0.4976 -0.4932  0.0422
 2964TIP3   OH230306   1.735   5.873  16.852  0.2999 -0.1117  0.4040
 2964TIP3    H130307   1.773   5.920  16.777  1.5710 -1.6598  0.0358
 2964TIP3    H230308   1.716   5.942  16.916  1.5768  0.9709 -0.3253
 2965TIP3   OH230309   1.212   3.810   1.850 -0.4574  0.2448  0.3114
 2965TIP3    H130310   1.272   3.862   1.903  0.1834 -2.3694  2.4141
 2965TIP3    H230311   1.132   3.806   1.901 -0.8595  0.0508 -0.3246
 2966TIP3   OH230312   3.205   2.791  16.089  0.5607 -0.5323  0.5814
 2966TIP3    H130313   3.294   2.819  16.069  0.2375 -0.0268 -0.1881
 2966TIP3    H230314   3.210   2.757  16.179  1.2396  0.7776  1.0674
 2967TIP3   OH230315   2.702   6.711   0.547  0.4203 -0.3749  0.5088
 2967TIP3    H130316   2.618   6.670   0.529  1.2996 -2.0886  0.1098
 2967TIP3    H230317   2.740   6.727   0.460  0.5212  0.3800  0.6845
 2968TIP3   OH230318   0.548   4.111  14.029 -0.3687 -0.0781  0.2106
 2968TIP3    H130319   0.504   4.107  14.114 -1.1362 -0.0695 -0.1800
 2968TIP3    H230320   0.639   4.089  14.049 -0.6992 -0.8880  0.9183
 2969TIP3   OH230321   6.234   5.514  14.072 -1.0156  0.1149  0.2052
 2969TIP3    H130322   6.240   5.435  14.018  0.3819 -0.8155  1.6238
 2969TIP3    H230323   6.141   5.537  14.071 -1.5205 -1.7566 -0.0070
 2970TIP3   OH230324   4.907   4.407   2.330 -0.4798 -0.1225  0.5570
 2970TIP3    H130325   4.990   4.402   2.282 -1.0717 -0.8591 -0.4174
 2970TIP3    H230326   4.851   4.342   2.288 -1.7838  0.8383  0.7617
 2971TIP3   OH230327   4.705   0.749  10.455 -0.4037 -0.1334  0.0734
 2971TIP3    H130328   4.763   0.824  10.459  1.9470 -1.7297 -1.5252
 2971TIP3    H230329   4.739   0.689  10.522 -1.4129 -0.3543  0.4071
 2972TIP3   OH230330   0.663   3.188   1.524 -0.3108  0.2503 -0.4904
 2972TIP3    H130331   0.668   3.275   1.565  0.9346 -0.7916  1.8033
 2972TIP3    H230332   0.750   3.174   1.488 -0.7653  0.2685 -1.6219
 2973TIP3   OH230333   3.198   2.613  12.342  0.3921  0.4537  0.6629
 2973TIP3    H130334   3.221   2.694  12.297 -0.3054  0.2576 -0.0795
 2973TIP3    H230335   3.118   2.583  12.298  2.0146 -1.9932 -0.8847
 2974TIP3   OH230336   0.883   1.004  16.086 -0.1640  0.0810 -0.0665
 2974TIP3    H130337   0.795   1.008  16.124 -0.8231 -1.3971 -1.3748
 2974TIP3    H230338   0.869   0.987  15.993  1.4840  1.4260 -0.6097
 2975TIP3   OH230339   2.985   6.040  17.240  0.4390  0.2407  0.6521
 2975TIP3    H130340   3.074   6.070  17.256  1.5224 -1.2664 -1.9350
 2975TIP3    H230341   2.980   6.028  17.145 -1.5552 -2.5474  0.9836
 2976TIP3   OH230342   1.402   5.637  13.708  0.5264 -0.5104  0.0989
 2976TIP3    H130343   1.456   5.717  13.706  1.0626 -0.8291 -2.4420
 2976TIP3    H230344   1.395   5.612  13.616 -2.7419 -1.3518  0.4620
 2977TIP3   OH230345   4.632   1.326   2.053  0.2584  0.8552  0.3345
 2977TIP3    H130346   4.611   1.376   1.973 -1.2506  1.9678  1.3561
 2977TIP3    H230347   4.708   1.273   2.029 -0.7334  0.4049 -2.1418
 2978TIP3   OH230348   0.092   4.816   2.090 -0.1539  0.0640 -0.2386
 2978TIP3    H130349   0.144   4.867   2.153 -0.5683 -0.5505  0.6206
 2978TIP3    H230350   0.094   4.727   2.125  0.0576 -0.3982 -1.4000
 2979TIP3   OH230351   5.284   5.992  11.033 -0.1984 -0.0496  0.3236
 2979TIP3    H130352   5.290   6.005  10.939  1.7425  1.7186  0.6106
 2979TIP3    H230353   5.219   6.056  11.062 -1.8710 -1.5698  0.0818
 2980TIP3   OH230354   3.886   6.203  16.392  0.3070 -0.8113  0.1480
 2980TIP3    H130355   3.812   6.143  16.395 -0.3181 -0.2790 -2.1749
 2980TIP3    H230356   3.847   6.286  16.364  1.6757 -0.3079 -0.3226
 2981TIP3   OH230357   6.721   3.655  16.340  0.7554 -0.7823  0.4113
 2981TIP3    H130358   6.627   3.670  16.349  0.9361  0.1027  0.9238
 2981TIP3    H230359   6.741   3.682  16.251  1.0420  2.0649  1.2423
 2982TIP3   OH230360   0.712   1.841  16.124 -0.3267 -0.5371 -0.6470
 2982TIP3    H130361   0.793   1.861  16.172  0.5096 -1.0030 -1.8076
 2982TIP3    H230362   0.687   1.924  16.083  0.6521 -0.7929 -1.8273
 2983TIP3   OH230363   3.997   6.135   1.142 -0.4204 -0.5778  0.4121
 2983TIP3    H130364   3.912   6.179   1.146  0.4327  1.0661  1.2581
 2983TIP3    H230365   4.054   6.196   1.096  0.5632 -1.2252  0.7477
 2984TIP3   OH230366   0.465   6.514  14.099 -0.3318  0.5959 -0.2476
 2984TIP3    H130367   0.425   6.600  14.093 -2.5445 -0.2563  1.0612
 2984TIP3    H230368   0.404   6.455  14.055 -0.9331 -0.8282  2.2426
 2985TIP3   OH230369   5.144   0.016   1.011  0.3717  0.3049 -0.2461
 2985TIP3    H130370   5.194   0.096   1.026  0.9953 -0.1406  0.0445
 2985TIP3    H230371   5.052   0.044   1.017  0.5775  1.0706 -0.5284
 2986TIP3   OH230372   0.453   4.184  13.379  0.6524  0.1622  0.2528
 2986TIP3    H130373   0.406   4.101  13.387  1.4608 -0.2206  1.2878
 2986TIP3    H230374   0.537   4.160  13.340  0.6419  0.5862 -0.0278
 2987TIP3   OH230375   4.553   5.226  16.120 -0.1809  0.3368  0.1278
 2987TIP3    H130376   4.490   5.296  16.105  0.2265  0.4403 -1.2793
 2987TIP3    H230377   4.540   5.166  16.046  0.3329 -0.4143  0.6386
 2988TIP3   OH230378   1.135   0.338   1.398 -0.7547 -0.4435  0.0678
 2988TIP3    H130379   1.048   0.378   1.389 -0.5402  0.4941  1.6414
 2988TIP3    H230380   1.191   0.388   1.339 -0.7998  0.6632  0.9154
 2989TIP3   OH230381   4.210   0.506   2.359  0.3148 -0.1989 -0.1847
 2989TIP3    H130382   4.180   0.440   2.296  0.7382 -0.2897 -0.3018
 2989TIP3    H230383   4.131   0.540   2.399  0.1260 -1.7434  0.8551
 2990TIP3   OH230384   0.429   4.327   5.054 -0.7005  1.1828  0.1215
 2990TIP3    H130385   0.414   4.254   4.993  1.6954  0.0927  0.7183
 2990TIP3    H230386   0.489   4.385   5.008  0.5828  0.7031  1.1421
 2991TIP3   OH230387   6.487   5.775  11.956 -0.0476  0.0392 -1.0144
 2991TIP3    H130388   6.444   5.692  11.937 -0.4157  0.0087 -0.1264
 2991TIP3    H230389   6.430   5.841  11.917 -1.1284  0.0211  0.4406
 2992TIP3   OH230390   6.009   1.687  17.312  0.2757  0.2331 -0.0808
 2992TIP3    H130391   6.018   1.664  17.405  2.2190 -0.0995 -0.3103
 2992TIP3    H230392   5.964   1.771  17.312  0.3474  0.2899  1.1652
 2993TIP3   OH230393   5.827   5.142  11.770  0.0994 -0.1347 -0.0158
 2993TIP3    H130394   5.896   5.161  11.706 -1.1273  0.8205 -1.1184
 2993TIP3    H230395   5.868   5.084  11.834  1.8737  0.3055 -0.7067
 2994TIP3   OH230396   0.920   6.141   5.346 -0.2865 -0.3808  0.3451
 2994TIP3    H130397   0.961   6.073   5.399 -2.4671 -2.0217  0.0665
 2994TIP3    H230398   0.952   6.126   5.257  0.6492  0.1640  0.5722
 2995TIP3   OH230399   3.139   1.354  12.323 -0.0025  0.6072 -0.4522
 2995TIP3    H130400   3.166   1.268  12.354  2.0990 -0.0778 -3.6202
 2995TIP3    H230401   3.053   1.339  12.284 -0.6869  0.5172  1.0370
 2996TIP3   OH230402   6.338   0.377   2.191 -0.4953 -0.3630 -0.5431
 2996TIP3    H130403   6.389   0.455   2.212  0.0118 -1.1417  1.3962
 2996TIP3    H230404   6.259   0.385   2.243  0.2036 -1.7665  0.8172
 2997TIP3   OH230405   1.054   6.475  17.050 -0.2100 -0.3411  0.4767
 2997TIP3    H130406   0.966   6.511  17.062 -0.3425 -0.9902  1.5528
 2997TIP3    H230407   1.041   6.394  17.002 -0.2555 -0.6953  1.0810
 2998TIP3   OH230408   0.064   0.741   0.218  0.0314  0.1941  0.2881
 2998TIP3    H130409  -0.009   0.705   0.267 -0.5620 -0.1200 -0.7961
 2998TIP3    H230410   0.140   0.728   0.275 -0.9567  2.0096  2.1356
 2999TIP3   OH230411   0.897   5.490   3.502 -0.0577  0.1028  0.0308
 2999TIP3    H130412   0.847   5.409   3.496  0.2228 -0.0256 -0.7514
 2999TIP3    H230413   0.983   5.463   3.533 -0.0806  0.1488  0.1338
 3000TIP3   OH230414   0.658   1.041  15.259 -0.5403  0.0291 -0.4434
 3000TIP3    H130415   0.706   1.120  15.234 -1.7649  0.8126 -0.3586
 3000TIP3    H230416   0.640   1.053  15.353  0.4633 -1.0037 -0.0915
 3001TIP3   OH230417   0.416   5.706  12.728 -0.2445  0.2477 -0.3284
 3001TIP3    H130418   0.502   5.747  12.732 -0.2141  0.2021 -0.4931
 3001TIP3    H230419   0.402   5.670  12.816 -0.2124  0.4922 -0.2234
 3002TIP3   OH230420   6.604   0.459  14.601 -0.9582  0.3240  0.2798
 3002TIP3    H130421   6.576   0.369  14.618  0.3391 -0.0908  0.3753
 3002TIP3    H230422   6.631   0.459  14.509 -2.3837  1.0305 -0.1648
 3003TIP3   OH230423   5.939   6.716   0.024 -0.0730 -0.2121 -0.4934
 3003TIP3    H130424   5.974   6.783   0.083 -0.6815  1.1841 -1.6657
 3003TIP3    H230425   5.992   6.639   0.043 -0.0950  0.2387  1.7041
 3004TIP3   OH230426   5.770   5.248   4.293  0.0379  0.1408 -0.1254
 3004TIP3    H130427   5.749   5.275   4.382  1.9133  0.9237  0.1222
 3004TIP3    H230428   5.704   5.292   4.239 -3.0922 -2.7782  0.9940
 3005TIP3   OH230429   1.746   5.986   3.403 -0.1831  0.0361 -0.3326
 3005TIP3    H130430   1.805   5.923   3.446 -0.3507 -1.6426 -2.3763
 3005TIP3    H230431   1.660   5.945   3.407 -0.9965  1.7697  1.2742
 3006TIP3   OH230432   6.663   1.005  14.285 -0.0806 -0.5592 -0.1838
 3006TIP3    H130433   6.685   0.944  14.355 -0.0535 -0.7080 -0.3188
 3006TIP3    H230434   6.697   0.963  14.206 -0.4308 -0.5622 -0.3336
 3007TIP3   OH230435   3.467   6.665  14.993 -0.2334 -0.3568  0.4894
 3007TIP3    H130436   3.484   6.595  15.057  1.6924 -0.6055 -0.2233
 3007TIP3    H230437   3.388   6.636  14.947 -0.2121 -1.4152  1.0695
 3008TIP3   OH230438   6.043   0.395  12.766 -0.3121 -0.6373  0.2567
 3008TIP3    H130439   5.975   0.392  12.699 -0.9082 -0.6528  0.8488
 3008TIP3    H230440   5.998   0.427  12.844  0.6773  0.7967  0.2824
 3009TIP3   OH230441   3.054   5.713   1.011  0.0500  0.3213 -0.4047
 3009TIP3    H130442   3.001   5.656   0.957 -1.6384  0.8877  0.5683
 3009TIP3    H230443   3.110   5.654   1.061  0.2907 -0.2956 -1.3845
 3010TIP3   OH230444   4.917   0.058   0.282  0.0062  0.4700  0.3732
 3010TIP3    H130445   4.833   0.058   0.234 -0.0010 -2.8626  0.0987
 3010TIP3    H230446   4.928   0.148   0.312 -4.7709  0.7124  2.3112
 3011TIP3   OH230447   1.915   0.982  14.224  0.1860  0.1717  0.3076
 3011TIP3    H130448   1.964   1.053  14.182  3.1162 -2.6979 -1.5709
 3011TIP3    H230449   1.847   0.959  14.161  1.2626 -0.6661 -0.6047
 3012TIP3   OH230450   4.269   4.253  12.125  0.0988  0.0440 -0.2922
 3012TIP3    H130451   4.358   4.243  12.094  1.0448  1.5887  1.6801
 3012TIP3    H230452   4.220   4.284  12.048  1.5718  0.5619 -1.0578
 3013TIP3   OH230453   4.163   3.696  17.067 -0.4020  0.0635 -0.5966
 3013TIP3    H130454   4.105   3.663  17.135  0.7553 -0.4567  0.1681
 3013TIP3    H230455   4.106   3.712  16.992 -1.9660  2.0080  0.8980
 3014TIP3   OH230456   0.131   4.938  16.182  0.1469  1.0078  0.3304
 3014TIP3    H130457   0.096   4.988  16.256  0.1614  0.2364  0.8679
 3014TIP3    H230458   0.216   4.905  16.213  0.5198  1.3265 -0.3145
 3015TIP3   OH230459   3.678   1.241  15.573 -0.2736 -0.0193  0.1927
 3015TIP3    H130460   3.721   1.281  15.498 -1.5759  0.5444 -0.2692
 3015TIP3    H230461   3.604   1.193  15.536 -1.3866  0.8905  1.1695
 3016TIP3   OH230462   0.211   4.443  11.822  0.0109  0.5765 -0.0639
 3016TIP3    H130463   0.125   4.421  11.860 -0.1392  0.9037 -0.2120
 3016TIP3    H230464   0.252   4.498  11.889 -0.4228  1.5071 -0.5353
 3017TIP3   OH230465   4.406   5.010   4.698  0.0692  0.2147  0.1275
 3017TIP3    H130466   4.454   5.023   4.779  1.0814 -0.0380 -0.4232
 3017TIP3    H230467   4.314   5.001   4.726  0.4813 -0.5610  1.2978
 3018TIP3   OH230468   1.505   1.314   6.822  0.4957 -0.0107  0.2907
 3018TIP3    H130469   1.525   1.317   6.729 -0.5777 -0.9006  0.0043
 3018TIP3    H230470   1.494   1.220   6.841 -2.1885  0.2867  0.6251
 3019TIP3   OH230471   0.188   1.700   4.866 -0.3537 -0.2858  0.1127
 3019TIP3    H130472   0.176   1.726   4.774  0.8128 -0.3718 -0.0746
 3019TIP3    H230473   0.206   1.782   4.912 -0.6251 -0.2833  0.2192
 3020TIP3   OH230474   5.722   4.525   4.544  0.5473  0.1005  0.1162
 3020TIP3    H130475   5.777   4.449   4.529  3.3331  1.5226  2.1256
 3020TIP3    H230476   5.677   4.507   4.627 -0.5700 -0.2142 -0.5262
 3021TIP3   OH230477   1.337   3.098  13.681  0.2113 -0.6739 -0.0903
 3021TIP3    H130478   1.322   3.092  13.775 -0.7832 -0.3458 -0.2182
 3021TIP3    H230479   1.382   3.182  13.669  0.0643 -0.5743  0.0558
 3022TIP3   OH230480   1.652   5.621  16.795 -0.3949 -0.7321  0.2341
 3022TIP3    H130481   1.659   5.712  16.825 -1.8536 -1.0248  1.5811
 3022TIP3    H230482   1.612   5.627  16.708 -2.6042 -0.1374  1.2231
 3023TIP3   OH230483   6.073   2.236   5.117  0.6721  0.1153 -0.1223
 3023TIP3    H130484   6.010   2.248   5.046  1.0273  0.0315 -0.4524
 3023TIP3    H230485   6.058   2.146   5.147 -1.2697  0.9269  1.6565
 3024TIP3   OH230486   1.521   6.271   4.030 -0.1082  0.1595 -0.4747
 3024TIP3    H130487   1.530   6.196   3.972  1.7753  0.1968 -0.2894
 3024TIP3    H230488   1.569   6.246   4.109 -0.3980  1.1295  0.0258
 3025TIP3   OH230489   3.141   2.808   2.208  0.0676 -0.2304 -0.2033
 3025TIP3    H130490   3.168   2.753   2.135  1.3436  0.0448  0.0313
 3025TIP3    H230491   3.062   2.767   2.242  1.1408 -2.1008  0.1513
 3026TIP3   OH230492   2.879   0.233   3.275  0.1839  0.1445  0.1571
 3026TIP3    H130493   2.799   0.259   3.230  1.4594  1.5318 -1.4840
 3026TIP3    H230494   2.945   0.229   3.205  1.2583 -2.4123  1.2013
 3027TIP3   OH230495   4.882   5.915   1.569 -0.1924  0.2020  0.9772
 3027TIP3    H130496   4.905   5.931   1.477 -2.1299  1.7338  0.7010
 3027TIP3    H230497   4.927   5.833   1.591  1.1235  0.3191 -1.0122
 3028TIP3   OH230498   0.474   6.150   1.415 -0.0027  0.2269 -0.3989
 3028TIP3    H130499   0.464   6.098   1.335 -0.6203 -0.9297  0.4146
 3028TIP3    H230500   0.391   6.197   1.424 -0.1672 -0.1217 -0.1021
 3029TIP3   OH230501   4.964   6.422   1.840 -0.2216  0.5861  0.5708
 3029TIP3    H130502   5.029   6.358   1.869  0.3224 -0.6625 -2.9566
 3029TIP3    H230503   4.898   6.421   1.909  1.6558 -0.8525  2.5079
 3030TIP3   OH230504   1.220   6.615  14.892 -0.2907  0.1690 -0.4888
 3030TIP3    H130505   1.203   6.656  14.807 -0.5396  1.4156  0.1299
 3030TIP3    H230506   1.137   6.623  14.939  0.6007  2.0971  0.8872
 3031TIP3   OH230507   6.472   6.363   0.044 -0.5193 -0.2517  0.5263
 3031TIP3    H130508   6.542   6.303   0.070 -0.4586 -0.2148  0.4470
 3031TIP3    H230509   6.436   6.324  -0.036  0.9254  0.9240 -0.7568
 3032TIP3   OH230510   0.476   6.432   2.292 -0.1864  0.1147  0.1561
 3032TIP3    H130511   0.526   6.429   2.211  0.4145  0.4881  0.5054
 3032TIP3    H230512   0.424   6.512   2.284  0.3501  0.4959  0.4064
 3033TIP3   OH230513   3.708   2.840  16.282  0.0380  0.3800 -0.0462
 3033TIP3    H130514   3.694   2.866  16.191  0.5903  0.1454 -0.2053
 3033TIP3    H230515   3.782   2.894  16.311 -0.8069  1.2264  0.6057
 3034TIP3   OH230516   2.717   5.800   2.252  0.4040  0.0413  0.2747
 3034TIP3    H130517   2.698   5.875   2.308 -3.2319 -0.9086  0.5261
 3034TIP3    H230518   2.697   5.723   2.307  1.2348 -1.0500 -0.8889
 3035TIP3   OH230519   3.833   0.098   2.803 -0.1406  0.4692  0.0772
 3035TIP3    H130520   3.900   0.050   2.754  0.7497 -0.7261  2.3466
 3035TIP3    H230521   3.864   0.189   2.802  1.9772 -0.1476  1.6244
 3036TIP3   OH230522   2.329   3.080  15.520  0.1539  0.1163 -0.3202
 3036TIP3    H130523   2.367   3.113  15.438  0.4247  1.2334  0.2452
 3036TIP3    H230524   2.234   3.084  15.505  0.1459  1.8056 -0.0433
 3037TIP3   OH230525   0.466   6.729   4.163  0.5083  0.0067  0.0561
 3037TIP3    H130526   0.544   6.761   4.209  0.5644  0.1651 -0.1501
 3037TIP3    H230527   0.397   6.790   4.189  0.6731  0.4557 -0.5449
 3038TIP3   OH230528   2.017   3.651  16.932 -0.0832 -0.2536 -0.1862
 3038TIP3    H130529   1.956   3.652  16.858  1.2346  1.3017 -1.3191
 3038TIP3    H230530   1.985   3.719  16.990  0.1123  0.0273 -0.4030
 3039TIP3   OH230531   3.779   0.429  12.854  0.1636 -0.1174  0.5868
 3039TIP3    H130532   3.833   0.441  12.775 -1.4823  1.7991 -0.3324
 3039TIP3    H230533   3.690   0.420  12.821 -0.3241 -1.4725  2.1640
 3040TIP3   OH230534   3.257   4.326  16.876  0.2246 -0.5792  0.5566
 3040TIP3    H130535   3.282   4.407  16.832  1.7894 -0.3606  1.7686
 3040TIP3    H230536   3.178   4.349  16.925 -0.3291 -0.2809 -0.4375
 3041TIP3   OH230537   4.609   0.894   1.588 -0.2057 -0.0221  0.1772
 3041TIP3    H130538   4.704   0.883   1.592 -0.2648 -0.4297  0.4486
 3041TIP3    H230539   4.576   0.850   1.666 -0.7095 -0.9301 -0.5183
 3042TIP3   OH230540   0.717   3.944   3.444  0.2000  0.4575 -0.3386
 3042TIP3    H130541   0.756   3.857   3.444  1.4020  0.9653 -0.6615
 3042TIP3    H230542   0.730   3.976   3.355 -0.8201  0.7272 -0.4040
 3043TIP3   OH230543   1.325   4.605  15.263  0.0311 -0.6486 -0.0936
 3043TIP3    H130544   1.289   4.649  15.186  1.9085 -0.4109 -0.8966
 3043TIP3    H230545   1.254   4.549  15.294 -2.0494  1.9890  0.2625
 3044TIP3   OH230546   6.223   1.153   2.430 -0.2056  0.2492 -0.0312
 3044TIP3    H130547   6.159   1.108   2.375 -0.8001  0.0373  0.8300
 3044TIP3    H230548   6.267   1.214   2.369 -0.9548  0.1323 -0.7093
 3045TIP3   OH230549   1.252   2.791   5.125  0.0722 -0.2627 -0.2991
 3045TIP3    H130550   1.303   2.843   5.187 -0.0847 -0.5948  0.1123
 3045TIP3    H230551   1.171   2.771   5.171  0.5278 -1.7087 -0.0724
 3046TIP3   OH230552   2.309   1.805   3.439 -0.1788 -0.1111 -0.5444
 3046TIP3    H130553   2.337   1.805   3.347  0.5850 -0.2773 -0.3252
 3046TIP3    H230554   2.271   1.718   3.452 -0.0845 -0.1687 -0.6473
 3047TIP3   OH230555   4.359   1.374   5.281 -0.0934  0.0535 -0.0472
 3047TIP3    H130556   4.448   1.339   5.284  0.1567  0.6098 -0.8205
 3047TIP3    H230557   4.330   1.372   5.372  0.7763  0.0316  0.2390
 3048TIP3   OH230558   5.512   0.598   2.781  1.0772  0.7950 -0.0060
 3048TIP3    H130559   5.511   0.644   2.698 -0.4117  1.9942  0.6379
 3048TIP3    H230560   5.428   0.619   2.822  1.0333 -1.1745  1.0530
 3049TIP3   OH230561   0.832   4.400  13.399 -0.1509  0.2023  0.3198
 3049TIP3    H130562   0.840   4.490  13.368 -1.1178  0.4785  0.8083
 3049TIP3    H230563   0.814   4.409  13.493 -1.3736 -0.4382  0.1703
 3050TIP3   OH230564   6.700   1.517   0.770  0.2344 -0.7573  0.1181
 3050TIP3    H130565   6.781   1.566   0.759 -0.2824 -0.1327 -1.0803
 3050TIP3    H230566   6.633   1.583   0.787 -0.5354 -0.9469 -1.8867
 3051TIP3   OH230567   3.150   5.639   1.677  0.5501  0.1440  0.0430
 3051TIP3    H130568   3.176   5.731   1.679 -1.3772  0.7603 -0.6315
 3051TIP3    H230569   3.206   5.599   1.610  1.8568  0.6545  0.8101
 3052TIP3   OH230570   5.477   6.115   5.358 -0.1670  0.0043  0.2730
 3052TIP3    H130571   5.481   6.037   5.413  0.3424  0.8447  1.4801
 3052TIP3    H230572   5.499   6.084   5.270 -1.0274 -1.3815  0.5125
 3053TIP3   OH230573   1.307   1.811   1.591  0.2772  0.1674 -0.0851
 3053TIP3    H130574   1.297   1.812   1.686  0.1457  0.5833 -0.1016
 3053TIP3    H230575   1.219   1.827   1.558  0.1506 -0.8946 -0.2919
 3054TIP3   OH230576   2.354   5.706  11.670  0.1817 -0.5340  0.1950
 3054TIP3    H130577   2.349   5.625  11.619 -0.0665 -1.6514  1.9275
 3054TIP3    H230578   2.267   5.715  11.710 -0.3349  1.4714 -1.1900
 3055TIP3   OH230579   6.105   3.845  11.405  0.3201 -0.5005  0.1395
 3055TIP3    H130580   6.020   3.887  11.391 -0.9021 -2.6967  0.5129
 3055TIP3    H230581   6.168   3.917  11.405 -1.6609  1.3291  0.9626
 3056TIP3   OH230582   3.522   1.222  13.926 -0.9421 -0.3214  0.6075
 3056TIP3    H130583   3.492   1.184  13.843  1.9920 -2.0592  0.2051
 3056TIP3    H230584   3.448   1.210  13.986 -2.4085 -0.8268 -1.2045
 3057TIP3   OH230585   0.439   2.704  13.935 -0.1613 -0.1328 -0.5542
 3057TIP3    H130586   0.344   2.692  13.929 -0.2584 -0.6107  1.2497
 3057TIP3    H230587   0.451   2.799  13.933 -0.4718 -0.0957 -2.7540
 3058TIP3   OH230588   6.629   2.108   2.861 -0.8794  0.2068  0.1259
 3058TIP3    H130589   6.554   2.063   2.898 -1.0873 -0.8333 -1.4503
 3058TIP3    H230590   6.599   2.139   2.776  0.6480 -0.8861 -0.8789
 3059TIP3   OH230591   3.523   3.221   0.694 -0.4289 -0.0996  0.5943
 3059TIP3    H130592   3.512   3.316   0.692 -2.4180 -0.3054  0.1370
 3059TIP3    H230593   3.563   3.203   0.779 -2.7108  0.9254  1.9546
 3060TIP3   OH230594   0.488   5.845   1.354  0.4044  0.3721  0.4680
 3060TIP3    H130595   0.461   5.757   1.378 -1.1268  1.3179  2.5594
 3060TIP3    H230596   0.433   5.869   1.280  0.9529 -0.4436 -0.2261
 3061TIP3   OH230597   1.675   5.965   4.812 -0.0564  0.0144 -0.6145
 3061TIP3    H130598   1.622   6.043   4.798  0.0098 -0.2299 -2.3374
 3061TIP3    H230599   1.654   5.938   4.902 -2.1240  0.4424 -0.9262
 3062TIP3   OH230600   5.737   2.770  16.693  0.2531  0.1752 -0.0557
 3062TIP3    H130601   5.770   2.860  16.691  0.6696  0.0350 -2.8603
 3062TIP3    H230602   5.645   2.778  16.669  0.5925 -0.2182 -1.5520
 3063TIP3   OH230603   0.249   1.894  14.033 -0.0743  0.7482  0.6065
 3063TIP3    H130604   0.262   1.989  14.035 -0.7640  0.8867 -0.5900
 3063TIP3    H230605   0.333   1.859  14.006 -0.1106  1.1080 -0.0005
 3064TIP3   OH230606   6.670   4.688   3.708 -0.3254  0.0138 -0.4738
 3064TIP3    H130607   6.623   4.607   3.691  0.0169 -0.6284  1.3924
 3064TIP3    H230608   6.762   4.664   3.700 -0.2359  0.4200 -0.6965
 3065TIP3   OH230609   0.013   4.828   3.401  0.3121  0.1237  0.4146
 3065TIP3    H130610  -0.021   4.854   3.315 -0.1556  1.2815  0.9352
 3065TIP3    H230611   0.058   4.745   3.384  2.8624  1.7391 -1.5637
 3066TIP3   OH230612   1.960   4.896  12.897  0.1827 -0.0079  0.6887
 3066TIP3    H130613   2.023   4.895  12.969  0.0290  0.8309  0.8424
 3066TIP3    H230614   2.009   4.864  12.821  0.7199  0.3964  0.8625
 3067TIP3   OH230615   3.851   3.241  11.951  0.8465  0.6781 -0.6620
 3067TIP3    H130616   3.907   3.254  12.027 -1.6370 -0.8168  1.6166
 3067TIP3    H230617   3.854   3.325  11.904  2.2661  1.7557  1.2334
 3068TIP3   OH230618   2.007   2.444   5.653  0.1052  0.8050 -0.0499
 3068TIP3    H130619   2.080   2.505   5.644  3.3124 -2.4441  1.5314
 3068TIP3    H230620   1.988   2.443   5.746 -0.4173 -0.0618 -0.1552
 3069TIP3   OH230621   3.318   0.086  16.621 -0.2253  0.0331  0.3824
 3069TIP3    H130622   3.351   0.063  16.534  2.4032 -1.6685  1.6990
 3069TIP3    H230623   3.252   0.019  16.640 -0.5684  0.2140 -0.1484
 3070TIP3   OH230624   5.637   4.660  11.578  0.0252 -0.4139  0.0665
 3070TIP3    H130625   5.688   4.580  11.587 -1.0446 -0.9234  2.4407
 3070TIP3    H230626   5.575   4.641  11.508  1.1981 -0.8195 -0.8944
 3071TIP3   OH230627   4.142   3.200  17.249  0.4272 -0.1530 -0.4989
 3071TIP3    H130628   4.120   3.241  17.165  0.4593 -0.2566 -0.5575
 3071TIP3    H230629   4.078   3.130  17.259  0.2599  0.0240 -0.3157
 3072TIP3   OH230630   2.616   6.511   1.296 -1.2055 -0.2093  0.3914
 3072TIP3    H130631   2.600   6.461   1.216 -0.5607  1.0157 -0.5495
 3072TIP3    H230632   2.536   6.563   1.308 -0.4132  1.3704 -0.8419
 3073TIP3   OH230633   4.211   1.872   3.488 -0.6656 -0.2638  0.4153
 3073TIP3    H130634   4.272   1.939   3.519 -3.5340  1.7482  2.1928
 3073TIP3    H230635   4.183   1.827   3.567 -1.3288 -1.2768 -0.3800
 3074TIP3   OH230636   0.866   1.256  14.926  0.3006 -0.0193  0.1947
 3074TIP3    H130637   0.845   1.199  14.852 -0.6817 -2.3644  2.1440
 3074TIP3    H230638   0.962   1.262  14.926  0.3527 -0.6879 -0.7393
 3075TIP3   OH230639   3.597   0.470   5.065  1.1780  0.3687  0.5049
 3075TIP3    H130640   3.521   0.412   5.060  1.1940  0.3074  0.9254
 3075TIP3    H230641   3.583   0.521   5.145  0.9925  1.1859 -0.0284
 3076TIP3   OH230642   2.593   5.799  14.050  0.5860 -0.2067  0.0244
 3076TIP3    H130643   2.543   5.777  14.128  1.2851 -1.6711  0.1013
 3076TIP3    H230644   2.533   5.784  13.977  0.6495 -1.1571  0.1590
 3077TIP3   OH230645   4.141   5.742   2.692 -0.4471 -0.7550  0.3045
 3077TIP3    H130646   4.054   5.707   2.706 -1.5982  0.9127 -1.9614
 3077TIP3    H230647   4.179   5.687   2.623 -0.4847 -0.3309 -0.0623
 3078TIP3   OH230648   0.148   5.381  16.204 -0.0442  0.3875 -0.0767
 3078TIP3    H130649   0.103   5.461  16.231 -0.2383  0.7572 -1.4399
 3078TIP3    H230650   0.208   5.408  16.135 -0.1234 -0.6382 -0.5727
 3079TIP3   OH230651   1.381   6.482  15.294  0.1989 -0.4972  0.0627
 3079TIP3    H130652   1.468   6.515  15.315  0.5577 -0.0049 -2.0520
 3079TIP3    H230653   1.321   6.550  15.327  0.6403 -0.4605  0.8024
 3080TIP3   OH230654   0.522   3.976  14.414 -0.6301  0.4389  0.0087
 3080TIP3    H130655   0.589   3.963  14.481 -0.4323 -0.5459 -0.3607
 3080TIP3    H230656   0.548   3.917  14.343 -2.1701 -0.3522  0.0611
 3081TIP3   OH230657   2.558   5.696   0.201 -0.0724 -0.2210  1.0353
 3081TIP3    H130658   2.533   5.645   0.278  0.5451  0.6587  1.8489
 3081TIP3    H230659   2.527   5.785   0.220 -0.6986 -0.1729 -0.1352
 3082TIP3   OH230660   4.554   4.268   3.822  0.1971  0.6068 -0.2648
 3082TIP3    H130661   4.512   4.187   3.850  2.1740 -0.5089 -0.3657
 3082TIP3    H230662   4.579   4.252   3.731 -0.6892  1.9053 -0.7687
 3083TIP3   OH230663   5.434   0.798  13.622  0.7033  0.5156 -0.3975
 3083TIP3    H130664   5.365   0.738  13.592  2.0441 -0.7367 -1.1368
 3083TIP3    H230665   5.415   0.880  13.578  0.4537 -0.2077 -1.6903
 3084TIP3   OH230666   4.545   6.341   4.692  0.3950 -0.1289 -0.6749
 3084TIP3    H130667   4.610   6.405   4.718  0.8212 -0.7194 -0.2508
 3084TIP3    H230668   4.490   6.328   4.769  1.1383 -1.2506 -0.3011
 3085TIP3   OH230669   2.977   5.577   4.122  0.3292  0.2612  0.3999
 3085TIP3    H130670   2.898   5.547   4.167  0.7107  0.2030  1.0350
 3085TIP3    H230671   2.946   5.648   4.065 -0.4171 -0.6899 -0.4108
 3086TIP3   OH230672   4.230   4.461   5.340 -0.4873  0.3311  0.3752
 3086TIP3    H130673   4.251   4.499   5.255  0.7344 -0.8730  0.0964
 3086TIP3    H230674   4.301   4.490   5.397 -1.2026  0.9774  0.9537
 3087TIP3   OH230675   1.814   2.667  14.229  0.0690 -0.2346  0.3630
 3087TIP3    H130676   1.828   2.734  14.295  1.6848 -0.0492 -0.1258
 3087TIP3    H230677   1.834   2.711  14.146  2.1710 -1.5501  0.1123
 3088TIP3   OH230678   2.954   4.434   3.228  0.1457 -0.1881 -0.2461
 3088TIP3    H130679   2.902   4.354   3.240  1.6480 -1.1618  0.1397
 3088TIP3    H230680   2.932   4.463   3.139 -2.4865  0.5772  0.5818
 3089TIP3   OH230681   6.348   0.204   1.610 -0.2132 -0.5567 -0.1286
 3089TIP3    H130682   6.307   0.256   1.680  0.3736 -2.2393  1.5583
 3089TIP3    H230683   6.429   0.251   1.591 -0.4462  0.0058  0.2381
 3090TIP3   OH230684   4.130   4.671   1.897  0.1284  0.6421 -0.1554
 3090TIP3    H130685   4.090   4.645   1.814  0.4587  0.0056 -0.1263
 3090TIP3    H230686   4.187   4.745   1.875  2.3374 -1.1914 -1.0663
 3091TIP3   OH230687   4.967   2.128   5.660  0.0634  0.2787 -0.0477
 3091TIP3    H130688   4.891   2.069   5.658  0.5020 -0.2918 -0.4395
 3091TIP3    H230689   5.006   2.114   5.746  0.3215 -0.2208 -0.2377
 3092TIP3   OH230690   4.809   0.204  15.850 -0.1080  0.0948  0.0920
 3092TIP3    H130691   4.780   0.215  15.940 -0.2850 -1.6114  0.2838
 3092TIP3    H230692   4.745   0.253  15.798 -0.8782 -0.1423  0.7945
 3093TIP3   OH230693   4.396   0.247   4.788  0.2432  0.2161  0.1215
 3093TIP3    H130694   4.349   0.325   4.759 -1.7601 -1.1647 -0.5871
 3093TIP3    H230695   4.460   0.231   4.718 -0.8743 -0.0141 -0.8918
 3094TIP3   OH230696   3.132   4.984  15.087 -0.2808  0.2030  0.5367
 3094TIP3    H130697   3.073   5.027  15.149  0.4487  0.7235  0.8921
 3094TIP3    H230698   3.217   5.026  15.103 -0.0437  0.2041 -0.6840
 3095TIP3   OH230699   2.375   2.886   1.325  0.6918 -0.4953  0.0545
 3095TIP3    H130700   2.405   2.808   1.278  1.3947 -0.2481  0.0873
 3095TIP3    H230701   2.294   2.911   1.281  1.5171 -0.0621 -1.2528
 3096TIP3   OH230702   4.165   2.993   3.120 -0.7999  0.2123 -0.2992
 3096TIP3    H130703   4.250   2.977   3.080  0.1002  2.4736  0.5474
 3096TIP3    H230704   4.125   2.906   3.127  0.8049 -0.7489 -2.0166
 3097TIP3   OH230705   3.105   3.147   4.326  0.0480 -0.1019  0.3038
 3097TIP3    H130706   3.121   3.156   4.420 -1.9159 -0.6532  0.7274
 3097TIP3    H230707   3.099   3.237   4.294  1.7167  0.1116  0.4723
 3098TIP3   OH230708   0.616   4.929   5.080  0.2271  0.2466 -0.3170
 3098TIP3    H130709   0.542   4.869   5.076  0.6498 -0.2960 -0.1590
 3098TIP3    H230710   0.642   4.943   4.989 -1.5280  2.3131 -0.5764
 3099TIP3   OH230711   4.793   6.418   0.705 -0.0968  0.6540  0.3921
 3099TIP3    H130712   4.760   6.505   0.683 -0.4337  0.4659  0.1421
 3099TIP3    H230713   4.836   6.429   0.790 -1.4781  0.7467  1.1019
 3100TIP3   OH230714   1.625   5.900  15.779 -0.7700 -0.1337 -0.5918
 3100TIP3    H130715   1.643   5.901  15.685 -0.8649  0.6481 -0.6034
 3100TIP3    H230716   1.654   5.813  15.807  1.5131  0.4663 -0.9018
 3101TIP3   OH230717   1.069   1.088   1.011 -0.1844  0.0464 -0.2833
 3101TIP3    H130718   1.105   1.010   0.969  1.3506  0.6824 -0.2466
 3101TIP3    H230719   1.104   1.084   1.101 -0.3414  0.6071 -0.1925
 3102TIP3   OH230720   4.986   5.581  10.366  0.7416 -0.1751 -0.1393
 3102TIP3    H130721   4.970   5.632  10.445  1.5730 -1.1222  0.6780
 3102TIP3    H230722   5.081   5.590  10.352  0.7506 -0.7915 -0.4719
 3103TIP3   OH230723   5.244   3.401  15.774  0.0318  0.1119 -0.1709
 3103TIP3    H130724   5.162   3.350  15.772 -0.1709  0.3367  1.2679
 3103TIP3    H230725   5.295   3.360  15.844  1.1023  0.0672 -0.9623
 3104TIP3   OH230726   0.857   3.150  13.679  0.5670 -0.6310  0.5449
 3104TIP3    H130727   0.845   3.065  13.636  2.3238  0.3825 -2.2117
 3104TIP3    H230728   0.950   3.154  13.699  0.2892  0.1873  1.8030
 3105TIP3   OH230729   5.401   4.224   0.853 -0.4722  0.0043 -0.1700
 3105TIP3    H130730   5.457   4.212   0.776 -0.6534  1.3378 -0.5321
 3105TIP3    H230731   5.383   4.135   0.884  1.3699 -0.4728 -0.3764
 3106TIP3   OH230732   2.113   4.928  14.402  0.5202  0.8366 -0.4536
 3106TIP3    H130733   2.170   4.907  14.476 -0.5624 -0.0670  0.1623
 3106TIP3    H230734   2.043   4.981  14.441 -0.2377  0.0730 -0.7379
 3107TIP3   OH230735   5.592   5.683  16.006  0.0811  0.0923  0.3935
 3107TIP3    H130736   5.609   5.730  16.088 -0.1379  1.9963 -0.5913
 3107TIP3    H230737   5.679   5.674  15.966  0.3227 -1.6565  1.1787
 3108TIP3   OH230738   5.343   2.582  17.115  0.7993 -0.1426 -0.6081
 3108TIP3    H130739   5.321   2.674  17.096  1.9900 -0.0739 -1.7934
 3108TIP3    H230740   5.284   2.531  17.059  0.0328 -0.1130  0.1640
 3109TIP3   OH230741   4.761   5.603  13.657  0.2094 -0.3220 -0.2163
 3109TIP3    H130742   4.846   5.559  13.655 -0.0178 -0.9145  1.6577
 3109TIP3    H230743   4.769   5.672  13.592  1.5708 -1.3414 -1.2063
 3110TIP3   OH230744   0.193   5.420   0.448  0.8565 -0.4511 -0.1616
 3110TIP3    H130745   0.259   5.443   0.513  0.3624  0.0943  0.1537
 3110TIP3    H230746   0.240   5.420   0.364  1.8553 -2.6223  0.3178
 3111TIP3   OH230747   5.458   3.180   2.740  0.4359  0.3652  0.5724
 3111TIP3    H130748   5.386   3.224   2.785 -0.3261 -1.0949  0.8241
 3111TIP3    H230749   5.447   3.204   2.648  0.2422  0.9699  0.7526
 3112TIP3   OH230750   6.069   2.011  12.888 -0.0971  0.3968  0.0653
 3112TIP3    H130751   6.097   2.067  12.960 -0.6535  0.4368  0.2546
 3112TIP3    H230752   6.057   1.925  12.928 -2.1395  0.7973  0.4284
 3113TIP3   OH230753   6.108   1.550  13.093  0.0704 -0.4684 -0.7753
 3113TIP3    H130754   6.043   1.512  13.033  0.2556 -0.5457 -0.9282
 3113TIP3    H230755   6.191   1.541  13.046  0.3967 -1.5831 -0.0307
 3114TIP3   OH230756   6.468   3.579   2.832 -0.1077 -0.3332 -0.1611
 3114TIP3    H130757   6.454   3.661   2.879 -0.9204  0.0142 -0.9839
 3114TIP3    H230758   6.386   3.563   2.786  0.5258 -0.8536 -1.1655
 3115TIP3   OH230759   2.766   4.954   2.155  0.0815 -0.1572  0.3943
 3115TIP3    H130760   2.783   4.879   2.098  2.0928  0.0849  0.5975
 3115TIP3    H230761   2.718   4.916   2.229 -1.2911 -0.7245 -0.7311
 3116TIP3   OH230762   4.786   5.396  16.853 -0.3733  0.1432 -0.6498
 3116TIP3    H130763   4.804   5.437  16.768 -0.2779  0.7853 -0.3321
 3116TIP3    H230764   4.717   5.333  16.835 -0.3208  0.2383 -1.2158
 3117TIP3   OH230765   2.862   3.420  12.761  0.3021  0.0634  0.4459
 3117TIP3    H130766   2.798   3.458  12.822 -0.2239 -0.1259  0.0194
 3117TIP3    H230767   2.854   3.326  12.773 -0.1145  0.0058 -0.2116
 3118TIP3   OH230768   6.566   4.364  16.343  0.5967  0.0444  0.0910
 3118TIP3    H130769   6.541   4.305  16.414  0.9241 -0.5410 -0.2736
 3118TIP3    H230770   6.495   4.429  16.339 -0.0279 -0.6196  0.1654
 3119TIP3   OH230771   3.882   5.567   0.041  0.2359  0.1400 -0.6778
 3119TIP3    H130772   3.798   5.521   0.036 -0.4161  0.9504  1.6082
 3119TIP3    H230773   3.871   5.642  -0.018 -0.4150 -0.0979 -0.8778
 3120TIP3   OH230774   6.441   4.974  12.671  0.5723 -0.1261  0.3004
 3120TIP3    H130775   6.500   4.916  12.719  2.0064  1.0189 -0.0226
 3120TIP3    H230776   6.442   5.056  12.721 -0.2909  0.1112 -0.0477
 3121TIP3   OH230777   4.025   5.298   3.980  0.3863  0.1011  0.1282
 3121TIP3    H130778   4.071   5.359   3.921  0.2348 -0.8914 -1.0541
 3121TIP3    H230779   3.935   5.329   3.980  0.5762  0.6721  0.6067
 3122TIP3   OH230780   2.344   4.153  13.342  0.0319 -0.1696  0.5510
 3122TIP3    H130781   2.413   4.088  13.356  1.8522  1.5394 -0.1116
 3122TIP3    H230782   2.387   4.225  13.296 -1.3797  2.4458  3.0014
 3123TIP3   OH230783   2.078   1.874   2.370 -0.0954  0.0189  0.4549
 3123TIP3    H130784   2.068   1.938   2.300 -0.0112 -0.7904 -0.3105
 3123TIP3    H230785   2.172   1.876   2.390  0.1509 -0.8485 -0.5361
 3124TIP3   OH230786   4.666   4.090  17.173  0.0257  0.2599  0.5779
 3124TIP3    H130787   4.574   4.070  17.153  0.4038  1.6137 -3.4412
 3124TIP3    H230788   4.716   4.047  17.104  2.4918 -0.2907  2.5569
 3125TIP3   OH230789   5.698   4.318   6.583  0.0527  0.2309  1.1966
 3125TIP3    H130790   5.761   4.308   6.655 -0.0665 -1.8275  1.0730
 3125TIP3    H230791   5.644   4.239   6.587  0.3408 -0.1918 -1.4040
 3126TIP3   OH230792   2.463   0.834  15.789 -0.0332 -0.3453  0.2724
 3126TIP3    H130793   2.402   0.795  15.851  0.8312 -0.8078  0.8638
 3126TIP3    H230794   2.452   0.929  15.800 -1.5533 -0.3929 -0.5741
 3127TIP3   OH230795   2.443   2.537   2.664  0.5113 -0.1346  0.7529
 3127TIP3    H130796   2.512   2.512   2.602 -0.3998 -2.1825  0.4819
 3127TIP3    H230797   2.424   2.629   2.643  1.5151 -0.2397 -0.7594
 3128TIP3   OH230798   5.410   4.556   5.643 -0.8437 -0.0132 -0.0346
 3128TIP3    H130799   5.344   4.490   5.623  0.1798 -0.8243 -0.8868
 3128TIP3    H230800   5.366   4.619   5.699 -3.2998  1.1813 -3.0142
 3129TIP3   OH230801   1.185   5.321  10.819 -0.2141 -0.1306  0.1779
 3129TIP3    H130802   1.130   5.384  10.866  0.4535 -0.1294  0.9659
 3129TIP3    H230803   1.270   5.365  10.811  0.1583 -0.7984  0.4344
 3130TIP3   OH230804   5.287   4.119   1.963  0.2486  0.1469 -0.2372
 3130TIP3    H130805   5.248   4.185   2.021  1.0441  1.2616 -0.9334
 3130TIP3    H230806   5.259   4.145   1.875  1.0938 -0.0706 -0.5799
 3131TIP3   OH230807   3.743   4.112   1.465  0.0816  0.4148 -0.2423
 3131TIP3    H130808   3.649   4.099   1.466 -0.1853  1.9673 -1.5143
 3131TIP3    H230809   3.755   4.202   1.496  1.0543  0.5955 -1.0896
 3132TIP3   OH230810   0.657   1.658  14.529  0.1155 -0.2069 -0.2918
 3132TIP3    H130811   0.692   1.744  14.506  0.3750 -0.1714  0.2090
 3132TIP3    H230812   0.734   1.604  14.546 -0.0252 -0.7453 -1.2845
 3133TIP3   OH230813   0.408   3.135   2.754  0.0468  0.0759  0.3473
 3133TIP3    H130814   0.480   3.196   2.772 -0.3279  0.3094  1.0727
 3133TIP3    H230815   0.452   3.055   2.724  0.5519  0.6405 -0.4852
 3134TIP3   OH230816   1.775   2.138  14.120 -0.5258 -0.4425  0.1616
 3134TIP3    H130817   1.690   2.134  14.164 -1.0584 -1.0530 -0.8968
 3134TIP3    H230818   1.768   2.212  14.060  0.5623  1.0399  1.7782
 3135TIP3   OH230819   4.800   2.789  16.258 -0.1969  0.6158 -0.7035
 3135TIP3    H130820   4.841   2.861  16.211 -2.1494  2.2699 -0.0511
 3135TIP3    H230821   4.802   2.715  16.197  1.6533  1.2463 -1.4805
 3136TIP3   OH230822   5.338   6.182  11.414  0.2366  0.0758  0.0714
 3136TIP3    H130823   5.424   6.226  11.414  0.2222  0.1027 -0.1296
 3136TIP3    H230824   5.313   6.178  11.322  0.0923 -0.0727  0.1178
 3137TIP3   OH230825   4.821   2.459   4.226 -0.2213  0.1202  0.0638
 3137TIP3    H130826   4.863   2.505   4.153 -2.2242  0.3525 -1.0363
 3137TIP3    H230827   4.785   2.529   4.281  1.1377 -0.0598  1.2258
 3138TIP3   OH230828   2.421   3.073   5.137 -0.8622 -0.7249 -0.1450
 3138TIP3    H130829   2.431   2.985   5.172  0.7406 -0.1495  0.9712
 3138TIP3    H230830   2.346   3.110   5.183 -1.0436 -1.2246 -0.0343
 3139TIP3   OH230831   4.007   1.667  14.570 -0.0305 -0.1662 -0.0947
 3139TIP3    H130832   4.009   1.592  14.629  1.4407 -1.8522 -2.1219
 3139TIP3    H230833   3.946   1.642  14.501  0.4757  0.4701 -0.7928
 3140TIP3   OH230834   4.829   2.235  11.790 -0.4190 -0.3884 -0.1377
 3140TIP3    H130835   4.913   2.259  11.752 -0.2433 -1.6530 -0.5977
 3140TIP3    H230836   4.765   2.253  11.720 -0.3368 -0.8749 -0.3404
 3141TIP3   OH230837   0.892   5.579  14.559 -0.0091 -0.2665  0.2117
 3141TIP3    H130838   0.808   5.613  14.528  0.5678  1.3325  0.2967
 3141TIP3    H230839   0.871   5.494  14.599 -1.2563 -0.8649 -1.5889
 3142TIP3   OH230840   2.404   1.493   5.957  0.0354  0.3494 -0.1439
 3142TIP3    H130841   2.312   1.510   5.937  0.2475  0.0540 -1.5134
 3142TIP3    H230842   2.421   1.541   6.038 -1.8526 -1.2743  1.2992
 3143TIP3   OH230843   4.604   3.582   0.934  0.2880  0.6302 -0.2365
 3143TIP3    H130844   4.587   3.518   1.003 -0.3552  3.3822  2.3656
 3143TIP3    H230845   4.567   3.543   0.855  0.4201 -2.3694  1.0433
 3144TIP3   OH230846   4.929   4.218  11.891  0.2128  0.5619  0.2665
 3144TIP3    H130847   4.873   4.142  11.907 -1.2934  1.5318 -0.2448
 3144TIP3    H230848   5.008   4.201  11.943 -0.6679 -0.7057  1.2341
 3145TIP3   OH230849   3.331   4.543   2.592 -0.5160 -0.2665 -0.0700
 3145TIP3    H130850   3.407   4.486   2.579 -1.4326 -1.7314  0.6859
 3145TIP3    H230851   3.328   4.599   2.514  0.9165 -0.6540 -0.4271
 3146TIP3   OH230852   3.917   0.544  13.430 -0.2580  0.1475 -0.7016
 3146TIP3    H130853   3.869   0.483  13.374 -1.5643  0.3786  0.0979
 3146TIP3    H230854   3.932   0.494  13.511  3.5212 -0.9426 -1.8958
 3147TIP3   OH230855   0.290   3.033   1.393 -0.3747 -0.0368  0.3326
 3147TIP3    H130856   0.252   2.950   1.423 -1.4432  0.4590  0.3928
 3147TIP3    H230857   0.223   3.071   1.337  0.6479  0.1759 -0.7961
 3148TIP3   OH230858   6.727   4.724  13.025 -0.0949 -0.1272 -0.2599
 3148TIP3    H130859   6.751   4.670  13.100 -1.1945 -2.0177 -1.2023
 3148TIP3    H230860   6.684   4.801  13.063 -1.4047 -1.4446  1.0498
 3149TIP3   OH230861   1.832   2.655   5.462 -0.3938  0.2804 -0.2146
 3149TIP3    H130862   1.818   2.667   5.556 -0.7251  2.2323 -0.4650
 3149TIP3    H230863   1.899   2.587   5.456  0.1038  0.5826  1.4670
 3150TIP3   OH230864   4.659   6.122  11.439  0.2315  0.3686  0.3898
 3150TIP3    H130865   4.627   6.123  11.348 -0.8506 -0.9500  0.7183
 3150TIP3    H230866   4.704   6.038  11.447  3.1459  1.8008  0.2117
 3151TIP3   OH230867   1.872   4.713   2.130 -0.3613 -0.0126 -0.7679
 3151TIP3    H130868   1.786   4.742   2.100  0.1268  2.3179 -0.0815
 3151TIP3    H230869   1.933   4.743   2.064  0.2759  1.5700  0.4816
 3152TIP3   OH230870   5.184   0.528   5.325 -0.7309 -0.1829 -0.5021
 3152TIP3    H130871   5.158   0.500   5.237 -1.3209  0.7695 -0.6568
 3152TIP3    H230872   5.266   0.575   5.312 -0.4915 -0.5853 -0.4508
 3153TIP3   OH230873   3.627   1.147  14.569 -0.0616 -0.1349 -0.3609
 3153TIP3    H130874   3.706   1.098  14.545 -0.2595 -1.4028  1.3952
 3153TIP3    H230875   3.625   1.145  14.664 -1.6737  0.7874 -0.3302
 3154TIP3   OH230876   4.104   2.962  11.854  0.0443  0.5046 -0.3621
 3154TIP3    H130877   4.187   2.957  11.902  1.0629  2.0490 -1.8289
 3154TIP3    H230878   4.127   3.008  11.773 -1.7494 -1.3218 -1.9928
 3155TIP3   OH230879   5.374   2.896   0.357 -0.1657  0.3270  0.1106
 3155TIP3    H130880   5.385   2.925   0.266 -0.5552  1.1003  0.3013
 3155TIP3    H230881   5.405   2.970   0.409  0.0186 -0.0979  0.6155
 3156TIP3   OH230882   4.432   5.319   6.217 -0.2825 -0.1366 -1.1162
 3156TIP3    H130883   4.348   5.331   6.262  0.2679  0.0732 -0.1278
 3156TIP3    H230884   4.448   5.403   6.174 -0.5839 -0.1817 -1.3196
 3157TIP3   OH230885   2.212   4.432   1.986 -0.1208 -0.4522 -0.1744
 3157TIP3    H130886   2.306   4.419   1.996  0.4286  0.8866 -2.6437
 3157TIP3    H230887   2.175   4.344   1.989  1.2818 -1.0450  0.2759
 3158TIP3   OH230888   5.916   6.110   0.969 -0.2503  0.0508 -0.0381
 3158TIP3    H130889   6.008   6.136   0.971 -0.0101 -0.6515 -0.9630
 3158TIP3    H230890   5.879   6.160   0.896  0.0060 -1.4519 -1.2510
 3159TIP3   OH230891   2.492   2.936   1.826  0.1512 -0.2696 -0.6204
 3159TIP3    H130892   2.519   3.022   1.859 -0.5230  0.2789 -1.4348
 3159TIP3    H230893   2.524   2.874   1.891 -0.4639  0.6978  0.6546
 3160TIP3   OH230894   6.454   0.556   4.963 -0.1818  0.5548  0.7589
 3160TIP3    H130895   6.365   0.554   4.997  0.3062 -0.2237  2.0522
 3160TIP3    H230896   6.510   0.564   5.040  0.9475 -1.0442  0.1721
 3161TIP3   OH230897   4.130   5.378   1.929  0.0859  0.2932  0.4987
 3161TIP3    H130898   4.135   5.471   1.909  1.3697  0.0844 -0.2487
 3161TIP3    H230899   4.182   5.336   1.861  1.5929 -0.7795  2.2361
 3162TIP3   OH230900   0.499   5.853   2.126  0.1309 -0.0475  0.1707
 3162TIP3    H130901   0.564   5.820   2.065 -1.7541 -1.7940 -1.0419
 3162TIP3    H230902   0.440   5.779   2.140 -2.1046  1.6650  0.4674
 3163TIP3   OH230903   1.699   3.206  11.718 -1.0670 -0.2209 -0.0855
 3163TIP3    H130904   1.683   3.244  11.805 -1.8761  1.2051 -0.8145
 3163TIP3    H230905   1.772   3.258  11.683 -0.0261 -1.4997  0.1414
 3164TIP3   OH230906   5.287   3.493  12.113  0.5781 -0.2461  0.2217
 3164TIP3    H130907   5.197   3.517  12.133  0.4080  0.1022 -0.8962
 3164TIP3    H230908   5.314   3.554  12.044  0.9303 -1.7117 -1.0109
 3165TIP3   OH230909   6.721   0.398  15.074 -0.6482 -0.0368  0.2336
 3165TIP3    H130910   6.666   0.322  15.057 -0.6592  0.0720 -0.2259
 3165TIP3    H230911   6.769   0.412  14.992  0.0812 -0.1492  0.6380
 3166TIP3   OH230912   5.461   3.747  14.311 -0.2094 -0.5994  0.8049
 3166TIP3    H130913   5.479   3.694  14.389 -0.2507  0.2236  1.3806
 3166TIP3    H230914   5.368   3.771  14.319 -1.2515 -3.3221 -1.2327
 3167TIP3   OH230915   6.198   4.634  11.557  0.1782  0.3690 -0.5316
 3167TIP3    H130916   6.247   4.554  11.576  0.0662  0.1057 -1.3250
 3167TIP3    H230917   6.226   4.658  11.469  1.6372  2.2440  0.3571
 3168TIP3   OH230918   1.356   1.148  14.426  0.0029 -0.2086 -0.5347
 3168TIP3    H130919   1.384   1.082  14.488 -0.8914  0.0716  0.1724
 3168TIP3    H230920   1.363   1.105  14.340  3.0670 -0.0275 -0.5080
 3169TIP3   OH230921   0.603   1.157  17.183 -0.0189  0.3821 -0.1002
 3169TIP3    H130922   0.542   1.085  17.169 -0.3967  0.7301 -0.2766
 3169TIP3    H230923   0.641   1.174  17.096  0.2005  0.2799 -0.0250
 3170TIP3   OH230924   1.636   3.023  13.653 -0.6782  0.1101  0.0151
 3170TIP3    H130925   1.662   2.986  13.738 -0.8670  1.1679  0.5627
 3170TIP3    H230926   1.580   3.098  13.676 -1.5227 -0.1626 -1.0767
 3171TIP3   OH230927   0.851   0.311  15.579 -0.0843  0.2195 -0.0108
 3171TIP3    H130928   0.865   0.237  15.521 -0.8198  0.2986 -0.3009
 3171TIP3    H230929   0.757   0.326  15.577 -0.1114  0.2727  1.1482
 3172TIP3   OH230930   1.529   5.966   5.894 -0.7886 -0.1828  0.7425
 3172TIP3    H130931   1.537   6.005   5.980  0.7093  0.9426  0.1304
 3172TIP3    H230932   1.436   5.946   5.885 -0.9107 -0.6417  2.7271
 3173TIP3   OH230933   3.993   3.396   0.503 -0.2171 -0.1805 -0.0092
 3173TIP3    H130934   4.085   3.404   0.528 -0.0186 -0.6121 -0.5741
 3173TIP3    H230935   3.994   3.387   0.408 -0.8526 -0.0661 -0.0355
 3174TIP3   OH230936   3.458   5.000  12.291  0.6801 -0.2002 -0.9207
 3174TIP3    H130937   3.423   4.962  12.371  2.3254 -0.1681 -0.1379
 3174TIP3    H230938   3.495   5.084  12.318 -0.0034  0.4836 -2.0070
 3175TIP3   OH230939   2.400   1.274   1.749  0.3092  0.3147  0.1444
 3175TIP3    H130940   2.487   1.286   1.785  0.3798 -0.0140  0.0873
 3175TIP3    H230941   2.347   1.343   1.789  0.7070  0.8269 -0.2015
 3176TIP3   OH230942   2.240   5.862   4.531  0.0379  0.2298 -0.5082
 3176TIP3    H130943   2.181   5.822   4.595  0.0473 -0.0936 -0.7002
 3176TIP3    H230944   2.215   5.954   4.530 -0.2668  0.1488 -0.3724
 3177TIP3   OH230945   5.838   4.365  14.569 -0.8268 -0.3329 -0.7444
 3177TIP3    H130946   5.797   4.450  14.585 -0.8128 -0.4609  0.0307
 3177TIP3    H230947   5.794   4.331  14.492  1.1647  1.6564 -2.9138
 3178TIP3   OH230948   5.311   0.889  11.306  0.3684 -0.3292 -0.2723
 3178TIP3    H130949   5.224   0.903  11.268  0.7496  0.5614 -0.8563
 3178TIP3    H230950   5.298   0.820  11.370 -1.1552  1.0113  0.9508
 3179TIP3   OH230951   0.612   1.294   3.802  0.3702  0.1884 -0.1890
 3179TIP3    H130952   0.588   1.286   3.894 -0.4202  0.9746 -0.3127
 3179TIP3    H230953   0.532   1.273   3.754 -0.1242  2.7539 -0.6204
 3180TIP3   OH230954   5.159   3.645  15.681 -0.3330  0.0628 -0.2226
 3180TIP3    H130955   5.164   3.688  15.766  1.5832  0.8088 -0.6556
 3180TIP3    H230956   5.188   3.555  15.698  1.4505  0.5799 -0.2602
 3181TIP3   OH230957   6.102   0.587   4.592  0.0014 -0.0263 -0.1168
 3181TIP3    H130958   6.083   0.642   4.668  0.1750 -1.1615  0.7710
 3181TIP3    H230959   6.056   0.505   4.609 -0.3088 -0.1477 -1.4530
 3182TIP3   OH230960   0.555   3.358   2.799  0.0115  0.4050 -0.2070
 3182TIP3    H130961   0.546   3.409   2.880  0.9347 -1.8191  1.3727
 3182TIP3    H230962   0.577   3.424   2.733  0.6725  2.1439  1.6091
 3183TIP3   OH230963   5.294   4.766   5.856 -0.4374  0.4188  0.5698
 3183TIP3    H130964   5.377   4.738   5.896  0.2619 -0.8287 -1.5769
 3183TIP3    H230965   5.234   4.774   5.929  1.4069  0.7268  2.1341
 3184TIP3   OH230966   2.121   1.903   4.689  0.0613  0.3983  0.7980
 3184TIP3    H130967   2.209   1.933   4.667  0.4697 -0.5797  1.0372
 3184TIP3    H230968   2.093   1.853   4.612 -0.3627  0.8629  0.6460
 3185TIP3   OH230969   5.503   3.308   1.072  0.1687 -0.1694  0.5713
 3185TIP3    H130970   5.511   3.343   0.983  1.4403  0.2380  0.8232
 3185TIP3    H230971   5.475   3.383   1.125  0.3665 -0.1701  0.6773
 3186TIP3   OH230972   6.009   2.320   4.662 -0.2801  0.1151 -0.3573
 3186TIP3    H130973   6.069   2.246   4.653 -0.1014 -0.0055  1.3937
 3186TIP3    H230974   5.957   2.319   4.582  0.3726 -1.3069 -0.7942
 3187TIP3   OH230975   4.955   5.236   2.147  0.1754 -0.2082  0.5641
 3187TIP3    H130976   4.863   5.259   2.158  0.1843  0.0127  0.1916
 3187TIP3    H230977   4.977   5.187   2.226 -0.5175 -1.1011  0.2174
 3188TIP3   OH230978   1.132   1.405   6.101 -0.3506  0.5027  0.3207
 3188TIP3    H130979   1.065   1.472   6.086 -0.1009  1.4943  3.1103
 3188TIP3    H230980   1.101   1.330   6.051 -1.1147  2.3503 -2.1894
 3189TIP3   OH230981   5.462   5.190   4.110 -0.0606 -0.3515  0.1737
 3189TIP3    H130982   5.519   5.134   4.058 -0.7408 -0.6609 -0.2574
 3189TIP3    H230983   5.433   5.134   4.183 -1.9506 -1.1051 -1.0738
 3190TIP3   OH230984   2.828   2.127   0.853 -0.1882  0.1795 -0.2292
 3190TIP3    H130985   2.758   2.167   0.801  0.4753 -1.1244 -2.2410
 3190TIP3    H230986   2.901   2.189   0.848  0.3118 -0.4732 -2.0403
 3191TIP3   OH230987   3.083   3.396  11.254 -0.1946  0.5630 -0.6737
 3191TIP3    H130988   3.070   3.489  11.272 -0.9819  0.7528 -2.1098
 3191TIP3    H230989   3.156   3.371  11.312 -0.0816  2.0132 -0.1394
 3192TIP3   OH230990   6.602   2.300   2.326 -0.3052 -0.5002  0.4501
 3192TIP3    H130991   6.507   2.307   2.316 -0.4141 -0.4599  1.4070
 3192TIP3    H230992   6.634   2.389   2.317 -0.3263 -0.5380 -0.0659
 3193TIP3   OH230993   4.649   1.462   6.207 -0.6767  0.0901 -0.3947
 3193TIP3    H130994   4.744   1.466   6.215 -0.8062  2.9987  1.2045
 3193TIP3    H230995   4.627   1.371   6.229  1.6832 -0.5841 -0.5237
 3194TIP3   OH230996   0.427   2.847   2.218  0.4725 -0.5560  0.3252
 3194TIP3    H130997   0.365   2.893   2.274  0.1779 -0.1819 -0.2996
 3194TIP3    H230998   0.429   2.758   2.252 -1.1195 -0.8321 -0.2129
 3195TIP3   OH230999   5.698   3.544   0.188 -0.4248  0.0358 -0.0403
 3195TIP3    H131000   5.645   3.506   0.118 -1.0775  1.9470 -0.6436
 3195TIP3    H231001   5.637   3.599   0.237  0.9457  2.3662 -0.8083
 3196TIP3   OH231002   1.351   2.877   2.812  0.3871 -0.5050 -0.2357
 3196TIP3    H131003   1.347   2.959   2.763 -0.8361 -1.2180 -1.3933
 3196TIP3    H231004   1.352   2.809   2.745 -0.0021 -1.4892  0.7176
 3197TIP3   OH231005   1.699   1.092   4.914 -0.4589  0.3923  0.6854
 3197TIP3    H131006   1.780   1.142   4.918 -0.5202  0.5622 -0.0994
 3197TIP3    H231007   1.645   1.129   4.984 -0.1597  0.8024  0.7036
 3198TIP3   OH231008   5.019   0.838  11.263 -0.4327  0.5156 -0.1980
 3198TIP3    H131009   4.984   0.845  11.175 -0.5764 -0.8949 -0.2762
 3198TIP3    H231010   4.954   0.787  11.311  0.9579 -1.2452 -0.0695
 3199TIP3   OH231011   1.446   4.511  13.642  0.4585  0.0894 -0.2227
 3199TIP3    H131012   1.508   4.449  13.679  1.2329  0.0938 -1.4596
 3199TIP3    H231013   1.361   4.483  13.675  0.9116 -1.0025  0.0456
 3200TIP3   OH231014   2.864   1.186  17.265 -0.0057  0.2746 -0.0320
 3200TIP3    H131015   2.832   1.195  17.355  0.4665 -0.4457  0.2186
 3200TIP3    H231016   2.910   1.268  17.248  0.6941  0.0500  0.7193
 3201TIP3   OH231017   3.689   1.194   4.520 -0.1206  0.1140  0.2310
 3201TIP3    H131018   3.766   1.170   4.469 -0.5080 -1.0062  0.1343
 3201TIP3    H231019   3.687   1.290   4.518 -0.5827  0.1474 -2.5826
 3202TIP3   OH231020   4.433   0.047  15.717  1.0108 -0.2250 -0.3781
 3202TIP3    H131021   4.452   0.136  15.745  0.8034  0.3405 -1.9255
 3202TIP3    H231022   4.504   0.025  15.656  1.1001 -1.1546  0.0368
 3203TIP3   OH231023   6.018   1.369  16.345 -0.1360  0.0496 -0.5219
 3203TIP3    H131024   6.088   1.394  16.406  2.0431 -3.2920 -1.4015
 3203TIP3    H231025   6.016   1.440  16.281  1.2316  1.0846  0.5133
 3204TIP3   OH231026   1.747   5.166  15.983  0.1318 -0.6587 -0.5717
 3204TIP3    H131027   1.808   5.101  15.948 -0.3770 -1.1280 -0.6036
 3204TIP3    H231028   1.749   5.238  15.920 -0.6482 -1.4219 -1.5049
 3205TIP3   OH231029   0.519   6.708  15.401 -0.2546 -0.0041  0.1224
 3205TIP3    H131030   0.517   6.613  15.394 -1.7038 -0.0699  1.1684
 3205TIP3    H231031   0.598   6.733  15.353  0.1181 -1.7145 -0.2287
 3206TIP3   OH231032   5.243   0.645   2.797 -0.5685  0.1881  0.2263
 3206TIP3    H131033   5.168   0.700   2.817  0.9160  2.1344  0.8149
 3206TIP3    H231034   5.208   0.574   2.743 -2.5163  1.9799 -0.9892
 3207TIP3   OH231035   5.867   3.811  17.321  0.1495  0.1661  0.1108
 3207TIP3    H131036   5.786   3.760  17.313 -0.1098  0.7309 -1.0592
 3207TIP3    H231037   5.852   3.889  17.267  0.6865  1.3003  1.5254
 3208TIP3   OH231038   0.104   1.858   3.476  0.4837 -0.2404 -0.1517
 3208TIP3    H131039   0.166   1.785   3.483  0.3430 -0.3182  0.3276
 3208TIP3    H231040   0.146   1.919   3.416  1.0442 -0.2829  0.1860
 3209TIP3   OH231041   0.048   5.557   4.406  0.1923  0.1839 -0.2267
 3209TIP3    H131042  -0.010   5.497   4.454  0.5488  0.1106  0.1106
 3209TIP3    H231043   0.136   5.524   4.422  0.5661  1.7992  1.4322
 3210TIP3   OH231044   4.697   0.766   5.012 -0.3237 -0.2861  0.1450
 3210TIP3    H131045   4.677   0.692   4.954 -0.9417  1.2033 -1.6694
 3210TIP3    H231046   4.743   0.828   4.955 -2.4181  1.9640  0.7588
 3211TIP3   OH231047   1.628   5.047   0.580  0.1035  0.2898  0.1078
 3211TIP3    H131048   1.688   5.083   0.514 -0.4786  1.3960  0.1510
 3211TIP3    H231049   1.635   4.952   0.570  2.3374  0.3584  0.5550
 3212TIP3   OH231050   4.037   3.597   1.692  0.2789  0.7313  0.0618
 3212TIP3    H131051   4.071   3.508   1.682 -1.2108  0.1533 -0.0999
 3212TIP3    H231052   4.066   3.643   1.613  0.8011  0.3040  0.0021
 3213TIP3   OH231053   2.925   3.617   6.240  0.0750 -0.4541 -0.6044
 3213TIP3    H131054   2.920   3.713   6.232 -0.6137 -0.5814 -1.8137
 3213TIP3    H231055   3.015   3.601   6.267 -0.0674  0.5921  0.6139
 3214TIP3   OH231056   1.473   1.729  12.788 -0.0364 -0.0549  0.5096
 3214TIP3    H131057   1.476   1.823  12.801 -1.3637  0.2533 -1.0283
 3214TIP3    H231058   1.393   1.701  12.833  0.0478 -0.3525  0.4752
 3215TIP3   OH231059   2.782   5.232   1.464  0.5118 -0.4433 -0.1991
 3215TIP3    H131060   2.726   5.301   1.429 -1.1767 -1.8547 -0.4122
 3215TIP3    H231061   2.769   5.236   1.558  0.5459 -0.3728 -0.1971
 3216TIP3   OH231062   4.838   5.124  11.498 -0.1108 -0.1698  0.4165
 3216TIP3    H131063   4.787   5.198  11.466 -2.1775 -0.8899  1.8417
 3216TIP3    H231064   4.926   5.140  11.465 -1.0139  1.6452 -1.3446
 3217TIP3   OH231065   0.334   3.480  16.282  0.2823 -0.0878 -0.2133
 3217TIP3    H131066   0.352   3.414  16.215 -0.0867  0.4863 -0.8968
 3217TIP3    H231067   0.335   3.431  16.364 -1.3491 -1.2156 -0.8143
 3218TIP3   OH231068   4.001   5.982   1.701 -0.5207 -0.4405 -0.1476
 3218TIP3    H131069   3.945   6.058   1.713  1.0713  1.0217 -1.5607
 3218TIP3    H231070   4.076   5.997   1.759  0.5321 -0.1492 -1.5427
 3219TIP3   OH231071   5.774   4.922   5.097  0.1559  0.0797  0.2918
 3219TIP3    H131072   5.793   4.916   5.191 -1.7060  1.0290  0.7791
 3219TIP3    H231073   5.681   4.944   5.093  0.2386  0.2240 -1.7887
 3220TIP3   OH231074   2.779   2.932   4.162  0.0853 -0.2204  0.3838
 3220TIP3    H131075   2.696   2.898   4.128  0.0920 -0.1219  0.2675
 3220TIP3    H231076   2.755   3.014   4.205  0.1504 -0.1005  0.1903
 3221TIP3   OH231077   6.364   2.028   5.829 -0.5472  0.2890 -0.3555
 3221TIP3    H131078   6.274   2.052   5.850 -0.8032 -0.4314 -0.5855
 3221TIP3    H231079   6.394   1.980   5.906 -0.4019  0.4193 -0.3308
 3222TIP3   OH231080   0.996   6.178   1.069  0.2778 -0.1608 -0.3415
 3222TIP3    H131081   1.028   6.126   1.143  1.2847 -0.5993 -1.0689
 3222TIP3    H231082   1.068   6.177   1.006 -0.7199 -0.1286 -1.5024
 3223TIP3   OH231083   1.424   0.410   6.160 -0.3941 -0.4338  0.6395
 3223TIP3    H131084   1.448   0.443   6.246 -4.3854  0.5644  1.5828
 3223TIP3    H231085   1.348   0.354   6.176 -1.1866 -0.3178 -2.2041
 3224TIP3   OH231086   1.701   0.605   4.852 -0.2156  0.4013 -0.1851
 3224TIP3    H131087   1.774   0.655   4.890 -0.1699 -0.1342  0.4470
 3224TIP3    H231088   1.708   0.622   4.758 -0.1589  1.5265  0.0014
 3225TIP3   OH231089   1.438   3.280  15.334 -0.6530 -0.3918  0.1528
 3225TIP3    H131090   1.492   3.355  15.358  0.4902 -1.0604 -0.2318
 3225TIP3    H231091   1.362   3.318  15.289  0.1214  0.5165 -0.4285
 3226TIP3   OH231092   5.210   2.083  14.418 -0.1558 -0.1479  0.4192
 3226TIP3    H131093   5.265   2.160  14.432 -1.1010  0.4465  1.0076
 3226TIP3    H231094   5.123   2.118  14.400 -0.1917 -1.0402 -1.4137
 3227TIP3   OH231095   4.448   3.582  14.933 -0.2766  0.2425 -0.4327
 3227TIP3    H131096   4.402   3.636  14.869  1.7357  1.2283 -1.1373
 3227TIP3    H231097   4.441   3.493  14.899 -1.9355  0.2948 -0.3075
 3228TIP3   OH231098   3.384   3.438  14.923 -0.0215 -0.2986 -0.1133
 3228TIP3    H131099   3.307   3.468  14.875  0.6273  1.5598 -0.0752
 3228TIP3    H231100   3.388   3.494  15.001  1.6355  0.0186 -0.3795
 3229TIP3   OH231101   0.739   6.271  15.468  0.6384  0.1160 -0.0280
 3229TIP3    H131102   0.747   6.366  15.476  1.4908 -0.0570  1.6237
 3229TIP3    H231103   0.658   6.257  15.419  0.5959  1.6961 -0.4386
 3230TIP3   OH231104   6.597   1.430   4.958  0.5900  0.0699  0.0721
 3230TIP3    H131105   6.661   1.470   5.017 -0.2892 -0.1152  1.2041
 3230TIP3    H231106   6.610   1.474   4.874  1.7528  0.4797  0.4516
 3231TIP3   OH231107   1.471   5.348  13.485  0.1656  0.1743 -0.5544
 3231TIP3    H131108   1.392   5.383  13.443 -0.9843 -1.7643 -0.0783
 3231TIP3    H231109   1.518   5.426  13.514 -1.3752  1.3968 -1.1766
 3232TIP3   OH231110   6.754   4.698   4.563  0.4066  0.3562 -0.4145
 3232TIP3    H131111   6.820   4.687   4.495  0.4726  2.0569 -0.6728
 3232TIP3    H231112   6.801   4.740   4.636 -0.1684  0.6955 -0.2305
 3233TIP3   OH231113   2.248   5.831   3.246 -0.2414 -0.4025  0.2665
 3233TIP3    H131114   2.303   5.752   3.247  1.0299  0.4723  0.7476
 3233TIP3    H231115   2.301   5.898   3.290 -0.2222  1.4401 -2.3740
 3234TIP3   OH231116   0.999   2.934  11.774  0.2588  0.2009  0.0279
 3234TIP3    H131117   1.021   3.021  11.741 -0.5355 -0.1498 -1.5227
 3234TIP3    H231118   1.024   2.936  11.867 -0.1728  2.2041  0.1317
 3235TIP3   OH231119   0.613   2.803   4.093 -0.3125 -0.0662 -0.3442
 3235TIP3    H131120   0.645   2.868   4.155 -0.1149 -0.3111 -0.1849
 3235TIP3    H231121   0.662   2.819   4.013 -0.3646  0.0685 -0.3499
 3236TIP3   OH231122   6.518   5.623  15.413 -0.2782 -0.0632 -0.4298
 3236TIP3    H131123   6.508   5.556  15.481  1.8240 -0.1662 -0.1655
 3236TIP3    H231124   6.428   5.645  15.388 -1.0657 -2.9154 -0.4631
 3237TIP3   OH231125   0.308   6.426   4.791 -0.3314  0.1419  0.0451
 3237TIP3    H131126   0.297   6.411   4.885 -0.6247  0.8119  0.1257
 3237TIP3    H231127   0.263   6.510   4.775 -0.8404 -0.2771 -0.8056
 3238TIP3   OH231128   3.349   6.459   2.218  0.1025  0.1844 -0.4480
 3238TIP3    H131129   3.331   6.418   2.303  1.6437 -0.5517 -0.4542
 3238TIP3    H231130   3.379   6.547   2.240 -0.0999  0.2080 -0.2647
 3239TIP3   OH231131   3.629   5.095   3.874  0.0344 -0.3690  0.0645
 3239TIP3    H131132   3.549   5.137   3.842 -1.5907 -2.3200  1.3216
 3239TIP3    H231133   3.598   5.022   3.928  2.6804 -0.7824  1.1770
 3240TIP3   OH231134   1.445   0.906  14.560 -0.5682 -0.3658  0.4160
 3240TIP3    H131135   1.486   0.895  14.475 -0.7995 -1.1097  0.3891
 3240TIP3    H231136   1.480   0.834  14.613 -1.3931 -0.6724  0.5613
 3241TIP3   OH231137   3.289   2.376  12.192 -0.1980 -0.1906 -0.0761
 3241TIP3    H131138   3.272   2.286  12.216  0.4546 -0.1506  0.5586
 3241TIP3    H231139   3.319   2.418  12.273 -0.9846  0.7268 -0.2357
 3242TIP3   OH231140   0.289   6.207  14.738 -0.5092 -0.3721  0.7469
 3242TIP3    H131141   0.296   6.296  14.705 -0.3265 -0.1502  1.3714
 3242TIP3    H231142   0.281   6.153  14.659 -0.4475  0.1746  0.3578
 3243TIP3   OH231143   6.029   0.580   2.108  0.0304 -0.4551 -0.5571
 3243TIP3    H131144   5.981   0.512   2.157 -1.4964  0.3828 -0.8224
 3243TIP3    H231145   5.980   0.590   2.027  0.6489  0.4724 -0.8317
 3244TIP3   OH231146   0.533   0.722   6.557 -0.3808  0.7437  0.1006
 3244TIP3    H131147   0.462   0.685   6.609 -0.9884  1.2128 -0.3731
 3244TIP3    H231148   0.566   0.648   6.506  2.1044 -0.3994  3.1028
 3245TIP3   OH231149   1.062   3.155  15.082  0.0537  0.7866 -0.3057
 3245TIP3    H131150   1.072   3.069  15.043  1.5986  1.3939 -1.3200
 3245TIP3    H231151   0.977   3.151  15.127  0.8495 -1.7990  1.1620
 3246TIP3   OH231152   2.597   3.689   0.403 -0.4497  0.0046  0.2716
 3246TIP3    H131153   2.595   3.688   0.308  0.6393 -0.8450  0.2477
 3246TIP3    H231154   2.593   3.782   0.426 -0.8762  0.2036 -0.5916
 3247TIP3   OH231155   5.431   4.224  16.935  0.3497 -0.0002  0.5229
 3247TIP3    H131156   5.364   4.250  16.997 -0.1606 -1.6862  0.7166
 3247TIP3    H231157   5.513   4.231  16.984  0.0864 -0.0484  0.9737
 3248TIP3   OH231158   6.151   0.079  14.642 -0.6861 -0.7853 -0.0489
 3248TIP3    H131159   6.132   0.016  14.573  0.3021 -0.5984 -0.5097
 3248TIP3    H231160   6.157   0.163  14.597  0.6370 -0.7600  0.1404
 3249TIP3   OH231161   6.654   5.796   4.465 -0.2115 -0.3307  0.1976
 3249TIP3    H131162   6.643   5.701   4.453 -1.9923 -0.0741 -0.6094
 3249TIP3    H231163   6.735   5.817   4.419 -0.6071 -1.2489 -0.9691
 3250TIP3   OH231164   4.208   5.340   0.773 -0.4417 -0.3060 -0.1606
 3250TIP3    H131165   4.162   5.411   0.728 -0.1274 -1.4135 -2.4191
 3250TIP3    H231166   4.299   5.348   0.743 -0.3530 -1.4881 -0.2552
 3251TIP3   OH231167   3.987   0.782  12.486 -0.0713 -0.7688 -0.5964
 3251TIP3    H131168   3.974   0.769  12.580 -1.9844 -3.6877 -1.1437
 3251TIP3    H231169   4.073   0.743  12.468  0.0081 -0.8073 -0.1406
 3252TIP3   OH231170   5.638   0.871   1.237 -0.6103  0.0940  0.7125
 3252TIP3    H131171   5.599   0.784   1.238 -0.5181  0.0531  1.0074
 3252TIP3    H231172   5.731   0.856   1.218 -0.8687  0.2511 -0.7508
 3253TIP3   OH231173   6.356   3.832  14.102 -0.1350  0.1266  0.2272
 3253TIP3    H131174   6.451   3.832  14.114 -0.0271 -0.0369 -0.5597
 3253TIP3    H231175   6.342   3.871  14.016 -0.6882 -1.0655 -0.2465
 3254TIP3   OH231176   4.707   4.087  11.633 -0.0212  0.0833 -0.2230
 3254TIP3    H131177   4.742   4.006  11.671 -0.7237 -0.3622 -0.5087
 3254TIP3    H231178   4.785   4.141  11.616  0.3674 -0.0500  1.0347
 3255TIP3   OH231179   4.824   1.159   0.615  0.4968  0.3227  0.4915
 3255TIP3    H131180   4.832   1.247   0.578  0.2094  0.2898  0.3442
 3255TIP3    H231181   4.912   1.122   0.607  1.2878  1.4980  2.9371
 3256TIP3   OH231182   4.571   1.441  17.179 -0.4531 -0.0287  0.0847
 3256TIP3    H131183   4.551   1.534  17.187  0.6862  0.2225  0.1643
 3256TIP3    H231184   4.493   1.403  17.139 -0.0846  1.3419 -2.0878
 3257TIP3   OH231185   5.670   6.053  14.862 -0.4149  0.1311 -0.6036
 3257TIP3    H131186   5.732   6.089  14.799 -0.0214 -0.1737 -0.3944
 3257TIP3    H231187   5.722   6.036  14.940 -1.1196  1.5914  0.2297
 3258TIP3   OH231188   0.724   3.887   2.105 -0.1066 -0.4853  0.4756
 3258TIP3    H131189   0.662   3.814   2.112 -1.5314  0.7666  1.3597
 3258TIP3    H231190   0.775   3.884   2.186 -2.0225  1.0821  1.8205
 3259TIP3   OH231191   3.343   5.229  11.784  0.3390  0.5344  0.1454
 3259TIP3    H131192   3.317   5.169  11.854  1.1703  2.0633  1.8742
 3259TIP3    H231193   3.417   5.186  11.742  1.2577  0.5129  1.6907
 3260TIP3   OH231194   6.209   3.905   2.706 -0.8601  0.2049 -0.4453
 3260TIP3    H131195   6.301   3.881   2.713 -0.5784  0.9645 -1.3671
 3260TIP3    H231196   6.178   3.862   2.627 -1.4744 -0.5451  0.1849
 3261TIP3   OH231197   4.958   1.979  15.591 -0.0806  0.1584  0.1947
 3261TIP3    H131198   4.880   2.035  15.590  0.8862  1.5659 -0.9021
 3261TIP3    H231199   4.983   1.974  15.684 -0.4118  1.2624  0.3602
 3262TIP3   OH231200   6.566   2.986   4.037  0.2710  0.2668  0.1210
 3262TIP3    H131201   6.483   2.950   4.006  0.6564 -0.4220 -0.1352
 3262TIP3    H231202   6.542   3.038   4.114 -0.6997  2.0124 -1.2820
 3263TIP3   OH231203   1.579   2.886  16.571  0.0026 -0.0619 -0.3822
 3263TIP3    H131204   1.660   2.860  16.615  0.4574  1.0288 -0.5269
 3263TIP3    H231205   1.597   2.875  16.478  0.4508  1.3382 -0.4896
 3264TIP3   OH231206   6.113   1.179   0.524  0.0383 -0.3151  0.7116
 3264TIP3    H131207   6.084   1.095   0.489 -0.0941  0.0209  0.0036
 3264TIP3    H231208   6.082   1.179   0.614  1.4459 -1.7227  1.2598
 3265TIP3   OH231209   1.197   5.855  13.179 -0.1700  0.3228 -0.8347
 3265TIP3    H131210   1.250   5.846  13.100  0.3055 -0.3840 -0.4538
 3265TIP3    H231211   1.221   5.940  13.214  0.2970  0.2530 -0.9720
 3266TIP3   OH231212   3.190   3.323  11.751  0.2519  0.2933  0.8140
 3266TIP3    H131213   3.104   3.289  11.727  1.3861 -0.9590 -1.8411
 3266TIP3    H231214   3.241   3.247  11.778  0.9230  0.8293  1.1155
 3267TIP3   OH231215   4.146   1.649  15.309  0.3772 -0.6382  0.3291
 3267TIP3    H131216   4.233   1.690  15.309  0.1346 -0.0917  1.3166
 3267TIP3    H231217   4.163   1.558  15.282  1.3121 -0.6405  0.8651
 3268TIP3   OH231218   5.417   0.546  14.674  0.2780  0.3642  0.0331
 3268TIP3    H131219   5.484   0.614  14.687 -0.4347  0.8943  1.1343
 3268TIP3    H231220   5.381   0.564  14.588  1.2296  0.3619 -0.3795
 3269TIP3   OH231221   5.281   1.607  11.485 -0.6932  0.2521  0.4382
 3269TIP3    H131222   5.264   1.546  11.557 -0.7770 -0.7019 -0.3675
 3269TIP3    H231223   5.242   1.690  11.514  0.3297  0.2260  1.9991
 3270TIP3   OH231224   2.321   0.104   3.661 -0.4284 -0.0757 -0.1561
 3270TIP3    H131225   2.317   0.013   3.633 -0.8524  0.2277 -1.1134
 3270TIP3    H231226   2.414   0.124   3.665 -0.3478 -0.3199 -0.7347
 3271TIP3   OH231227   3.890   6.358  12.963  0.0024  0.1623  0.1412
 3271TIP3    H131228   3.846   6.305  13.030  0.3173  0.6035  0.7070
 3271TIP3    H231229   3.825   6.368  12.894  0.3982 -2.1718 -0.6570
 3272TIP3   OH231230   2.329   3.665   3.075  0.4821 -0.5486  0.3818
 3272TIP3    H131231   2.280   3.622   3.005  0.3453 -0.9076  0.6975
 3272TIP3    H231232   2.263   3.689   3.140  0.5456  0.2077  0.1753
 3273TIP3   OH231233   2.232   4.710  15.095  0.0602  0.4088  0.2089
 3273TIP3    H131234   2.185   4.628  15.081 -1.6065  1.4882 -1.0013
 3273TIP3    H231235   2.162   4.776  15.100  1.3757  1.8175  0.6196
 3274TIP3   OH231236   0.638   1.248  13.053  0.5373  0.3517  0.0299
 3274TIP3    H131237   0.637   1.190  13.129 -1.4187 -0.0461 -0.2549
 3274TIP3    H231238   0.644   1.336  13.090 -1.5332  0.2407  0.7661
 3275TIP3   OH231239   5.981   1.097   4.556  0.1237  0.3035 -0.5774
 3275TIP3    H131240   5.948   1.076   4.643  2.8403  2.3899  1.1223
 3275TIP3    H231241   6.022   1.016   4.526 -0.6269 -0.3730  0.1558
 3276TIP3   OH231242   1.522   5.575  11.592 -0.0220  0.3079 -0.8743
 3276TIP3    H131243   1.556   5.486  11.591  1.5620  0.8286  0.5174
 3276TIP3    H231244   1.534   5.603  11.683  0.7175  2.3535 -1.5511
 3277TIP3   OH231245   5.374   2.557  13.372 -0.2983  0.4167 -0.4201
 3277TIP3    H131246   5.299   2.498  13.377 -0.8806  1.1508 -0.2452
 3277TIP3    H231247   5.409   2.560  13.461 -0.1298  0.1638 -0.4774
 3278TIP3   OH231248   5.596   2.446   1.331 -0.0366  0.5999 -0.4130
 3278TIP3    H131249   5.639   2.362   1.346  0.5994  1.0374  0.3444
 3278TIP3    H231250   5.509   2.436   1.367 -0.5602 -0.2617 -1.8440
 3279TIP3   OH231251   4.427   5.735  16.130 -0.1679  0.2750 -0.1041
 3279TIP3    H131252   4.349   5.745  16.076 -0.3656 -1.3228 -0.1726
 3279TIP3    H231253   4.400   5.766  16.216 -1.6699 -2.2326  0.4639
 3280TIP3   OH231254   6.696   4.655   0.369 -0.3975 -0.1029 -0.3708
 3280TIP3    H131255   6.750   4.606   0.307  0.0766 -0.1362  0.0648
 3280TIP3    H231256   6.613   4.667   0.324  0.0531  0.1628 -1.1511
 3281TIP3   OH231257   1.893   5.607   5.914  0.1055 -0.1050  0.3557
 3281TIP3    H131258   1.877   5.631   5.823  0.5854  1.3602  0.6252
 3281TIP3    H231259   1.807   5.584   5.948 -0.3527  0.9861 -0.0298
 3282TIP3   OH231260   3.344   1.960   0.519  0.2248  0.0495 -0.3627
 3282TIP3    H131261   3.336   2.045   0.475  0.9384  0.4707  0.2835
 3282TIP3    H231262   3.255   1.936   0.542 -0.1801 -0.2742 -2.2024
 3283TIP3   OH231263   5.179   4.884  12.781 -0.1277 -0.2121  0.3130
 3283TIP3    H131264   5.160   4.977  12.769  2.1492  0.0886 -1.5738
 3283TIP3    H231265   5.139   4.841  12.705 -0.1313 -0.6301  0.5445
 3284TIP3   OH231266   6.493   1.498   1.526  0.2220  0.2241  0.0928
 3284TIP3    H131267   6.475   1.447   1.447 -1.0137 -0.1446  0.5950
 3284TIP3    H231268   6.567   1.453   1.567  1.2789  0.7652 -1.1290
 3285TIP3   OH231269   5.268   2.034   1.566  0.0536 -0.1113  0.1158
 3285TIP3    H131270   5.264   2.013   1.660  0.4179 -0.3045  0.0903
 3285TIP3    H231271   5.321   1.964   1.528  1.7214  1.0847  0.1059
 3286TIP3   OH231272   4.493   0.634   4.412  0.3999  0.1023  0.2967
 3286TIP3    H131273   4.485   0.550   4.368  4.0815 -0.0922 -0.2562
 3286TIP3    H231274   4.472   0.698   4.344 -2.1609 -0.2445  0.6544
 3287TIP3   OH231275   6.041   5.766   0.564 -0.0035  0.1869  0.1921
 3287TIP3    H131276   6.057   5.854   0.598 -0.0926  0.6584 -0.9563
 3287TIP3    H231277   6.034   5.777   0.470 -0.3477 -1.0105  0.0579
 3288TIP3   OH231278   5.792   0.946  17.170  0.2442  0.3837 -0.3354
 3288TIP3    H131279   5.849   0.904  17.235 -0.6829  1.2782  1.1118
 3288TIP3    H231280   5.705   0.915  17.191 -0.1232  0.9764 -0.9346
 3289TIP3   OH231281   0.927   2.853  17.173 -0.5078  0.0482  0.0046
 3289TIP3    H131282   0.962   2.846  17.084 -0.9755 -1.6134 -0.0789
 3289TIP3    H231283   0.976   2.788  17.224 -1.8934 -0.7322  0.3937
 3290TIP3   OH231284   0.521   3.662  14.478 -0.9414 -0.1478 -0.1015
 3290TIP3    H131285   0.435   3.684  14.443 -0.8879 -0.6677 -0.5806
 3290TIP3    H231286   0.568   3.623  14.403  0.4202  1.9504 -0.4364
 3291TIP3   OH231287   5.734   4.125  16.157 -0.0884  0.3508 -0.1842
 3291TIP3    H131288   5.695   4.047  16.195 -0.5733  0.3575 -0.6661
 3291TIP3    H231289   5.743   4.186  16.231 -0.3905  0.1132  0.0476
 3292TIP3   OH231290   6.637   5.889  15.836  0.2710 -0.1091 -0.4594
 3292TIP3    H131291   6.633   5.949  15.761  1.4573  0.3640 -0.1624
 3292TIP3    H231292   6.638   5.946  15.913  0.2111 -0.5559 -0.1239
 3293TIP3   OH231293   1.537   4.779   6.815  0.1370  0.0943  0.3098
 3293TIP3    H131294   1.463   4.838   6.831  1.6227  1.6121  1.9343
 3293TIP3    H231295   1.505   4.693   6.842 -1.0766  0.6898  0.8655
 3294TIP3   OH231296   2.803   0.722   3.891  0.3473 -0.4447  0.4741
 3294TIP3    H131297   2.826   0.786   3.959 -3.3175  2.0319 -0.3155
 3294TIP3    H231298   2.867   0.737   3.821  1.5646 -0.0490  1.6206
 3295TIP3   OH231299   5.635   5.638  11.905 -0.6870 -1.1300 -0.4843
 3295TIP3    H131300   5.563   5.627  11.967  0.1883  2.4139  1.4330
 3295TIP3    H231301   5.600   5.695  11.837 -0.0910 -0.4324 -0.2229
 3296TIP3   OH231302   4.635   5.025   4.504 -0.0082  0.2135 -0.1114
 3296TIP3    H131303   4.567   5.036   4.570 -1.6934 -0.6049 -1.6284
 3296TIP3    H231304   4.687   5.105   4.509 -1.0722  0.8658  1.0784
 3297TIP3   OH231305   4.284   0.252  11.651 -0.6449 -0.7470 -0.3533
 3297TIP3    H131306   4.262   0.339  11.618  0.9612 -0.4656 -0.7691
 3297TIP3    H231307   4.210   0.228  11.708 -0.9209  1.0385  0.0777
 3298TIP3   OH231308   2.919   0.892   5.633 -0.3747  0.0841  0.0296
 3298TIP3    H131309   2.881   0.939   5.559 -0.5793 -1.8562 -1.1770
 3298TIP3    H231310   2.848   0.884   5.696 -0.8613 -0.1776 -0.5410
 3299TIP3   OH231311   2.553   1.964   0.742 -1.0533  0.1601 -0.0348
 3299TIP3    H131312   2.570   2.048   0.785  1.0559  0.5579 -1.4764
 3299TIP3    H231313   2.543   1.986   0.649 -3.0938 -0.9403 -0.1457
 3300TIP3   OH231314   6.154   1.916   0.096  0.1934 -0.0742  0.0259
 3300TIP3    H131315   6.191   1.848   0.154  1.0838  0.0247 -0.4107
 3300TIP3    H231316   6.122   1.983   0.156 -0.3608 -0.7033  0.4520
 3301TIP3   OH231317   6.160   1.849  11.794 -0.9758 -0.5093 -0.5114
 3301TIP3    H131318   6.164   1.793  11.871  1.2065  0.5331  0.2263
 3301TIP3    H231319   6.140   1.936  11.828  1.2255  0.2125 -0.8936
 3302TIP3   OH231320   4.018   3.243  10.710 -0.1192  0.2887 -0.5540
 3302TIP3    H131321   3.926   3.261  10.691  0.1379  2.1849 -0.1721
 3302TIP3    H231322   4.016   3.188  10.789 -0.9287  2.9881  1.4474
 3303TIP3   OH231323   1.717   4.031  15.902  0.5967  0.1892  0.0425
 3303TIP3    H131324   1.644   4.094  15.899 -0.3734 -0.8986 -2.9865
 3303TIP3    H231325   1.795   4.084  15.886 -0.0439  0.8656 -0.9821
 3304TIP3   OH231326   5.142   3.441   4.454  0.3118 -0.0904  0.2072
 3304TIP3    H131327   5.227   3.463   4.414 -0.6349  1.1881 -1.1883
 3304TIP3    H231328   5.163   3.371   4.516  2.2334 -0.5603 -0.8670
 3305TIP3   OH231329   3.493   3.053  15.114 -0.0529 -0.5255  0.6747
 3305TIP3    H131330   3.433   3.049  15.040 -0.3746 -1.0293  0.9556
 3305TIP3    H231331   3.442   3.092  15.185  0.2967  0.0881  0.5977
 3306TIP3   OH231332   4.306   1.371   1.843  0.0742 -0.1374  0.0842
 3306TIP3    H131333   4.319   1.277   1.834  0.8534  0.0437 -0.8603
 3306TIP3    H231334   4.394   1.408   1.842 -0.2627  0.6778 -0.5940
 3307TIP3   OH231335   4.279   1.882  15.497 -0.0672  0.1036  0.0171
 3307TIP3    H131336   4.318   1.946  15.439  0.6634  0.6392  1.0730
 3307TIP3    H231337   4.330   1.802  15.483 -0.0070  0.1790 -0.1958
 3308TIP3   OH231338   6.380   6.433  15.413 -0.3133  0.7637  0.4791
 3308TIP3    H131339   6.320   6.428  15.339 -1.2180 -1.0235  1.2661
 3308TIP3    H231340   6.361   6.517  15.454 -0.3294  1.4369 -0.8495
 3309TIP3   OH231341   1.368   1.225  13.583 -0.4014  0.6211 -0.2610
 3309TIP3    H131342   1.367   1.247  13.490 -0.0728 -1.2484 -0.7592
 3309TIP3    H231343   1.278   1.238  13.612 -0.6563  0.6084 -1.0134
 3310TIP3   OH231344   1.793   4.585   0.047 -0.2185  0.1934  0.1534
 3310TIP3    H131345   1.817   4.668   0.005 -0.8006  0.9414  1.2457
 3310TIP3    H231346   1.701   4.571   0.023 -0.1930 -0.0110  0.1683
 3311TIP3   OH231347   2.966   0.305  15.957  0.3387 -0.2081 -0.1227
 3311TIP3    H131348   2.932   0.330  16.043 -0.1489 -1.7879  0.1639
 3311TIP3    H231349   2.981   0.389  15.913 -1.4666  0.6105  0.6917
 3312TIP3   OH231350   0.772   0.642  17.168 -0.4083 -0.5866  0.0635
 3312TIP3    H131351   0.754   0.713  17.229 -1.6758 -1.0860  0.2930
 3312TIP3    H231352   0.686   0.611  17.140  0.1277 -0.7420 -1.5565
 3313TIP3   OH231353   6.181   6.481  15.705 -0.7422 -0.1094 -0.6996
 3313TIP3    H131354   6.255   6.538  15.683  1.0426 -2.0979 -0.2042
 3313TIP3    H231355   6.149   6.514  15.789  0.5260 -0.0894 -0.2138
 3314TIP3   OH231356   5.966   0.468  13.776 -0.0103 -0.1363  0.4261
 3314TIP3    H131357   5.948   0.376  13.753 -1.9393  0.6020 -1.3880
 3314TIP3    H231358   6.016   0.463  13.858  0.4811 -2.8019  0.0715
 3315TIP3   OH231359   2.063   0.493   1.499 -0.1139 -0.5688  0.7662
 3315TIP3    H131360   2.077   0.400   1.515  0.0760 -0.2966  2.3200
 3315TIP3    H231361   1.970   0.507   1.519 -0.4172 -0.6168 -0.5355
 3316TIP3   OH231362   1.091   4.803  11.883 -0.6701  1.2026  0.1104
 3316TIP3    H131363   1.023   4.737  11.898 -2.3518  2.7369 -0.2853
 3316TIP3    H231364   1.112   4.796  11.790  0.3403  0.1834  0.4030
 3317TIP3   OH231365   0.490   2.457   4.461  0.2501  0.3700 -0.0290
 3317TIP3    H131366   0.557   2.459   4.530  0.5845 -0.9012 -0.2912
 3317TIP3    H231367   0.503   2.373   4.418 -1.8656 -0.1514  0.2540
 3318TIP3   OH231368   5.084   1.246  13.363 -0.0904 -0.2291 -0.9454
 3318TIP3    H131369   5.167   1.283  13.393 -1.1575  1.1149  0.4579
 3318TIP3    H231370   5.104   1.154  13.348  1.4305 -0.1446  0.2661
 3319TIP3   OH231371   0.656   4.932  13.527 -0.3023 -0.0397 -1.1447
 3319TIP3    H131372   0.746   4.902  13.516 -0.0573 -0.0645  0.5515
 3319TIP3    H231373   0.624   4.884  13.604 -1.5750  0.3996 -1.3644
 3320TIP3   OH231374   2.750   1.513  13.234 -0.2792 -0.6585  0.4073
 3320TIP3    H131375   2.837   1.474  13.235  0.0000 -0.0767 -0.3823
 3320TIP3    H231376   2.746   1.561  13.152 -0.3703  1.4985  1.5789
 3321TIP3   OH231377   3.390   3.531   0.242 -0.4250 -0.0588 -0.4814
 3321TIP3    H131378   3.370   3.607   0.297  1.0085  1.0193 -1.3935
 3321TIP3    H231379   3.447   3.477   0.296  0.8934  0.9447 -0.8116
 3322TIP3   OH231380   0.010   4.750   5.360 -0.4690  0.4729  0.3378
 3322TIP3    H131381  -0.020   4.693   5.290 -2.8454 -0.4343  1.9751
 3322TIP3    H231382   0.106   4.740   5.360 -0.6518 -1.8330 -0.8183
 3323TIP3   OH231383   5.987   6.299  13.922 -0.5074 -0.3121 -0.5009
 3323TIP3    H131384   6.005   6.301  13.828 -0.4541  0.1511 -0.4846
 3323TIP3    H231385   6.064   6.258  13.960  0.2199  1.0048 -0.5008
 3324TIP3   OH231386   5.517   1.673  15.933 -0.6461  0.2805  0.1831
 3324TIP3    H131387   5.509   1.747  15.873 -0.0852 -0.5294 -0.9084
 3324TIP3    H231388   5.427   1.644  15.948 -0.7743  0.3714 -0.4092
 3325TIP3   OH231389   6.741   1.833   2.830 -1.0383 -0.1635  1.1910
 3325TIP3    H131390   6.670   1.783   2.789 -2.1066  0.8519  1.7575
 3325TIP3    H231391   6.721   1.925   2.810  0.7114  0.1088  0.4410
 3326TIP3   OH231392   5.816   0.688  13.473  0.2460  0.3339 -0.8044
 3326TIP3    H131393   5.912   0.687  13.484  0.1875  0.5797 -0.2524
 3326TIP3    H231394   5.782   0.681  13.562 -0.2568 -0.3029 -1.0416
 3327TIP3   OH231395   0.339   4.170  16.086  0.6237  0.2072  0.3853
 3327TIP3    H131396   0.248   4.155  16.113  0.8196  0.0838  1.0011
 3327TIP3    H231397   0.353   4.112  16.012  0.4422 -0.3758  0.8056
 3328TIP3   OH231398   3.046   3.492  14.039  0.1042 -0.1171  0.2464
 3328TIP3    H131399   3.077   3.541  14.116  1.0585  0.0974 -0.2555
 3328TIP3    H231400   3.113   3.426  14.024 -1.4443 -1.9927  1.2447
 3329TIP3   OH231401   1.121   6.557  13.878  0.7583 -0.3558  0.1526
 3329TIP3    H131402   1.209   6.592  13.888  0.7047  0.0075 -0.5868
 3329TIP3    H231403   1.134   6.468  13.845  0.8616 -0.5472  0.7035
 3330TIP3   OH231404   5.467   4.352  16.307  0.5157  0.4470 -0.1178
 3330TIP3    H131405   5.377   4.332  16.282  0.0213 -0.5435  2.1704
 3330TIP3    H231406   5.512   4.367  16.224 -1.8753  1.6920 -1.3129
 3331TIP3   OH231407   6.656   1.042   3.389 -1.0663  0.4566 -0.0411
 3331TIP3    H131408   6.667   0.951   3.414  1.7519  1.2717  2.1882
 3331TIP3    H231409   6.618   1.084   3.466 -1.8351  1.2977 -0.8503
 3332TIP3   OH231410   3.625   5.936   4.653 -0.1727 -0.3976 -0.1806
 3332TIP3    H131411   3.673   5.994   4.711  0.8897 -0.9440 -0.4792
 3332TIP3    H231412   3.692   5.897   4.597 -1.0090 -0.9141 -0.8576
 3333TIP3   OH231413   0.040   2.476  13.847  0.4463 -0.7527 -0.4225
 3333TIP3    H131414  -0.056   2.471  13.851  0.2220  1.3286 -1.9302
 3333TIP3    H231415   0.060   2.473  13.753  1.6575  1.3271 -0.2689
 3334TIP3   OH231416   2.959   1.326  13.182 -0.3519  0.0290 -0.6300
 3334TIP3    H131417   2.920   1.244  13.152  1.0353 -1.4277  1.2556
 3334TIP3    H231418   3.048   1.302  13.208  0.2329  2.2324 -0.3894
 3335TIP3   OH231419   0.323   3.335   4.168  0.2896  0.0010 -0.3829
 3335TIP3    H131420   0.317   3.429   4.153  1.4001  0.2806  0.7846
 3335TIP3    H231421   0.405   3.309   4.126  0.1932 -0.3632 -0.3482
 3336TIP3   OH231422   3.390   1.060  15.210 -0.2521  0.2822  0.3167
 3336TIP3    H131423   3.341   0.993  15.162  0.4411 -0.8915  1.2178
 3336TIP3    H231424   3.454   1.012  15.262  0.4211  1.6581  0.8261
 3337TIP3   OH231425   1.965   4.176   6.416  0.2494  0.0035 -0.5802
 3337TIP3    H131426   1.875   4.187   6.386 -0.2420  1.0022  1.0875
 3337TIP3    H231427   2.015   4.240   6.366 -0.2208  0.4121 -0.5348
 3338TIP3   OH231428   5.746   3.286  16.666  0.0067  0.1010 -0.1918
 3338TIP3    H131429   5.747   3.304  16.572 -0.7077  0.1504 -0.1970
 3338TIP3    H231430   5.725   3.371  16.707 -3.9123 -0.6624 -0.2435
 3339TIP3   OH231431   1.661   5.080   3.025  0.2986  0.2567 -0.3331
 3339TIP3    H131432   1.685   5.040   3.108 -0.0258  1.1325  0.1926
 3339TIP3    H231433   1.611   5.012   2.979  0.3679 -0.1869  0.2386
 3340TIP3   OH231434   6.635   4.301  13.009  0.3384  0.1896  0.2299
 3340TIP3    H131435   6.570   4.266  12.947  0.0580 -0.3795  0.8276
 3340TIP3    H231436   6.674   4.376  12.964  0.2146 -0.2781 -0.6745
 3341TIP3   OH231437   4.631   5.339  14.511  0.5756  0.4798 -0.7068
 3341TIP3    H131438   4.621   5.271  14.444  2.2366 -0.2800 -0.2259
 3341TIP3    H231439   4.624   5.421  14.464 -0.6886 -0.0018 -1.4223
 3342TIP3   OH231440   3.273   0.692   0.529 -0.3630 -1.2465 -0.6887
 3342TIP3    H131441   3.212   0.756   0.566 -0.2288 -1.1123 -0.6970
 3342TIP3    H231442   3.282   0.625   0.597  0.1010 -0.8597 -0.3508
 3343TIP3   OH231443   4.857   3.991  13.783  0.7447 -0.3499 -0.2447
 3343TIP3    H131444   4.771   3.964  13.814  1.2293 -1.0848  0.5250
 3343TIP3    H231445   4.844   4.013  13.691 -0.4575  0.5091  0.1055
 3344TIP3   OH231446   5.430   1.792  12.195  0.0338  0.4965  0.4170
 3344TIP3    H131447   5.373   1.835  12.259  1.0334 -1.7913  3.0367
 3344TIP3    H231448   5.517   1.828  12.213  0.3274 -0.1796  0.3790
 3345TIP3   OH231449   4.503   5.906  14.237  0.7148  0.0752 -0.5510
 3345TIP3    H131450   4.457   5.828  14.267  1.3911 -0.6911 -1.4121
 3345TIP3    H231451   4.545   5.941  14.315  1.1910 -0.9923 -0.3080
 3346TIP3   OH231452   2.154   3.737   1.748 -0.0926 -0.0882 -0.0635
 3346TIP3    H131453   2.225   3.800   1.734  0.9140 -1.1472  0.1373
 3346TIP3    H231454   2.198   3.652   1.751 -0.9245 -0.5545  3.1658
 3347TIP3   OH231455   5.389   4.646  15.607 -0.2314  0.2691 -0.3934
 3347TIP3    H131456   5.438   4.569  15.579  1.2166  1.2875 -0.7453
 3347TIP3    H231457   5.299   4.614  15.616  0.1744 -1.2694 -1.3044
 3348TIP3   OH231458   4.672   3.206   5.015 -0.4235 -0.0970 -0.0290
 3348TIP3    H131459   4.710   3.291   5.035 -2.4869  0.9698 -0.3677
 3348TIP3    H231460   4.747   3.150   4.995  0.9239  1.9824 -1.1238
 3349TIP3   OH231461   4.916   2.708   4.093 -0.2351 -0.2041  0.3251
 3349TIP3    H131462   4.899   2.771   4.024  0.2815 -1.1682 -0.7186
 3349TIP3    H231463   5.008   2.685   4.082 -0.0976 -0.2741  1.4399
 3350TIP3   OH231464   1.326   3.827  12.449  0.3358  0.3026  0.3959
 3350TIP3    H131465   1.235   3.858  12.456  0.2543  0.3017 -0.5434
 3350TIP3    H231466   1.330   3.753  12.509 -0.5879 -0.3527 -0.3126
 3351TIP3   OH231467   4.355   2.622  16.469 -0.2173  0.2334  0.1801
 3351TIP3    H131468   4.413   2.604  16.395  1.5174 -0.6580  1.6731
 3351TIP3    H231469   4.271   2.585  16.443  0.6279 -1.0407 -0.9252
 3352TIP3   OH231470   1.033   1.674  15.119 -0.0351  0.8023 -0.1107
 3352TIP3    H131471   1.009   1.735  15.189  0.2617  0.3674  0.3748
 3352TIP3    H231472   0.985   1.594  15.139 -0.1847  0.7730 -0.5772
 3353TIP3   OH231473   2.576   4.421   3.093  0.3873  0.2464  0.4245
 3353TIP3    H131474   2.513   4.409   3.022  1.9612 -1.7201 -0.7346
 3353TIP3    H231475   2.631   4.494   3.064 -0.9956  1.6786  1.2401
 3354TIP3   OH231476   3.698   1.600  12.169  0.2864 -0.3632 -0.7888
 3354TIP3    H131477   3.764   1.641  12.113  0.0941 -0.4034 -1.0456
 3354TIP3    H231478   3.744   1.584  12.252  0.1606  1.0142 -0.4332
 3355TIP3   OH231479   5.526   2.719  14.549 -0.0434 -0.0877 -0.3102
 3355TIP3    H131480   5.547   2.781  14.619 -1.0667 -1.0103  0.8823
 3355TIP3    H231481   5.604   2.664  14.541  0.1098  0.0673  0.0730
 3356TIP3   OH231482   2.135   1.491  15.123 -0.6801 -0.2872 -0.3881
 3356TIP3    H131483   2.156   1.455  15.209 -2.3955  1.0212  0.6573
 3356TIP3    H231484   2.219   1.522  15.089  0.3762 -2.7002 -0.1530
 3357TIP3   OH231485   2.197   4.166   2.544 -0.5006 -0.4033 -0.3487
 3357TIP3    H131486   2.134   4.239   2.545 -0.9727 -0.7868 -1.2465
 3357TIP3    H231487   2.154   4.099   2.491 -0.2849 -1.5392  0.8735
 3358TIP3   OH231488   5.591   5.370   2.561  0.1133  0.1214  0.6176
 3358TIP3    H131489   5.498   5.363   2.582  0.2028  1.1600  1.4605
 3358TIP3    H231490   5.635   5.315   2.626  0.1436  0.3362  0.7798
 3359TIP3   OH231491   3.573   0.318  11.663 -0.1243 -0.5694  0.3895
 3359TIP3    H131492   3.484   0.327  11.630 -0.0561  0.4525  0.4540
 3359TIP3    H231493   3.563   0.325  11.758 -0.0655 -1.3154  0.4572
 3360TIP3   OH231494   5.841   6.035  14.103 -0.7977  0.0581  0.5319
 3360TIP3    H131495   5.799   6.105  14.054  0.2680 -1.5808 -3.1654
 3360TIP3    H231496   5.772   5.998  14.157 -2.0927  2.0864  0.3674
 3361TIP3   OH231497   0.048   0.588  11.437  0.2382 -0.5154  0.6831
 3361TIP3    H131498   0.099   0.664  11.465  1.4244 -1.5336  1.3564
 3361TIP3    H231499   0.045   0.531  11.514  1.5933 -2.3210 -0.5431
 3362TIP3   OH231500   3.197   1.741  14.346  0.3787  0.3377  0.5529
 3362TIP3    H131501   3.222   1.828  14.314 -1.3587  1.4540  2.0170
 3362TIP3    H231502   3.265   1.719  14.410  0.3773  1.0344  0.8078
 3363TIP3   OH231503   4.019   2.971  11.093  0.7672  0.3763 -0.2883
 3363TIP3    H131504   4.092   2.940  11.146  0.6005 -2.9793 -1.8088
 3363TIP3    H231505   4.058   2.998  11.011  0.3858 -1.1407 -0.9950
 3364TIP3   OH231506   4.574   3.588   5.065  0.0981 -0.0323 -0.1247
 3364TIP3    H131507   4.521   3.514   5.034  1.0788 -0.1326 -1.6605
 3364TIP3    H231508   4.510   3.650   5.100 -0.9233 -0.6865 -0.7586
 3365TIP3   OH231509   3.854   2.494  14.149 -0.3518  0.2155  0.4749
 3365TIP3    H131510   3.893   2.555  14.212  0.2297 -0.4955  0.8128
 3365TIP3    H231511   3.929   2.455  14.104 -0.6782 -0.8194  0.8030
 3366TIP3   OH231512   4.254   4.970   4.230  0.6805  0.2958 -0.0115
 3366TIP3    H131513   4.314   4.949   4.158  0.1507  0.6236 -0.5530
 3366TIP3    H231514   4.171   4.989   4.187 -0.4021 -2.1206  0.8180
 3367TIP3   OH231515   4.594   6.419   4.298  0.1136  0.4066 -0.5678
 3367TIP3    H131516   4.673   6.374   4.269  0.6981  1.1358 -0.1250
 3367TIP3    H231517   4.622   6.473   4.372 -0.4567  1.8980 -1.3886
 3368TIP3   OH231518   5.022   5.596  15.808  0.4038  0.1634 -0.3083
 3368TIP3    H131519   4.988   5.519  15.853  0.5995 -1.2001 -2.3475
 3368TIP3    H231520   4.947   5.655  15.801 -0.6554 -1.2493 -1.5494
 3369TIP3   OH231521   1.723   4.770  13.186  0.0685  0.2478 -0.1840
 3369TIP3    H131522   1.774   4.816  13.120  0.3427 -0.3055 -0.3595
 3369TIP3    H231523   1.788   4.725  13.240 -0.2652 -1.6317 -1.2712
 3370TIP3   OH231524   1.939   0.081   6.131  0.1359  0.4408  0.0700
 3370TIP3    H131525   1.851   0.102   6.162 -1.0844 -1.3822 -1.8124
 3370TIP3    H231526   1.988   0.059   6.210 -2.0090 -1.4014  1.0079
 3371TIP3   OH231527   2.028   1.425   2.088  0.2211 -0.3210  0.0185
 3371TIP3    H131528   2.057   1.335   2.071  0.6236 -0.1512 -0.2209
 3371TIP3    H231529   1.986   1.421   2.173  0.7216 -0.6323  0.2578
 3372TIP3   OH231530   1.921   2.049   0.997  0.0575 -0.5726 -0.5035
 3372TIP3    H131531   1.909   2.095   1.080 -1.0512 -1.8769  0.1174
 3372TIP3    H231532   2.005   2.078   0.965  1.4724 -1.4768  2.0632
 3373TIP3   OH231533   0.912   1.792  16.982  0.2851 -0.2348 -0.3913
 3373TIP3    H131534   0.905   1.711  17.033  0.8111 -2.0065 -2.9189
 3373TIP3    H231535   0.826   1.804  16.944  0.0469  0.7664  0.4215
 3374TIP3   OH231536   0.448   5.118   5.426  0.7777  0.3656 -0.0152
 3374TIP3    H131537   0.443   5.115   5.522  0.2783  0.3425 -0.0401
 3374TIP3    H231538   0.538   5.147   5.408  0.5137  1.5422  0.4832
 3375TIP3   OH231539   1.643   0.384  13.209 -0.4498  0.1766 -0.3892
 3375TIP3    H131540   1.613   0.474  13.194 -2.6084 -0.6855 -1.5798
 3375TIP3    H231541   1.624   0.338  13.128  0.2792 -1.4662  0.3254
 3376TIP3   OH231542   5.684   3.802  14.146 -0.1311 -0.2641 -0.4638
 3376TIP3    H131543   5.689   3.897  14.156 -1.5768 -0.3754  2.3239
 3376TIP3    H231544   5.623   3.774  14.215 -0.3686 -3.1439 -1.7061
 3377TIP3   OH231545   5.355   0.192   3.082  0.2054 -0.2022  0.2301
 3377TIP3    H131546   5.363   0.281   3.117 -0.7068  0.2998 -0.7672
 3377TIP3    H231547   5.309   0.204   2.999  0.6712 -1.5452 -0.2380
 3378TIP3   OH231548   0.629   1.219   1.220  0.2661  0.2146  0.4194
 3378TIP3    H131549   0.559   1.215   1.156  1.1032  0.2170 -0.5147
 3378TIP3    H231550   0.621   1.137   1.270  1.1959 -1.0645 -1.4225
 3379TIP3   OH231551   1.003   6.305  13.607 -0.2995 -0.2889 -0.4752
 3379TIP3    H131552   1.070   6.273  13.546  0.9941  0.4002  0.5481
 3379TIP3    H231553   0.973   6.388  13.568  0.8871  0.4085  0.0518
 3380TIP3   OH231554   4.415   3.192   0.156  0.7570  0.3269  0.5399
 3380TIP3    H131555   4.400   3.103   0.188 -1.8126 -0.0003 -1.2720
 3380TIP3    H231556   4.485   3.183   0.092  0.1301 -0.5206 -0.0409
 3381TIP3   OH231557   1.822   2.115  14.414  0.0424  0.0128  0.0896
 3381TIP3    H131558   1.751   2.077  14.466  1.1940 -0.9745  1.0123
 3381TIP3    H231559   1.880   2.155  14.479  0.2121  1.0336 -0.6698
 3382TIP3   OH231560   5.353   2.057   3.502 -0.3661 -0.1856  0.0849
 3382TIP3    H131561   5.416   2.125   3.478  0.7203 -1.4969 -0.9269
 3382TIP3    H231562   5.280   2.105   3.541 -1.1071  1.9354 -3.4238
 3383TIP3   OH231563   0.449   3.665  15.824  0.7243 -0.2094 -0.2570
 3383TIP3    H131564   0.517   3.605  15.853 -0.6634 -2.4856 -1.3952
 3383TIP3    H231565   0.491   3.751  15.821  2.5701 -0.9279  2.2805
 3384TIP3   OH231566   4.815   6.214   5.377  0.1894  0.6297  0.4547
 3384TIP3    H131567   4.864   6.198   5.296 -0.1466 -0.2659  0.4128
 3384TIP3    H231568   4.878   6.256   5.436  0.7460  0.3082  0.0990
 3385TIP3   OH231569   2.693   3.937   2.606 -0.1228 -0.4291 -0.4031
 3385TIP3    H131570   2.715   3.929   2.699  1.0853  2.3953 -0.3485
 3385TIP3    H231571   2.777   3.937   2.561 -0.5967  0.1125 -1.3103
 3386TIP3   OH231572   6.494   6.636   2.437  0.2058 -0.1341 -0.1883
 3386TIP3    H131573   6.543   6.659   2.358 -1.1482 -1.1980 -1.4053
 3386TIP3    H231574   6.425   6.702   2.442 -0.0773 -0.4274 -0.2413
 3387TIP3   OH231575   6.483   4.105   1.868 -0.0535  0.6011 -0.1908
 3387TIP3    H131576   6.419   4.133   1.934  1.7347  1.7491  1.1834
 3387TIP3    H231577   6.515   4.020   1.900  0.1475  0.7223 -0.0646
 3388TIP3   OH231578   4.143   3.922  16.126  0.1520 -0.0995  0.0163
 3388TIP3    H131579   4.158   3.936  16.032 -0.1454 -1.2845 -0.2321
 3388TIP3    H231580   4.105   4.004  16.157 -0.9742 -0.1337 -1.1798
 3389TIP3   OH231581   2.238   0.127  12.620  0.1348  0.5091  0.0335
 3389TIP3    H131582   2.248   0.064  12.548 -1.2366  1.5301 -1.1225
 3389TIP3    H231583   2.189   0.200  12.581 -1.3267  0.7752  2.2000
 3390TIP3   OH231584   0.470   4.858  14.261 -0.1605  0.6167 -0.5354
 3390TIP3    H131585   0.506   4.774  14.235  2.3856  1.2688  0.5098
 3390TIP3    H231586   0.537   4.896  14.318 -2.0067  2.5790  0.4974
 3391TIP3   OH231587   4.646   0.018  12.967 -0.1196 -0.2483 -0.1318
 3391TIP3    H131588   4.699  -0.061  12.957  0.3463  0.2603 -2.0642
 3391TIP3    H231589   4.582   0.014  12.895 -0.8836  0.5308  0.4804
 3392TIP3   OH231590   2.865   4.062   5.132  0.1130  0.6841  0.2025
 3392TIP3    H131591   2.834   4.096   5.216 -1.2847 -0.6995  0.2802
 3392TIP3    H231592   2.918   3.986   5.155  1.0213  1.2026 -0.1128
 3393TIP3   OH231593   3.114   5.119   5.111 -0.1419 -0.1564 -0.4062
 3393TIP3    H131594   3.032   5.089   5.150 -0.0021  0.6417  0.5418
 3393TIP3    H231595   3.172   5.043   5.116 -1.0388 -0.9698 -1.8009
 3394TIP3   OH231596   0.406   5.937   1.862 -0.1403  0.2060 -0.3722
 3394TIP3    H131597   0.419   5.946   1.957  1.8788  2.5224 -0.7750
 3394TIP3    H231598   0.487   5.897   1.831 -1.2733 -1.6987 -1.0609
 3395TIP3   OH231599   5.215   6.443  16.184 -0.4388  0.2638  0.0045
 3395TIP3    H131600   5.137   6.389  16.168 -1.1334  1.4243 -0.6734
 3395TIP3    H231601   5.271   6.389  16.240 -1.0246 -1.2244 -0.7916
 3396TIP3   OH231602   5.675   2.271  16.840 -0.1395 -0.8067 -0.2808
 3396TIP3    H131603   5.760   2.315  16.850 -0.7264  0.6273 -1.2838
 3396TIP3    H231604   5.610   2.342  16.846 -1.2459 -1.8110 -0.0236
 3397TIP3   OH231605   3.419   4.469  12.645  0.7895  0.2663  0.0383
 3397TIP3    H131606   3.513   4.452  12.651  0.7445 -0.1082 -0.3005
 3397TIP3    H231607   3.383   4.431  12.725  0.4719 -2.8294 -1.4420
 3398TIP3   OH231608   0.790   4.230   6.516 -0.3843 -0.3999  0.2487
 3398TIP3    H131609   0.834   4.201   6.596  1.5706 -0.5268 -0.7950
 3398TIP3    H231610   0.750   4.314   6.540 -1.5799 -1.3700  1.8673
 3399TIP3   OH231611   4.991   0.776   4.088 -0.3867  0.0981 -0.7966
 3399TIP3    H131612   4.974   0.855   4.037 -1.1545  0.2318 -0.3561
 3399TIP3    H231613   4.904   0.741   4.107 -0.1561  0.3228  0.8252
 3400TIP3   OH231614   3.829   5.594  13.261  0.8059  0.0680  0.0698
 3400TIP3    H131615   3.744   5.622  13.229  1.3962  1.5094 -0.2880
 3400TIP3    H231616   3.870   5.552  13.185  0.7521  0.1511 -0.0056
 3401TIP3   OH231617   1.064   5.025   0.440 -0.2108  0.1251  0.5648
 3401TIP3    H131618   1.130   5.015   0.509  0.6118  1.8144  0.0851
 3401TIP3    H231619   1.031   4.936   0.425  0.1062 -0.3944  2.5979
 3402TIP3   OH231620   1.019   5.273   3.233  0.0891  0.3579 -0.0844
 3402TIP3    H131621   1.108   5.300   3.211  0.1162  0.6163  0.3345
 3402TIP3    H231622   1.020   5.262   3.328 -0.2714  0.1631 -0.1028
 3403TIP3   OH231623   1.337   0.850   5.209 -0.0237 -0.6061  0.3552
 3403TIP3    H131624   1.361   0.923   5.266 -2.5518  0.1784  0.5265
 3403TIP3    H231625   1.367   0.876   5.122  0.9457 -0.3342  0.7625
 3404TIP3   OH231626   6.591   4.063   5.088 -0.3853 -0.1612  0.0310
 3404TIP3    H131627   6.548   3.995   5.036 -2.0953  0.5879  0.4112
 3404TIP3    H231628   6.658   4.099   5.029 -1.7352  0.1163 -1.4109
 3405TIP3   OH231629   5.078   5.208  11.387 -0.5287  0.1597 -0.5292
 3405TIP3    H131630   5.168   5.188  11.414 -0.9184 -0.2393  0.5607
 3405TIP3    H231631   5.081   5.300  11.360 -0.4288  1.2834  2.7806
 3406TIP3   OH231632   0.597   3.344  12.750 -0.7230  0.7110  0.4985
 3406TIP3    H131633   0.554   3.323  12.833 -2.4153  1.3367 -0.1864
 3406TIP3    H231634   0.527   3.376  12.694  0.6457  1.6986 -0.7057
 3407TIP3   OH231635   3.760   6.421  16.247 -0.2984 -0.2951  0.4533
 3407TIP3    H131636   3.718   6.406  16.162 -1.8012  1.0180  0.8963
 3407TIP3    H231637   3.850   6.446  16.226 -0.6558  0.0381 -0.7582
 3408TIP3   OH231638   6.352   4.813   0.026 -0.3067  0.0281  0.1494
 3408TIP3    H131639   6.374   4.721   0.011  0.0673 -0.1045  1.3744
 3408TIP3    H231640   6.361   4.854  -0.060 -1.3729 -1.2423 -0.6083
 3409TIP3   OH231641   3.919   2.619   1.780 -0.2261 -0.5160 -0.1717
 3409TIP3    H131642   3.955   2.667   1.705 -2.9022  2.8884  0.4751
 3409TIP3    H231643   3.864   2.683   1.825 -0.9572 -3.2226  3.1501
 3410TIP3   OH231644   0.350   2.604   4.652 -0.1872 -0.2948 -0.0644
 3410TIP3    H131645   0.369   2.553   4.573  0.5986 -0.8256  0.4547
 3410TIP3    H231646   0.315   2.539   4.714  1.6781 -0.4162  0.9140
 3411TIP3   OH231647   1.969   1.230   3.165  0.3526 -0.3925  0.6696
 3411TIP3    H131648   2.009   1.152   3.128 -0.2889 -0.2717 -0.3048
 3411TIP3    H231649   1.875   1.219   3.151  0.0654 -0.3350  2.2666
 3412TIP3   OH231650   1.652   0.682  17.255  0.3651 -0.3657  0.1749
 3412TIP3    H131651   1.595   0.697  17.180 -0.2519 -1.4138  0.4081
 3412TIP3    H231652   1.593   0.679  17.330  1.2358  4.4040  1.3773
 3413TIP3   OH231653   5.898   5.598  14.410  0.2475 -0.0836  1.2146
 3413TIP3    H131654   5.874   5.528  14.471 -0.6404 -0.6334  0.2688
 3413TIP3    H231655   5.815   5.627  14.373  0.8141 -0.2004 -0.2086
 3414TIP3   OH231656   2.415   5.620   2.036 -0.0642 -0.1625  0.5223
 3414TIP3    H131657   2.486   5.674   2.002 -1.3168 -0.0343 -2.1512
 3414TIP3    H231658   2.456   5.536   2.057  0.6948 -0.7062 -2.6814
 3415TIP3   OH231659   4.261   4.734   3.999 -0.1120  0.7573  0.1113
 3415TIP3    H131660   4.185   4.790   3.978  0.1524  0.6028 -1.3412
 3415TIP3    H231661   4.222   4.654   4.034 -0.5863  1.0098  0.1788
 3416TIP3   OH231662   0.987   5.405   2.124  0.0182 -0.7289 -0.5683
 3416TIP3    H131663   1.004   5.392   2.218  0.5428  1.9191 -0.2197
 3416TIP3    H231664   0.989   5.317   2.087  1.2593 -1.7312  1.6727
 3417TIP3   OH231665   3.412   1.896  15.662 -0.1133 -0.3347 -0.1875
 3417TIP3    H131666   3.399   1.984  15.698  0.2495  1.2098 -3.4593
 3417TIP3    H231667   3.352   1.841  15.712 -0.6760  1.8175  1.7126
 3418TIP3   OH231668   4.399   5.775   4.723 -0.5240  0.3518  0.2904
 3418TIP3    H131669   4.309   5.782   4.754 -0.0843 -1.4006  2.1706
 3418TIP3    H231670   4.452   5.799   4.799  0.5923 -0.3087 -0.2596
 3419TIP3   OH231671   2.845   6.065   0.815  0.0938  0.1305  0.2003
 3419TIP3    H131672   2.867   6.016   0.894 -1.9836  0.2522  0.9079
 3419TIP3    H231673   2.928   6.104   0.787  0.9967 -0.4472  1.9304
 3420TIP3   OH231674   2.212   1.853  12.684 -0.6818 -0.3059  0.6718
 3420TIP3    H131675   2.258   1.793  12.743 -0.3086 -0.0791  0.6146
 3420TIP3    H231676   2.201   1.933  12.735 -0.8916 -0.3102  0.6352
 3421TIP3   OH231677   1.177   5.593   1.711 -0.0022  0.2141 -0.8450
 3421TIP3    H131678   1.111   5.636   1.658  1.6557  4.4368  0.0813
 3421TIP3    H231679   1.257   5.644   1.696  1.6098 -1.1051  2.2480
 3422TIP3   OH231680   1.157   5.617  15.250  0.2214  0.1868 -0.2678
 3422TIP3    H131681   1.166   5.523  15.241  0.4694  0.3060 -1.3668
 3422TIP3    H231682   1.066   5.635  15.223  0.0477  0.2260  0.3226
 3423TIP3   OH231683   0.010   5.477   3.344 -0.0664 -0.3164  0.4343
 3423TIP3    H131684  -0.002   5.499   3.436  0.3448 -0.0191  0.4186
 3423TIP3    H231685   0.043   5.557   3.303  0.0406 -0.5312  0.0883
 3424TIP3   OH231686   1.933   2.544  15.201 -0.2525 -0.6909  0.2629
 3424TIP3    H131687   1.923   2.605  15.274  1.6714  0.0934 -0.0558
 3424TIP3    H231688   1.970   2.597  15.130 -0.0267 -1.8890 -0.5564
 3425TIP3   OH231689   5.532   2.940   1.674  0.4180 -0.1274  0.2152
 3425TIP3    H131690   5.495   2.860   1.710 -0.2676 -0.0165 -0.2346
 3425TIP3    H231691   5.542   2.998   1.750 -0.0973 -0.2507  0.3799
 3426TIP3   OH231692   4.727   4.201  11.184 -0.1934 -0.1152 -0.0725
 3426TIP3    H131693   4.727   4.210  11.089 -0.9219  1.9542  0.0853
 3426TIP3    H231694   4.777   4.276  11.216 -0.4112 -0.4864  1.2153
 3427TIP3   OH231695   0.940   6.130   6.081 -0.2666 -0.8052 -0.5356
 3427TIP3    H131696   0.887   6.057   6.050 -1.0774  0.0934 -1.3140
 3427TIP3    H231697   0.995   6.155   6.007 -1.5672  0.7682 -1.0186
 3428TIP3   OH231698   4.791   1.623  10.428  0.2606  0.1867 -0.6228
 3428TIP3    H131699   4.700   1.650  10.423 -0.3691 -1.8122 -0.5947
 3428TIP3    H231700   4.840   1.699  10.396 -1.4025  1.2194 -0.8232
 3429TIP3   OH231701   5.852   4.375   2.256 -0.3010  0.1032 -0.0786
 3429TIP3    H131702   5.881   4.464   2.238  1.9726 -0.9051 -1.8709
 3429TIP3    H231703   5.799   4.351   2.180 -0.8918 -0.0998  0.3898
 3430TIP3   OH231704   6.388   3.061  12.654 -0.0970 -0.2420  0.4726
 3430TIP3    H131705   6.297   3.091  12.656  0.1778  0.5720  2.1503
 3430TIP3    H231706   6.431   3.109  12.724  1.3362 -1.5710  0.5590
 3431TIP3   OH231707   0.075   2.765   2.230  0.4355 -0.4741 -0.4805
 3431TIP3    H131708   0.153   2.749   2.282 -0.3801 -1.3017  0.5244
 3431TIP3    H231709   0.002   2.742   2.287 -0.5860  0.9437 -1.1490
 3432TIP3   OH231710   6.143   4.577  15.940 -0.1968 -0.6275 -0.2994
 3432TIP3    H131711   6.137   4.598  16.033 -0.1357 -1.9932  0.0319
 3432TIP3    H231712   6.207   4.506  15.935  1.1906  0.6404 -1.6158
 3433TIP3   OH231713   6.545   6.320   5.492  0.1061 -0.3520 -0.1424
 3433TIP3    H131714   6.531   6.383   5.422  1.1882  0.7212  0.5670
 3433TIP3    H231715   6.610   6.259   5.457 -1.4866 -1.5875 -1.1074
 3434TIP3   OH231716   6.558   3.146  11.513  0.3555 -0.4964 -0.1417
 3434TIP3    H131717   6.631   3.091  11.484  0.8236 -0.3064  0.6594
 3434TIP3    H231718   6.552   3.215  11.447  3.1870  1.5411  1.5542
 3435TIP3   OH231719   1.100   0.506   6.026  0.2975 -0.0033  0.1787
 3435TIP3    H131720   1.100   0.582   6.085 -0.8711  0.5974 -0.5406
 3435TIP3    H231721   1.041   0.444   6.068  1.3241 -0.5825  0.8125
 3436TIP3   OH231722   3.859   2.774  11.200  0.3200 -0.2323  0.3522
 3436TIP3    H131723   3.892   2.793  11.288  1.7856  0.4084 -0.3126
 3436TIP3    H231724   3.907   2.833  11.143  0.4066 -1.6011 -1.0509
 3437TIP3   OH231725   5.996   5.617  14.692  0.0490  0.7471  0.5852
 3437TIP3    H131726   6.083   5.642  14.723  0.2811  0.1530  0.4228
 3437TIP3    H231727   6.012   5.571  14.610 -0.3800  0.2569  0.7705
 3438TIP3   OH231728   6.348   2.311   5.656  0.1365 -0.2945  0.0952
 3438TIP3    H131729   6.416   2.265   5.706  1.3775  2.1851  0.8076
 3438TIP3    H231730   6.376   2.304   5.565  1.7601  1.2564  0.4361
 3439TIP3   OH231731   1.118   2.990   1.764  0.0280 -0.0831  0.2766
 3439TIP3    H131732   1.132   2.944   1.681 -0.3160  0.4935 -0.1017
 3439TIP3    H231733   1.206   3.010   1.795  0.1965 -1.1897  0.5603
 3440TIP3   OH231734   4.007   1.307  12.930  0.9059  0.3707  0.3533
 3440TIP3    H131735   3.927   1.319  12.981  0.6272 -0.6271  0.1638
 3440TIP3    H231736   4.077   1.302  12.995  0.5707 -0.7568  0.6426
 3441TIP3   OH231737   6.358   3.236  17.096 -0.3115  0.2846  1.0134
 3441TIP3    H131738   6.285   3.295  17.075  0.0043  0.8502  1.4825
 3441TIP3    H231739   6.400   3.219  17.012 -0.7639  0.2422  0.7898
 3442TIP3   OH231740   6.463   5.390  12.236 -0.3349 -0.6203 -0.3679
 3442TIP3    H131741   6.523   5.342  12.180 -1.1042 -2.1265  0.0373
 3442TIP3    H231742   6.511   5.469  12.261  0.6751 -0.7856 -1.6889
 3443TIP3   OH231743   6.230   5.514   5.964 -0.1571 -0.5693 -0.1484
 3443TIP3    H131744   6.155   5.543   5.912 -0.2884  1.8122  1.2455
 3443TIP3    H231745   6.200   5.434   6.006 -2.0343  0.4278  0.5355
 3444TIP3   OH231746   1.604   5.882   6.779 -0.4716 -0.2661  0.6201
 3444TIP3    H131747   1.544   5.899   6.852 -0.1782  0.1874  0.7640
 3444TIP3    H231748   1.649   5.801   6.804 -1.2129 -0.7618  0.3789
 3445TIP3   OH231749   6.015   2.855  15.464 -0.2979  0.1921  0.1943
 3445TIP3    H131750   5.984   2.893  15.547  0.1878 -1.9340  1.4265
 3445TIP3    H231751   6.110   2.856  15.471 -0.2567 -0.0505 -0.3094
 3446TIP3   OH231752   2.071   4.667   5.051 -0.0973 -0.0164  0.4802
 3446TIP3    H131753   2.013   4.598   5.083  0.6868 -0.4522  0.9939
 3446TIP3    H231754   2.123   4.624   4.983 -1.5111  0.8118 -1.1770
 3447TIP3   OH231755   4.692   2.023   2.205 -0.2166 -0.1743  0.9033
 3447TIP3    H131756   4.770   2.068   2.174 -0.8849  1.3759  1.3887
 3447TIP3    H231757   4.714   1.930   2.199  1.2767  0.2018  0.0640
 3448TIP3   OH231758   3.086   3.524   0.149 -0.2185 -0.0135  0.1933
 3448TIP3    H131759   3.096   3.619   0.142  3.0169 -0.2883 -0.1301
 3448TIP3    H231760   3.091   3.492   0.060 -0.4386 -0.5797  0.3782
 3449TIP3   OH231761   3.516   3.511  13.547  0.0658 -0.2759 -0.2745
 3449TIP3    H131762   3.541   3.451  13.476  1.4860 -1.4150  1.0861
 3449TIP3    H231763   3.491   3.452  13.619  2.5018  0.6497  1.4638
 3450TIP3   OH231764   6.114   2.483   1.882 -0.5735  0.0958 -0.4011
 3450TIP3    H131765   6.033   2.518   1.922 -0.9569 -1.4358  0.2197
 3450TIP3    H231766   6.183   2.505   1.944 -0.5845  0.9174 -0.6659
 3451TIP3   OH231767   3.880   1.353   5.840  0.2280 -0.1973  0.2347
 3451TIP3    H131768   3.971   1.368   5.866 -0.1887 -0.5770  2.0963
 3451TIP3    H231769   3.831   1.363   5.921 -1.2571 -1.1817 -0.5013
 3452TIP3   OH231770   4.895   3.894  16.182 -0.6561 -0.2438 -0.3246
 3452TIP3    H131771   4.825   3.846  16.138 -2.9237  2.0107  0.5677
 3452TIP3    H231772   4.876   3.986  16.164 -0.0553  0.6374  2.8604
 3453TIP3   OH231773   3.859   0.449   1.908  0.3408  0.5113 -0.1072
 3453TIP3    H131774   3.833   0.496   1.829  0.6939 -1.9358 -1.7708
 3453TIP3    H231775   3.782   0.454   1.965 -0.5753  0.7926 -1.3338
 3454TIP3   OH231776   0.006   2.570  14.476 -0.0469  0.1480  0.6773
 3454TIP3    H131777   0.025   2.638  14.411 -1.1274 -1.8317 -1.8972
 3454TIP3    H231778   0.073   2.503  14.460 -1.4342 -1.1837  0.2968
 3455TIP3   OH231779   6.057   3.480   1.054 -0.1944  0.3136  0.3900
 3455TIP3    H131780   6.116   3.551   1.078 -0.4018 -0.1370  2.4115
 3455TIP3    H231781   5.980   3.493   1.110 -0.9118 -0.6015 -0.3467
 3456TIP3   OH231782   6.431   6.092   2.962 -0.2052  0.3848  0.0239
 3456TIP3    H131783   6.438   6.132   2.876 -0.2551  2.7673  1.0646
 3456TIP3    H231784   6.376   6.015   2.948 -0.7573  1.0857 -1.9424
 3457TIP3   OH231785   1.185   6.118  16.700 -0.3450 -0.0258  0.0600
 3457TIP3    H131786   1.144   6.041  16.660  0.7740 -0.4643 -0.2580
 3457TIP3    H231787   1.268   6.087  16.734 -0.6687  0.6522  1.5604
 3458TIP3   OH231788   5.956   2.021  12.638  0.4534  0.2364  0.4652
 3458TIP3    H131789   5.881   2.077  12.658  0.3489 -0.6269  2.7366
 3458TIP3    H231790   6.000   2.009  12.722  1.9891 -0.9044 -0.4613
 3459TIP3   OH231791   3.104   2.165   3.716  0.4027 -0.5936  0.1020
 3459TIP3    H131792   3.038   2.234   3.715  1.9394  0.9693 -0.0831
 3459TIP3    H231793   3.185   2.210   3.741  0.8019 -3.0508  4.1583
 3460TIP3   OH231794   0.409   4.207   1.249 -0.3888  0.1088  0.3040
 3460TIP3    H131795   0.395   4.120   1.210 -0.8278  0.8402 -1.2608
 3460TIP3    H231796   0.322   4.238   1.271 -0.2600  0.2754  0.5836
 3461TIP3   OH231797   5.529   1.759  15.628 -0.0623 -0.3437  0.1384
 3461TIP3    H131798   5.624   1.743  15.632  0.3400  1.0059 -2.0701
 3461TIP3    H231799   5.520   1.851  15.653 -0.8686 -0.6045  0.8451
 3462TIP3   OH231800   6.157   5.333  12.982  0.3460  0.1369  0.5493
 3462TIP3    H131801   6.068   5.316  13.011  0.6884  0.1950  1.6692
 3462TIP3    H231802   6.177   5.421  13.015  0.2487  0.8136 -1.1118
 3463TIP3   OH231803   3.921   0.108   3.836 -0.1499  0.3691  0.7014
 3463TIP3    H131804   3.925   0.014   3.854 -0.5960  0.3030  0.4619
 3463TIP3    H231805   3.913   0.114   3.740 -1.7892  0.5898  0.8268
 3464TIP3   OH231806   2.627   2.211   5.266  0.2761  0.0527 -0.6682
 3464TIP3    H131807   2.691   2.159   5.217 -1.8339 -1.6006 -1.8910
 3464TIP3    H231808   2.555   2.150   5.282 -0.9599  1.7811  0.7539
 3465TIP3   OH231809   0.894   2.060  15.611 -0.0401  0.1965 -0.3490
 3465TIP3    H131810   0.867   2.098  15.694 -1.2971  0.4235 -0.8413
 3465TIP3    H231811   0.903   2.134  15.552  1.7481  0.1352 -0.2111
 3466TIP3   OH231812   3.464   0.918  11.314 -0.1992  0.4201 -0.1442
 3466TIP3    H131813   3.402   0.979  11.273 -1.5015 -0.1237  0.9242
 3466TIP3    H231814   3.544   0.969  11.324 -0.3139  1.0288 -1.9368
 3467TIP3   OH231815   1.128   3.702   4.216 -0.1702  0.6409  0.0368
 3467TIP3    H131816   1.056   3.656   4.173 -0.9270  2.1526 -0.3966
 3467TIP3    H231817   1.119   3.681   4.309 -1.1077  0.7288 -0.0328
 3468TIP3   OH231818   5.656   5.773   0.239 -0.0530 -0.2110 -0.5081
 3468TIP3    H131819   5.616   5.693   0.203  1.1825 -0.2714 -1.8273
 3468TIP3    H231820   5.693   5.817   0.163 -0.6275  1.6027  0.2239
 3469TIP3   OH231821   4.204   5.401  15.053 -0.3281 -0.1380  0.0909
 3469TIP3    H131822   4.209   5.433  14.963  4.1093  2.6200  0.9945
 3469TIP3    H231823   4.150   5.466  15.098  0.4024  0.5257  0.0350
 3470TIP3   OH231824   1.932   6.735   5.625  0.3035 -0.0347  0.1297
 3470TIP3    H131825   1.994   6.743   5.552 -0.8954 -3.1433 -1.3779
 3470TIP3    H231826   1.969   6.667   5.681  0.1000  0.7746  1.2833
 3471TIP3   OH231827   1.292   5.742  14.745  0.8471  0.0568  0.3882
 3471TIP3    H131828   1.380   5.764  14.715  1.2916 -0.8321  0.9640
 3471TIP3    H231829   1.281   5.791  14.826  0.1863  1.3857 -0.4825
 3472TIP3   OH231830   1.600   6.575   5.471  0.4531  0.1348 -0.4006
 3472TIP3    H131831   1.550   6.519   5.411 -1.5748  0.1812  1.1058
 3472TIP3    H231832   1.640   6.514   5.533 -0.8804  0.2264  0.6050
 3473TIP3   OH231833   2.862   1.857  15.133 -0.0840 -0.2017  0.6570
 3473TIP3    H131834   2.941   1.861  15.079  0.3823 -2.7182  1.0309
 3473TIP3    H231835   2.879   1.921  15.203 -0.0609  2.0072 -1.2508
 3474TIP3   OH231836   4.161   0.211   3.462 -0.0561 -0.5528  0.9502
 3474TIP3    H131837   4.162   0.137   3.523 -0.9177 -1.2314  0.1792
 3474TIP3    H231838   4.090   0.190   3.401  1.5908 -0.5524 -1.0936
 3475TIP3   OH231839   5.169   2.964   6.555 -0.2743  0.1445 -0.4169
 3475TIP3    H131840   5.079   2.955   6.523 -0.0845  1.0017 -1.2308
 3475TIP3    H231841   5.215   2.890   6.515 -0.8195 -0.9454  0.8722
 3476TIP3   OH231842   0.049   6.095  14.338 -0.0975 -0.0200  0.5611
 3476TIP3    H131843  -0.002   6.024  14.374  0.2715  0.4345  2.0329
 3476TIP3    H231844   0.070   6.067  14.249  0.3997 -1.9333  1.2472
 3477TIP3   OH231845   5.112   6.681   2.148 -0.0610  0.6537  0.4866
 3477TIP3    H131846   5.176   6.731   2.198 -0.1989  0.6195  0.6956
 3477TIP3    H231847   5.156   6.661   2.065 -0.2734  1.7877  0.0832
 3478TIP3   OH231848   4.058   0.323  16.604  0.5796 -0.5947  0.1709
 3478TIP3    H131849   4.146   0.331  16.567  0.0841 -1.1814 -1.1648
 3478TIP3    H231850   4.048   0.229  16.621  0.1292 -0.5503  0.1403
 3479TIP3   OH231851   5.503   5.687  13.037 -0.4018 -0.3385 -0.1665
 3479TIP3    H131852   5.577   5.626  13.039  0.0606  0.2056 -0.4356
 3479TIP3    H231853   5.471   5.682  12.947 -1.2413 -1.2119  0.1664
 3480TIP3   OH231854   5.777   4.406   3.100 -0.4121 -0.4572  0.1824
 3480TIP3    H131855   5.683   4.390   3.093 -0.1831 -1.6334 -0.5438
 3480TIP3    H231856   5.805   4.421   3.009 -0.2792  2.4951  0.5987
 3481TIP3   OH231857   5.731   1.608   5.233 -0.0259  0.6012  0.3511
 3481TIP3    H131858   5.797   1.639   5.295 -1.4855  0.1235  2.2493
 3481TIP3    H231859   5.647   1.625   5.277 -1.1043 -0.3498 -1.2305
 3482TIP3   OH231860   2.239   4.082   6.608  0.3682 -0.4672 -0.1781
 3482TIP3    H131861   2.197   4.155   6.653  1.8246  0.4277 -0.2246
 3482TIP3    H231862   2.300   4.045   6.671  2.0479  0.4689 -1.1869
 3483TIP3   OH231863   3.629   0.536  13.134  0.0614  0.3977 -0.4278
 3483TIP3    H131864   3.637   0.584  13.217 -1.5078 -0.5045  0.2814
 3483TIP3    H231865   3.719   0.519  13.108  0.6059 -0.3308  1.7147
 3484TIP3   OH231866   5.113   3.624  13.042  0.0269  0.0341 -0.1427
 3484TIP3    H131867   5.141   3.534  13.026  1.4324  0.4910 -0.4005
 3484TIP3    H231868   5.054   3.644  12.969  1.4878  0.0457 -1.3672
 3485TIP3   OH231869   4.879   6.526  13.014 -0.0222 -0.3962 -0.4101
 3485TIP3    H131870   4.944   6.594  13.035 -1.1909  1.2562 -1.7928
 3485TIP3    H231871   4.880   6.522  12.918 -2.0012 -0.2152 -0.4845
 3486TIP3   OH231872   5.104   4.148   4.388  0.5813  0.3684 -0.2718
 3486TIP3    H131873   5.066   4.235   4.398 -1.1684 -0.3361 -0.4056
 3486TIP3    H231874   5.103   4.112   4.477  1.3509  0.5001 -0.2078
 3487TIP3   OH231875   1.210   4.036   0.508  0.3526  0.3482 -0.2972
 3487TIP3    H131876   1.179   3.952   0.539 -1.1235  1.1265  0.4275
 3487TIP3    H231877   1.241   4.019   0.419  0.9708 -1.1255  0.1721
 3488TIP3   OH231878   4.124   6.264   5.401 -0.7909 -0.5858 -0.3644
 3488TIP3    H131879   4.065   6.202   5.445 -1.4979  0.4214  0.1307
 3488TIP3    H231880   4.191   6.208   5.361 -0.0107 -1.5378  2.0780
 3489TIP3   OH231881   5.648   4.807   1.159  0.1787 -0.3560  0.5688
 3489TIP3    H131882   5.681   4.750   1.090 -1.1436  0.1531 -0.5469
 3489TIP3    H231883   5.726   4.847   1.197  0.9138  0.3068 -1.4871
 3490TIP3   OH231884   1.828   3.931  17.341 -0.3339 -0.1848 -0.0645
 3490TIP3    H131885   1.858   4.013  17.302 -2.0242 -0.3478 -1.8481
 3490TIP3    H231886   1.863   3.863  17.283  0.5853 -0.7390  1.0853
 3491TIP3   OH231887   5.424   3.956   0.986 -0.2971 -0.3263 -0.0727
 3491TIP3    H131888   5.460   3.884   0.934 -2.8169 -1.2171 -0.7545
 3491TIP3    H231889   5.349   3.918   1.032 -1.7879  1.8398 -0.5258
 3492TIP3   OH231890   0.162   1.224   6.592 -0.4248  0.5735 -0.1859
 3492TIP3    H131891   0.248   1.215   6.633 -0.3805  0.1349 -0.3744
 3492TIP3    H231892   0.114   1.283   6.650  0.7337  2.6569 -1.2446
 3493TIP3   OH231893   2.250   5.012  17.194  0.1205 -0.1825  0.0391
 3493TIP3    H131894   2.339   5.026  17.161  1.0613  0.2856  2.5630
 3493TIP3    H231895   2.204   4.969  17.122  2.6846 -1.4075 -0.9797
 3494TIP3   OH231896   4.565   2.936   4.834 -0.0170  0.3962 -0.0192
 3494TIP3    H131897   4.505   2.911   4.763  1.6993 -2.1195 -0.7502
 3494TIP3    H231898   4.547   2.872   4.903  1.2298  0.1055  0.0532
 3495TIP3   OH231899   5.027   4.416  17.259  0.4019 -0.0356 -0.2232
 3495TIP3    H131900   5.084   4.411  17.182 -1.9110 -0.1475 -2.0397
 3495TIP3    H231901   5.043   4.503  17.294  0.9514  0.3296 -1.3119
 3496TIP3   OH231902   3.328   2.652   0.464  0.4113  0.0634 -0.0872
 3496TIP3    H131903   3.370   2.636   0.379  1.4414  3.8459 -0.5078
 3496TIP3    H231904   3.401   2.668   0.524 -0.3368  0.9635  0.6139
 3497TIP3   OH231905   3.273   6.201  12.442  0.1400  0.2078 -0.3006
 3497TIP3    H131906   3.208   6.169  12.505  0.8150  0.0104  0.3173
 3497TIP3    H231907   3.228   6.270  12.393 -0.4791  0.1883  0.2290
 3498TIP3   OH231908   5.344   3.025  16.104 -0.9212  0.5654  0.5781
 3498TIP3    H131909   5.282   2.975  16.051 -1.2466 -0.0979  1.5613
 3498TIP3    H231910   5.429   2.987  16.083 -0.7925  1.5971 -0.9098
 3499TIP3   OH231911   3.529   0.275  13.205  0.0229  0.0465  0.1936
 3499TIP3    H131912   3.437   0.249  13.210  0.4060 -1.2321  1.1083
 3499TIP3    H231913   3.527   0.368  13.183 -1.4761 -0.0128 -0.0139
 3500TIP3   OH231914   2.635   2.910   6.401 -0.0289 -0.3668 -0.0005
 3500TIP3    H131915   2.707   2.940   6.346 -0.3964 -1.0043 -0.8455
 3500TIP3    H231916   2.667   2.922   6.490  0.0734  1.9759 -0.2774
 3501TIP3   OH231917   6.144   4.250   6.826  0.3255 -0.2977 -0.0275
 3501TIP3    H131918   6.198   4.175   6.802 -1.0951 -1.0532 -0.9953
 3501TIP3    H231919   6.204   4.325   6.824  1.4488 -1.1843 -0.5075
 3502TIP3   OH231920   5.717   2.406   5.280 -0.1239  0.1567 -0.0752
 3502TIP3    H131921   5.809   2.423   5.301  0.3322 -1.5445 -0.5260
 3502TIP3    H231922   5.683   2.360   5.357 -0.2120 -0.4550 -0.4796
 3503TIP3   OH231923   0.952   4.874  13.509 -0.6360 -0.0437 -0.3175
 3503TIP3    H131924   0.985   4.791  13.543 -3.0898 -1.1180 -0.3265
 3503TIP3    H231925   1.006   4.941  13.550  1.8923 -1.6393 -0.8639
 3504TIP3   OH231926   3.156   5.151   5.806 -0.1635  0.2500 -0.5878
 3504TIP3    H131927   3.198   5.138   5.891  0.3968  1.0672 -0.7234
 3504TIP3    H231928   3.082   5.209   5.824  0.9190  1.7870 -0.8732
 3505TIP3   OH231929   5.199   5.793  16.367  0.1308 -0.0910  0.2233
 3505TIP3    H131930   5.201   5.874  16.418 -1.7817 -0.3070  0.7256
 3505TIP3    H231931   5.264   5.736  16.409 -0.5470  0.1743  1.6982
 3506TIP3   OH231932   0.579   0.158   5.278 -0.2526  0.2560 -0.0079
 3506TIP3    H131933   0.669   0.132   5.297 -0.3895  0.4860  0.9959
 3506TIP3    H231934   0.588   0.233   5.219  0.2256  0.6081  0.5062
 3507TIP3   OH231935   6.669   5.845   4.138  0.6996  0.5648 -0.1809
 3507TIP3    H131936   6.662   5.752   4.159 -1.1682  1.1935  2.5774
 3507TIP3    H231937   6.750   5.873   4.180 -0.3937  0.7535  1.9345
 3508TIP3   OH231938   1.284   4.474  12.520  0.0442 -0.1930  0.3271
 3508TIP3    H131939   1.324   4.534  12.584  1.2918 -1.7762  1.1085
 3508TIP3    H231940   1.358   4.442  12.468 -0.5876 -1.1208 -0.0116
 3509TIP3   OH231941   2.564   6.222  11.521  0.6418 -0.0501 -0.0306
 3509TIP3    H131942   2.659   6.221  11.512  0.5700  1.5850 -1.6843
 3509TIP3    H231943   2.537   6.301  11.474 -1.4967 -0.1929  0.8618
 3510TIP3   OH231944   4.713   3.796   2.119 -0.2708  0.3862  0.2930
 3510TIP3    H131945   4.629   3.779   2.077 -0.3139 -0.0356  0.5522
 3510TIP3    H231946   4.704   3.884   2.155  0.6772  1.9343 -2.8585
 3511TIP3   OH231947   1.210   2.078  15.128 -0.0220  0.4381  0.0515
 3511TIP3    H131948   1.286   2.122  15.167 -0.5539 -0.3048  2.0361
 3511TIP3    H231949   1.219   1.987  15.155 -0.5813 -0.0714 -1.4077
 3512TIP3   OH231950   6.605   3.254  14.879 -0.1940  0.6571 -0.0119
 3512TIP3    H131951   6.700   3.262  14.890 -0.0494  1.6566 -1.5977
 3512TIP3    H231952   6.590   3.277  14.787 -2.1138  2.0465  0.5761
 3513TIP3   OH231953   3.002   4.019   4.138 -0.3740 -0.0412  0.2505
 3513TIP3    H131954   2.952   3.993   4.216 -0.9755 -1.3057 -0.5384
 3513TIP3    H231955   3.093   4.003   4.162 -0.6584 -2.1747  0.1084
 3514TIP3   OH231956   5.361   1.462   0.353 -0.1505 -0.5188  0.3357
 3514TIP3    H131957   5.405   1.532   0.305 -0.7154 -1.2549 -1.3298
 3514TIP3    H231958   5.419   1.387   0.345 -0.7387 -0.9378 -0.1271
 3515TIP3   OH231959   3.859   2.836  16.964  0.3459 -0.3045  0.8508
 3515TIP3    H131960   3.776   2.841  17.011  0.2247 -1.8211  0.8676
 3515TIP3    H231961   3.840   2.871  16.877 -1.3391 -3.7777 -0.3758
 3516TIP3   OH231962   6.196   6.682  11.355 -0.4522  0.0551  0.4266
 3516TIP3    H131963   6.130   6.734  11.309 -0.5358  1.9275  2.5355
 3516TIP3    H231964   6.149   6.605  11.386 -1.0895  0.2546 -0.0375
 3517TIP3   OH231965   6.230   0.145   0.341  0.1106 -0.1219  0.3833
 3517TIP3    H131966   6.181   0.201   0.280 -1.6224 -1.9684 -0.0197
 3517TIP3    H231967   6.244   0.201   0.418 -0.6724  1.1825 -0.3759
 3518TIP3   OH231968   1.919   0.875  12.605 -0.6854 -0.2201  0.1670
 3518TIP3    H131969   1.845   0.838  12.654 -0.0003 -0.7391  0.8243
 3518TIP3    H231970   1.947   0.804  12.547 -0.1144 -0.3471  0.5889
 3519TIP3   OH231971   1.695   3.893   6.046  0.3085 -0.1748  0.1159
 3519TIP3    H131972   1.731   3.913   5.959 -0.9026  1.5712 -0.0295
 3519TIP3    H231973   1.761   3.836   6.086  2.7570  1.9921 -0.5293
 3520TIP3   OH231974   4.639   1.494   0.426  0.0273  0.1717  0.3784
 3520TIP3    H131975   4.711   1.556   0.415  1.2467 -0.9167  1.8565
 3520TIP3    H231976   4.666   1.416   0.379 -0.9569  0.2960 -0.4421
 3521TIP3   OH231977   3.418   1.167   3.823  0.1212 -0.3834 -0.0994
 3521TIP3    H131978   3.502   1.122   3.825  1.0025  0.8849 -2.9429
 3521TIP3    H231979   3.370   1.124   3.752 -1.3140 -0.5166  0.9172
 3522TIP3   OH231980   5.127   4.727   1.487 -0.4179  0.5433  0.0145
 3522TIP3    H131981   5.196   4.712   1.422  1.0715 -1.8009  1.9498
 3522TIP3    H231982   5.062   4.659   1.469 -0.1132  0.0361  0.7589
 3523TIP3   OH231983   4.219   6.129  16.952 -0.3408  0.4518 -0.4206
 3523TIP3    H131984   4.162   6.203  16.929  0.2965  0.3635 -2.5342
 3523TIP3    H231985   4.266   6.158  17.029 -3.1893  0.5211  1.4404
 3524TIP3   OH231986   5.298   2.330  11.911  0.1036 -0.0868  0.0002
 3524TIP3    H131987   5.288   2.373  11.997 -1.4733  1.1057 -0.7329
 3524TIP3    H231988   5.349   2.393  11.859 -0.2327 -0.1310 -0.3834
 3525TIP3   OH231989   0.197   0.923   4.139  0.0426  0.7784  0.1613
 3525TIP3    H131990   0.198   0.851   4.202  0.5555  1.9481  1.5250
 3525TIP3    H231991   0.288   0.932   4.112 -0.2586 -0.1625 -1.3446
 3526TIP3   OH231992   5.278   2.147  11.526  0.2222 -0.0087 -0.0217
 3526TIP3    H131993   5.362   2.161  11.483 -0.3943  0.1797 -1.2055
 3526TIP3    H231994   5.300   2.096  11.605  1.6706  1.7202  0.7600
 3527TIP3   OH231995   5.798   6.413  13.594  0.4630  0.2318 -0.0121
 3527TIP3    H131996   5.865   6.346  13.583  0.4314  0.4634 -1.9763
 3527TIP3    H231997   5.771   6.405  13.685  0.9255 -1.9670 -0.0123
 3528TIP3   OH231998   5.993   6.576   5.705 -0.1607  0.4595 -0.3076
 3528TIP3    H131999   6.010   6.670   5.696 -0.7654  0.5328 -0.7984
 3528TIP3    H232000   5.982   6.563   5.799  0.3319  0.8065 -0.1991
 3529TIP3   OH232001   1.280   2.642  12.176  0.1953 -0.3684  0.5003
 3529TIP3    H132002   1.222   2.594  12.235  0.6102 -3.0168 -1.1015
 3529TIP3    H232003   1.222   2.701  12.128 -0.7231 -0.9684  0.8540
 3530TIP3   OH232004   1.076   0.433  17.347 -0.7561 -0.6683 -0.1715
 3530TIP3    H132005   0.999   0.487  17.331 -0.4495 -0.4738 -1.0716
 3530TIP3    H232006   1.149   0.486  17.318 -0.0071  0.0683  2.7673
 3531TIP3   OH232007   1.714   1.042   4.533  0.1853  0.0994 -0.3236
 3531TIP3    H132008   1.691   1.135   4.533 -0.2496  0.0177 -1.7160
 3531TIP3    H232009   1.658   1.003   4.600 -1.2567  0.4941 -1.2556
 3532TIP3   OH232010   3.758   1.524  10.714  0.6120  0.5207  0.2177
 3532TIP3    H132011   3.775   1.598  10.772 -0.3596 -0.9443  2.5191
 3532TIP3    H232012   3.712   1.563  10.639  1.4454  2.4250  0.6404
 3533TIP3   OH232013   1.201   4.569  16.674 -0.0813  0.0047  0.9688
 3533TIP3    H132014   1.108   4.581  16.652  0.1244 -0.6236 -0.3858
 3533TIP3    H232015   1.201   4.503  16.742 -0.5661 -1.5186 -0.4443
 3534TIP3   OH232016   4.318   4.464   4.624 -0.1181 -0.1435  0.1580
 3534TIP3    H132017   4.353   4.485   4.710  0.1745 -2.6112  0.7135
 3534TIP3    H232018   4.367   4.520   4.564  0.8164  0.4594  1.4335
 3535TIP3   OH232019   5.326   1.101   1.631 -0.0091 -0.1600  0.0214
 3535TIP3    H132020   5.255   1.160   1.657 -1.8373 -1.6704 -1.3246
 3535TIP3    H232021   5.356   1.134   1.547 -0.5033 -0.6808 -0.3637
 3536TIP3   OH232022   0.888   6.197  11.507 -0.3713 -0.0513 -0.2139
 3536TIP3    H132023   0.835   6.271  11.537 -3.2561 -2.4954  1.2332
 3536TIP3    H232024   0.977   6.218  11.537 -1.4761  1.8168  2.0866
 3537TIP3   OH232025   3.329   3.676   5.064  0.1149  0.1201  0.3272
 3537TIP3    H132026   3.315   3.594   5.111  2.8149 -0.8832 -0.4230
 3537TIP3    H232027   3.262   3.677   4.996  0.2671 -1.6667  0.1130
 3538TIP3   OH232028   0.796   1.313   3.128 -0.3309  0.1051  0.0189
 3538TIP3    H132029   0.853   1.264   3.069  1.1981  0.1318  1.4315
 3538TIP3    H232030   0.767   1.388   3.075  2.4666  1.1402 -0.2187
 3539TIP3   OH232031   3.246   4.021   2.276  0.0024 -0.0690 -0.6001
 3539TIP3    H132032   3.288   4.024   2.362  1.9717  2.4593 -1.5228
 3539TIP3    H232033   3.264   3.932   2.244 -0.6556 -1.0099  1.4883
 3540TIP3   OH232034   3.627   3.704  15.119 -0.5458  0.1802  0.5119
 3540TIP3    H132035   3.548   3.725  15.069 -0.4460  0.1667  0.3469
 3540TIP3    H232036   3.604   3.626  15.169  0.1828 -1.4602 -1.5448
 3541TIP3   OH232037   6.638   1.030  13.575 -0.2027 -0.0443 -0.2152
 3541TIP3    H132038   6.558   0.979  13.586  0.2739 -1.3106 -2.0934
 3541TIP3    H232039   6.611   1.110  13.531 -0.3202 -1.1467 -2.2869
 3542TIP3   OH232040   1.352   3.531   5.338 -0.2322  0.2089 -0.4126
 3542TIP3    H132041   1.291   3.479   5.390  0.0825  1.1053  0.9181
 3542TIP3    H232042   1.301   3.605   5.307 -0.3142 -0.1035 -1.0275
 3543TIP3   OH232043   2.251   3.470  14.280  0.4368 -0.1819  0.2410
 3543TIP3    H132044   2.214   3.552  14.250  1.5567 -0.0952 -0.9654
 3543TIP3    H232045   2.294   3.433  14.203  3.5072  0.0980  1.6940
 3544TIP3   OH232046   3.273   5.784  16.177  0.3231 -0.1639 -0.1827
 3544TIP3    H132047   3.204   5.849  16.162  1.6605  0.8978 -2.0738
 3544TIP3    H232048   3.294   5.793  16.270 -0.1133  1.5468 -0.2153
 3545TIP3   OH232049   0.936   5.823   2.581  0.4736  0.3093  0.0765
 3545TIP3    H132050   0.896   5.900   2.540  0.5222  0.5275  0.4310
 3545TIP3    H232051   0.888   5.811   2.662 -1.9348 -2.1780 -1.5446
 3546TIP3   OH232052   3.122   4.348   2.918  0.1216  0.1349 -0.3718
 3546TIP3    H132053   3.036   4.316   2.893  0.7228 -2.4235  0.5780
 3546TIP3    H232054   3.129   4.434   2.875 -2.2706 -0.2400 -1.6699
 3547TIP3   OH232055   0.672   4.751   2.296  0.3998  0.2408 -0.2327
 3547TIP3    H132056   0.749   4.697   2.275  0.0372  0.2514 -1.7380
 3547TIP3    H232057   0.637   4.712   2.376  0.8295 -1.0230 -0.6197
 3548TIP3   OH232058   3.169   1.691   0.341 -0.4358  0.8916  0.2226
 3548TIP3    H132059   3.074   1.700   0.350 -0.3867  1.3050  0.3508
 3548TIP3    H232060   3.192   1.748   0.267 -0.3818  0.2214 -0.2810
 3549TIP3   OH232061   3.421   4.266   1.062 -0.0807 -0.1981 -0.0119
 3549TIP3    H132062   3.326   4.261   1.064 -0.2633  0.5065 -2.7109
 3549TIP3    H232063   3.445   4.232   0.976  2.1039 -0.1612  0.5242
 3550TIP3   OH232064   3.565   3.523  11.883 -0.0800  0.5547  0.1400
 3550TIP3    H132065   3.596   3.436  11.860 -0.0973  0.9214 -1.3825
 3550TIP3    H232066   3.639   3.565  11.925 -0.4917 -0.6236  2.1416
 3551TIP3   OH232067   0.878   5.079  17.076 -0.4222 -0.1366  0.1036
 3551TIP3    H132068   0.888   5.163  17.031  0.4173 -1.2454 -1.9114
 3551TIP3    H232069   0.870   5.102  17.168 -0.7807  2.1803 -0.4446
 3552TIP3   OH232070   5.637   5.445   0.424 -0.0033 -0.2089 -0.2927
 3552TIP3    H132071   5.700   5.505   0.464 -0.8141  1.0213 -0.8363
 3552TIP3    H232072   5.597   5.399   0.498  1.0203 -0.5157  0.0954
 3553TIP3   OH232073   5.037   3.313   6.198 -0.4692 -0.4887  0.3111
 3553TIP3    H132074   5.004   3.278   6.115 -1.3319 -1.4437  1.0380
 3553TIP3    H232075   4.962   3.309   6.257  0.2403 -0.1915  1.2468
 3554TIP3   OH232076   4.269   3.776  11.834 -0.0292 -0.7712 -0.3003
 3554TIP3    H132077   4.322   3.696  11.831  1.0635 -0.1956  1.7226
 3554TIP3    H232078   4.322   3.841  11.787  0.8396 -0.3579  1.1807
 3555TIP3   OH232079   4.260   3.011  12.401  0.0386  0.3514 -0.3832
 3555TIP3    H132080   4.295   3.059  12.476 -0.2277  0.1233 -0.1115
 3555TIP3    H232081   4.183   3.060  12.375  1.1740  1.5090 -1.7015
 3556TIP3   OH232082   4.059   2.689  15.639  0.2335  0.1455 -0.3653
 3556TIP3    H132083   4.089   2.705  15.550  2.6072 -0.7032  0.2017
 3556TIP3    H232084   4.016   2.771  15.665 -0.0324  0.5856 -2.0836
 3557TIP3   OH232085   0.601   6.367  16.123 -0.2210  0.3405  0.6956
 3557TIP3    H132086   0.573   6.454  16.097  0.9295  0.1211 -1.5420
 3557TIP3    H232087   0.693   6.377  16.147  0.0552 -0.3118 -0.0397
 3558TIP3   OH232088   5.841   3.051   4.628 -0.6015  0.0976  0.3190
 3558TIP3    H132089   5.789   3.129   4.645 -0.2957  0.1664  0.9917
 3558TIP3    H232090   5.783   2.993   4.578 -0.7969  0.7857 -0.2605
 3559TIP3   OH232091   4.678   2.149  15.254  0.4100  0.5231 -0.0895
 3559TIP3    H132092   4.768   2.183  15.247 -0.0518  1.4739 -2.9705
 3559TIP3    H232093   4.645   2.187  15.335  2.1916  1.2017  0.3816
 3560TIP3   OH232094   6.463   6.619   5.630 -0.8263  0.2566 -0.5426
 3560TIP3    H132095   6.558   6.627   5.620 -0.7096 -0.6499 -0.2547
 3560TIP3    H232096   6.427   6.661   5.552 -0.2120  1.1468 -0.3523
 3561TIP3   OH232097   6.715   3.692  17.164 -0.0663 -0.1049 -0.8867
 3561TIP3    H132098   6.651   3.751  17.124 -0.9134 -0.7197 -0.4834
 3561TIP3    H232099   6.775   3.749  17.211 -1.2241  0.4122  0.0026
 3562TIP3   OH232100   0.059   0.891  15.577  0.1909 -0.1806 -0.3415
 3562TIP3    H132101   0.056   0.819  15.514 -1.1547  0.3748 -0.9713
 3562TIP3    H232102  -0.033   0.912  15.593  0.5436  1.4778 -0.2813
 3563TIP3   OH232103   5.480   5.378   3.005 -0.2132  0.4361  0.6921
 3563TIP3    H132104   5.460   5.447   2.942 -1.1886 -1.1532 -0.8202
 3563TIP3    H232105   5.574   5.362   2.994  0.1983  1.9748  1.6044
 3564TIP3   OH232106   5.718   0.927  16.274  0.9823  0.9315 -0.0738
 3564TIP3    H132107   5.635   0.975  16.282  0.7090  0.3273  0.8975
 3564TIP3    H232108   5.715   0.862  16.344  0.9326 -1.1445 -1.8972
 3565TIP3   OH232109   0.551   5.025  11.545  0.6737  0.7914  0.1345
 3565TIP3    H132110   0.642   5.014  11.517 -0.3205  1.4195 -4.0771
 3565TIP3    H232111   0.523   4.937  11.572  2.3478  0.4810  0.9414
 3566TIP3   OH232112   5.866   0.396   2.236 -0.7086  0.2341  0.4545
 3566TIP3    H132113   5.905   0.362   2.317 -1.9864 -1.7786  0.2950
 3566TIP3    H232114   5.775   0.413   2.259 -0.8363  0.6259 -0.3066
 3567TIP3   OH232115   3.512   3.780   4.827 -0.0831 -0.0825 -0.5393
 3567TIP3    H132116   3.605   3.762   4.813 -0.3551  0.4024 -3.4474
 3567TIP3    H232117   3.496   3.747   4.916  3.3044  1.8350  1.0037
 3568TIP3   OH232118   0.684   4.420   1.948 -0.3146  0.1993  1.0887
 3568TIP3    H132119   0.663   4.330   1.975 -0.1089  0.2648  1.4744
 3568TIP3    H232120   0.780   4.423   1.950 -0.3016  0.2664  0.5416
 3569TIP3   OH232121   2.902   1.627   5.223  0.1178 -0.3253  0.4259
 3569TIP3    H132122   2.937   1.568   5.156 -0.8281 -1.9473  1.3008
 3569TIP3    H232123   2.808   1.613   5.220 -0.0936  0.8922  0.9204
 3570TIP3   OH232124   6.464   1.859   0.416 -0.4558  0.5143 -0.1612
 3570TIP3    H132125   6.441   1.916   0.490  0.3296  0.5411  0.0711
 3570TIP3    H232126   6.531   1.800   0.451 -0.9307 -0.2559 -0.5325
 3571TIP3   OH232127   5.159   2.535   3.375 -0.3003  0.0600 -0.6533
 3571TIP3    H132128   5.128   2.504   3.460 -2.0325 -2.8424 -2.1927
 3571TIP3    H232129   5.254   2.544   3.385 -0.4986  0.1198  1.6217
 3572TIP3   OH232130   5.745   3.179   4.967 -0.3874 -0.2654  0.3662
 3572TIP3    H132131   5.761   3.086   4.951 -0.0324 -0.4131  1.5002
 3572TIP3    H232132   5.832   3.219   4.965 -0.4061 -0.1729  1.1202
 3573TIP3   OH232133   3.035   3.374  15.145  0.3980 -0.7374 -0.6477
 3573TIP3    H132134   2.956   3.421  15.117  0.9016 -1.0667 -2.8145
 3573TIP3    H232135   3.006   3.284  15.156  0.4758 -0.8938 -1.6182
 3574TIP3   OH232136   0.167   0.182   4.545  0.2856  0.1558 -0.2444
 3574TIP3    H132137   0.149   0.194   4.639  0.6894 -0.6483 -0.0505
 3574TIP3    H232138   0.117   0.251   4.502 -3.4855 -2.0346  0.2101
 3575TIP3   OH232139   1.381   2.210   0.227 -0.5808  0.2617  0.0393
 3575TIP3    H132140   1.342   2.138   0.276  0.7583  1.0855  2.5084
 3575TIP3    H232141   1.474   2.186   0.220 -0.4162  1.0292 -0.4924
 3576TIP3   OH232142   2.732   3.101  16.059 -0.2107 -0.1467 -0.0895
 3576TIP3    H132143   2.659   3.045  16.088  0.8701 -1.0864  0.9132
 3576TIP3    H232144   2.690   3.182  16.032 -1.6861 -0.8392  0.0007
 3577TIP3   OH232145   3.465   3.030   3.661 -0.0067  0.2070 -0.0387
 3577TIP3    H132146   3.554   3.053   3.687  0.4387  1.4653 -2.3734
 3577TIP3    H232147   3.429   3.111   3.624 -2.4449 -0.0480  1.5419
 3578TIP3   OH232148   0.252   4.625   0.248  0.8204 -0.5932  0.4775
 3578TIP3    H132149   0.343   4.642   0.275  0.8501  0.0577  0.0009
 3578TIP3    H232150   0.258   4.548   0.192  1.6840  1.5082 -2.6040
 3579TIP3   OH232151   4.345   0.155   2.895  0.1439  0.0092 -0.2741
 3579TIP3    H132152   4.387   0.079   2.936  1.0239  0.6117 -0.0228
 3579TIP3    H232153   4.413   0.222   2.895 -0.2837  0.4615 -1.4733
 3580TIP3   OH232154   1.982   2.434  14.408  0.3977  0.4303  0.5040
 3580TIP3    H132155   1.899   2.426  14.363 -1.6514  0.8388  3.8535
 3580TIP3    H232156   2.005   2.527  14.401 -0.1489  0.5813  0.7325
 3581TIP3   OH232157   2.964   4.737  11.889 -0.4607  0.9298 -0.4169
 3581TIP3    H132158   2.903   4.701  11.824 -1.0817  1.5111 -0.1716
 3581TIP3    H232159   2.994   4.661  11.938  1.2745  0.2421 -2.3917
 3582TIP3   OH232160   2.362   1.828  14.735 -0.1056 -0.7061 -0.1950
 3582TIP3    H132161   2.348   1.887  14.809 -3.7454 -2.0429  0.3813
 3582TIP3    H232162   2.297   1.855  14.670  0.3473 -2.0479 -1.2516
 3583TIP3   OH232163   2.774   3.716   2.413 -0.2589 -0.5458 -0.3402
 3583TIP3    H132164   2.854   3.716   2.360  1.2606  1.3089  1.7333
 3583TIP3    H232165   2.746   3.808   2.412 -0.8763 -0.7063  1.0145
 3584TIP3   OH232166   0.783   0.763   4.215 -0.1309  0.1710 -0.0796
 3584TIP3    H132167   0.780   0.690   4.153  0.1056 -0.1397  0.2717
 3584TIP3    H232168   0.716   0.742   4.280  0.9741 -0.5033  0.8604
 3585TIP3   OH232169   4.328   2.478  17.261 -0.3331 -0.4123 -0.0817
 3585TIP3    H132170   4.396   2.423  17.223  1.1192  0.8192  0.6307
 3585TIP3    H232171   4.279   2.419  17.319  0.1328 -1.3136 -0.5892
 3586TIP3   OH232172   1.232   0.365  13.589 -0.1844 -0.9219 -0.0042
 3586TIP3    H132173   1.227   0.449  13.543 -0.8633  0.3897  2.3238
 3586TIP3    H232174   1.325   0.343  13.589  0.1345  0.3449  0.1704
 3587TIP3   OH232175   4.330   2.106   3.822 -0.2339 -0.5637  0.3769
 3587TIP3    H132176   4.337   2.086   3.915 -0.8917  0.6927  0.7181
 3587TIP3    H232177   4.270   2.180   3.818  1.1342  0.5373 -0.8959
 3588TIP3   OH232178   1.423   6.032  15.345  0.2974  0.4264  0.0093
 3588TIP3    H132179   1.414   5.945  15.384 -2.2445 -0.8414 -3.0014
 3588TIP3    H232180   1.358   6.086  15.391  0.3599  0.1464  0.4301
 3589TIP3   OH232181   2.818   3.316  14.935 -0.1706 -0.1890 -0.2048
 3589TIP3    H132182   2.883   3.357  14.878 -2.6787  2.6393 -1.3354
 3589TIP3    H232183   2.819   3.223  14.911  1.9580  0.1319 -1.5993
 3590TIP3   OH232184   4.885   3.106   0.727  0.7894  0.4227  0.1791
 3590TIP3    H132185   4.800   3.126   0.687  0.5917  0.8429  0.7945
 3590TIP3    H232186   4.932   3.058   0.660  0.1457  0.3824 -0.2541
 3591TIP3   OH232187   5.499   4.349   3.120  0.0546  0.3394  0.0391
 3591TIP3    H132188   5.413   4.341   3.078  0.5881  0.4541 -1.1304
 3591TIP3    H232189   5.501   4.278   3.183 -1.6499  1.4922  1.4950
 3592TIP3   OH232190   3.488   1.413   1.645 -0.9061  0.5350 -0.1260
 3592TIP3    H132191   3.581   1.405   1.662 -1.1831 -0.4291  1.0066
 3592TIP3    H232192   3.475   1.370   1.560 -0.1002  2.1326 -1.1176
 3593TIP3   OH232193   4.329   6.113  16.293  0.1946 -0.7598  0.2822
 3593TIP3    H132194   4.417   6.103  16.329 -1.0098 -0.5803  3.6393
 3593TIP3    H232195   4.305   6.025  16.264  0.8782 -1.1407  0.8543
 3594TIP3   OH232196   6.103   2.065  15.021 -0.0189  0.0941  0.1098
 3594TIP3    H132197   6.093   2.032  14.932 -1.6071  1.1375 -0.1527
 3594TIP3    H232198   6.140   1.992  15.070 -0.5049 -0.9937 -1.0869
 3595TIP3   OH232199   5.963   0.079   1.406 -0.0176  0.2723 -0.0979
 3595TIP3    H132200   5.984   0.159   1.359 -0.6641  0.6167  0.1828
 3595TIP3    H232201   5.890   0.041   1.357  1.3324 -1.0318 -1.2028
 3596TIP3   OH232202   6.688   2.441  13.052 -0.2229 -0.3240 -0.3700
 3596TIP3    H132203   6.664   2.435  13.144  0.5524  0.7491 -0.0844
 3596TIP3    H232204   6.610   2.410  13.005 -0.6173 -0.8960  0.6335
 3597TIP3   OH232205   2.622   6.259  17.004  0.3074  0.1319 -0.0495
 3597TIP3    H132206   2.588   6.209  16.929 -1.7041 -0.7146  1.3349
 3597TIP3    H232207   2.717   6.251  16.997  0.1107 -1.8881 -1.2508
 3598TIP3   OH232208   0.764   3.483   2.130 -0.2216 -0.3598  0.0829
 3598TIP3    H132209   0.800   3.516   2.048  2.0377  0.0402  1.1681
 3598TIP3    H232210   0.675   3.455   2.107  0.9346 -2.0635 -2.9351
 3599TIP3   OH232211   5.785   2.043   2.764 -0.4976  0.1040  0.0765
 3599TIP3    H132212   5.734   1.971   2.801 -1.8643 -0.0097 -1.9017
 3599TIP3    H232213   5.857   2.001   2.717 -0.6458  0.0856 -0.1342
 3600TIP3   OH232214   5.639   3.620   5.584  0.3976 -0.0583 -0.0105
 3600TIP3    H132215   5.688   3.630   5.503 -0.0500 -0.0986 -0.2929
 3600TIP3    H232216   5.565   3.681   5.576  1.8198  2.0156  1.5563
 3601TIP3   OH232217   3.566   1.485   4.744 -0.0145 -0.0184 -0.0842
 3601TIP3    H132218   3.652   1.446   4.729 -0.1106 -0.4199  0.4027
 3601TIP3    H232219   3.532   1.501   4.656 -0.4432 -2.0925 -0.3403
 3602TIP3   OH232220   4.950   6.707   5.402  0.1969 -0.0923  0.1659
 3602TIP3    H132221   5.030   6.751   5.433 -0.0498  0.1045  0.5293
 3602TIP3    H232222   4.880   6.771   5.416 -0.2651 -0.8164  1.2819
 3603TIP3   OH232223   3.182   2.875   3.138  0.4050  0.0172  0.5969
 3603TIP3    H132224   3.185   2.962   3.178 -2.2767 -0.0749  1.1591
 3603TIP3    H232225   3.130   2.823   3.198  0.5845 -1.5501 -0.5554
 3604TIP3   OH232226   3.884   0.412   5.308 -0.3837 -0.1393 -0.2410
 3604TIP3    H132227   3.894   0.423   5.214 -0.2557 -1.3037 -0.3850
 3604TIP3    H232228   3.949   0.472   5.346 -2.3237  2.4571 -0.7554
 3605TIP3   OH232229   6.666   3.218  16.080  0.3090 -0.2242 -0.3901
 3605TIP3    H132230   6.695   3.288  16.020 -0.0675  0.5697  0.3369
 3605TIP3    H232231   6.743   3.162  16.090  1.6091  1.7644  1.3880
 3606TIP3   OH232232   0.177   1.653   0.789 -0.4301  0.0089  0.5350
 3606TIP3    H132233   0.242   1.679   0.724 -1.0976 -0.1461 -0.2142
 3606TIP3    H232234   0.204   1.698   0.869  0.5159  0.0491  0.2030
 3607TIP3   OH232235   4.114   2.815  15.390  0.2289 -0.3237  0.2951
 3607TIP3    H132236   4.094   2.785  15.301 -1.8896  0.2594  0.5164
 3607TIP3    H232237   4.208   2.829  15.390  0.4629 -1.5867 -1.4608
 3608TIP3   OH232238   0.356   1.913  15.001 -0.2433  0.2310 -0.1526
 3608TIP3    H132239   0.399   1.997  14.982 -1.6994  0.6263 -1.9297
 3608TIP3    H232240   0.337   1.876  14.916  0.0664 -1.8024  0.6164
 3609TIP3   OH232241   2.188   0.983  15.974 -0.4198  0.4555 -0.8597
 3609TIP3    H132242   2.191   0.908  16.033  1.5174  1.5490  0.5301
 3609TIP3    H232243   2.136   0.952  15.899  0.6576 -2.3777 -0.5600
 3610TIP3   OH232244   0.672   1.181  16.899 -0.4694 -0.5785  0.2801
 3610TIP3    H132245   0.633   1.255  16.852  0.4683 -1.0466 -1.3207
 3610TIP3    H232246   0.738   1.147  16.839 -0.9197 -2.7669  0.9606
 3611TIP3   OH232247   4.549   6.607   0.450 -0.3017  0.1074 -0.1953
 3611TIP3    H132248   4.502   6.525   0.466 -1.2150  0.3458 -1.4692
 3611TIP3    H232249   4.480   6.672   0.436  0.4118  0.9806  0.2444
 3612TIP3   OH232250   4.375   0.456  14.721 -0.0374 -0.0163  0.5604
 3612TIP3    H132251   4.395   0.401  14.645  0.9316  0.2122  0.6268
 3612TIP3    H232252   4.285   0.486  14.707  0.8504  1.9519 -1.7782
 3613TIP3   OH232253   0.890   2.571  14.619 -0.1513 -0.3352  0.2509
 3613TIP3    H132254   0.953   2.500  14.630  1.7951  1.3723  0.5699
 3613TIP3    H232255   0.848   2.579  14.705 -0.8801 -1.5011  0.0264
 3614TIP3   OH232256   0.457   1.405  16.643 -0.2670 -0.0839  0.6394
 3614TIP3    H132257   0.443   1.320  16.684  1.8631 -0.4747  0.6734
 3614TIP3    H232258   0.427   1.394  16.553  0.9203 -1.2274  0.3519
 3615TIP3   OH232259   3.614   2.420  12.194 -0.0075  0.1149 -0.5563
 3615TIP3    H132260   3.585   2.376  12.274  0.7558  2.3361  1.0235
 3615TIP3    H232261   3.676   2.359  12.154  1.5732 -0.0180  1.9172
 3616TIP3   OH232262   4.005   2.967   5.649 -0.4070  0.1465 -0.1634
 3616TIP3    H132263   4.015   2.906   5.723 -1.0932  1.0675  0.7113
 3616TIP3    H232264   4.094   2.979   5.616 -0.2605 -1.4246 -0.4571
 3617TIP3   OH232265   2.670   5.829   1.227  0.0170 -0.3986  0.1593
 3617TIP3    H132266   2.619   5.895   1.180 -0.6970 -0.8299  0.3082
 3617TIP3    H232267   2.728   5.880   1.284 -0.6136  0.1104  0.3668
 3618TIP3   OH232268   4.461   0.157  16.576  0.3706  0.3666 -0.1683
 3618TIP3    H132269   4.432   0.195  16.659 -2.1941  1.0631 -1.2838
 3618TIP3    H232270   4.461   0.062  16.593  0.6544  0.5315  0.8336
 3619TIP3   OH232271   3.054   4.148  11.989  0.0286  0.2339  0.3852
 3619TIP3    H132272   2.996   4.155  12.064 -0.0981 -1.3355  0.4674
 3619TIP3    H232273   3.031   4.222  11.933 -1.4284  0.1364  0.8352
 3620TIP3   OH232274   3.880   4.718  14.384  0.1877  0.0811 -0.0507
 3620TIP3    H132275   3.930   4.645  14.420 -1.2941 -0.7020  0.5361
 3620TIP3    H232276   3.944   4.787  14.370  1.8400 -1.7130 -1.7696
 3621TIP3   OH232277   6.287   6.099   3.967 -0.1862  0.1505 -0.0819
 3621TIP3    H132278   6.328   6.012   3.965 -1.4255 -0.4434 -0.8339
 3621TIP3    H232279   6.359   6.159   3.990  0.4559 -1.1824  1.5649
 3622TIP3   OH232280   2.035   5.588  13.506 -0.0187 -0.1180 -0.2018
 3622TIP3    H132281   1.978   5.540  13.565 -0.3040 -0.4943 -0.7747
 3622TIP3    H232282   2.041   5.533  13.428 -0.7156  0.9509 -1.0517
 3623TIP3   OH232283   1.857   1.783  15.930  0.0194 -0.2309 -0.0877
 3623TIP3    H132284   1.797   1.810  15.861 -0.5340  0.2907  0.5787
 3623TIP3    H232285   1.930   1.741  15.884 -0.4393 -0.0895 -0.9626
 3624TIP3   OH232286   5.543   4.093  15.941 -0.2304 -0.4168 -0.1673
 3624TIP3    H132287   5.622   4.126  15.985  0.3710 -0.1246 -1.4310
 3624TIP3    H232288   5.549   3.998  15.949  0.2063 -0.3914 -0.1796
 3625TIP3   OH232289   6.021   4.812  16.797  0.2643 -0.2899  0.0253
 3625TIP3    H132290   5.932   4.801  16.764 -0.3659  0.7924  1.2597
 3625TIP3    H232291   6.078   4.785  16.725 -1.0551 -1.4866 -0.6008
 3626TIP3   OH232292   5.420   0.427   0.105 -0.1880  0.2026  0.2976
 3626TIP3    H132293   5.512   0.418   0.080 -0.3605 -1.9032  0.2764
 3626TIP3    H232294   5.404   0.521   0.102  1.6770  0.5392 -0.7236
 3627TIP3   OH232295   2.764   5.342  13.081  0.1507 -0.3488  0.5087
 3627TIP3    H132296   2.717   5.423  13.060 -0.5185 -0.9153 -0.2399
 3627TIP3    H232297   2.697   5.281  13.110  0.1233 -1.6482 -1.9896
 3628TIP3   OH232298   4.330   0.791  14.484 -0.0657 -0.2673 -0.0407
 3628TIP3    H132299   4.376   0.770  14.566 -0.3876 -0.6662  0.0381
 3628TIP3    H232300   4.380   0.744  14.417 -0.9021 -1.4914  0.1582
 3629TIP3   OH232301   2.825   6.458   3.290 -0.4741 -0.2620  0.9692
 3629TIP3    H132302   2.772   6.431   3.215  2.0910 -2.3817 -0.2340
 3629TIP3    H232303   2.806   6.552   3.300 -1.2983 -0.0144 -1.9977
 3630TIP3   OH232304   1.653   6.295  15.250  0.0349  0.4235 -0.0110
 3630TIP3    H132305   1.646   6.386  15.222  1.0829  0.6021  0.2770
 3630TIP3    H232306   1.577   6.282  15.308 -0.2123  1.0554 -0.1859
 3631TIP3   OH232307   3.007   4.697   4.986  0.0146  0.5508 -0.0420
 3631TIP3    H132308   2.999   4.753   4.908  1.9129  1.1506  0.1360
 3631TIP3    H232309   3.078   4.737   5.036 -1.8979  0.8780  2.6333
 3632TIP3   OH232310   3.992   0.131  14.509 -0.5132 -0.5200 -0.3807
 3632TIP3    H132311   3.988   0.176  14.424  0.5956  1.6536  0.6280
 3632TIP3    H232312   3.901   0.109  14.529 -1.1174  1.2147 -1.0171
 3633TIP3   OH232313   2.667   6.682  12.162  0.1344  0.1184  0.0525
 3633TIP3    H132314   2.625   6.666  12.247 -0.7262  2.4504  0.1615
 3633TIP3    H232315   2.708   6.768  12.172 -1.8678  1.5335 -2.4757
 3634TIP3   OH232316   5.339   3.707   5.484 -0.3117 -0.0414 -0.4056
 3634TIP3    H132317   5.264   3.744   5.437  0.2753  1.4354 -0.2503
 3634TIP3    H232318   5.360   3.627   5.437 -0.0679  1.1164 -2.3930
 3635TIP3   OH232319   1.715   1.930  14.558 -0.7443  0.5810  0.0715
 3635TIP3    H132320   1.782   1.864  14.576  0.3740  1.6834  0.0097
 3635TIP3    H232321   1.694   1.967  14.643  1.0285  2.4090 -0.2283
 3636TIP3   OH232322   2.568   3.306  14.844  0.5481  0.1229  0.1454
 3636TIP3    H132323   2.510   3.347  14.909 -0.1620  1.6695 -1.4069
 3636TIP3    H232324   2.656   3.325  14.875  0.3213 -1.6979  2.1907
 3637TIP3   OH232325   3.037   1.921  13.501  0.0539  0.2973 -0.8105
 3637TIP3    H132326   3.058   2.012  13.480  1.6733 -0.2646 -1.7836
 3637TIP3    H232327   3.016   1.881  13.417 -0.5656 -0.2579 -0.4001
 3638TIP3   OH232328   3.106   4.940   1.882  0.5224 -0.0941 -0.2824
 3638TIP3    H132329   3.125   4.868   1.822  0.7694 -0.0840 -0.2152
 3638TIP3    H232330   3.012   4.956   1.870  0.4007 -0.6203 -0.0847
 3639TIP3   OH232331   2.925   3.877  16.196  0.5546  0.7627  0.1499
 3639TIP3    H132332   2.843   3.884  16.147  1.7231  1.3387 -1.8284
 3639TIP3    H232333   2.952   3.968  16.211  0.9441  0.5760  0.5969
 3640TIP3   OH232334   0.617   0.856  12.119 -0.0097 -0.1491  0.7620
 3640TIP3    H132335   0.536   0.901  12.096  1.6042  2.6584  0.1957
 3640TIP3    H232336   0.680   0.882  12.052  1.2768 -2.7878  0.8001
 3641TIP3   OH232337   6.200   1.549   6.359 -0.0119 -0.5068  0.2103
 3641TIP3    H132338   6.183   1.584   6.447 -1.6382  1.9313 -0.9824
 3641TIP3    H232339   6.292   1.524   6.360  0.4125  0.9568  2.1263
 3642TIP3   OH232340   3.275   5.907   1.029  0.8019  0.2090  0.1608
 3642TIP3    H132341   3.321   5.823   1.023 -2.9152 -2.2880  2.5800
 3642TIP3    H232342   3.182   5.884   1.028 -0.6031  4.6683 -2.3109
 3643TIP3   OH232343   5.438   2.685   1.075  0.1520 -0.0475  0.0213
 3643TIP3    H132344   5.457   2.631   0.998  1.0281  2.6273 -1.8069
 3643TIP3    H232345   5.471   2.772   1.051 -0.2191  1.0747  3.1837
 3644TIP3   OH232346   2.367   5.139   6.757 -0.1551 -0.5253  0.3207
 3644TIP3    H132347   2.436   5.074   6.746  0.1691  0.1768 -2.4221
 3644TIP3    H232348   2.414   5.223   6.765 -0.6447 -0.3419  1.5819
 3645TIP3   OH232349   3.774   2.494   2.936  0.1336  0.0343  0.0913
 3645TIP3    H132350   3.720   2.419   2.913 -0.8865 -0.1216  2.6653
 3645TIP3    H232351   3.864   2.464   2.924 -0.2794 -1.0672 -0.3710
 3646TIP3   OH232352   0.662   2.487   1.422  0.5506  0.8327 -0.0337
 3646TIP3    H132353   0.624   2.439   1.348  0.8141  2.5305 -1.3479
 3646TIP3    H232354   0.693   2.419   1.481 -0.6181 -0.5976 -0.9768
 3647TIP3   OH232355   1.423   4.700  11.536 -0.7668 -0.0441 -0.1167
 3647TIP3    H132356   1.432   4.793  11.556 -0.0443 -0.0528 -0.3393
 3647TIP3    H232357   1.329   4.683  11.535 -0.9267  0.8422 -0.7464
 3648TIP3   OH232358   1.641   3.202   2.672 -0.2466 -0.1426 -0.0412
 3648TIP3    H132359   1.575   3.179   2.736 -0.2260 -0.9101 -0.2793
 3648TIP3    H232360   1.675   3.118   2.641  1.0933  0.2218  0.3354
 3649TIP3   OH232361   2.995   1.666  16.605  0.0482 -0.2239  0.4180
 3649TIP3    H132362   2.959   1.594  16.553  0.4871 -0.3013  0.2137
 3649TIP3    H232363   2.986   1.637  16.696 -2.7920  0.8442  0.5735
 3650TIP3   OH232364   1.455   0.305  12.685  0.2094  0.2616 -0.4757
 3650TIP3    H132365   1.531   0.362  12.687 -0.0712  0.9035  4.6575
 3650TIP3    H232366   1.486   0.222  12.722 -1.3149  0.1883  0.7145
 3651TIP3   OH232367   6.334   6.227   2.552  0.0412 -0.3985  0.3236
 3651TIP3    H132368   6.263   6.275   2.509  0.0749  0.9318  1.6698
 3651TIP3    H232369   6.298   6.203   2.637  1.0358 -0.1499  0.8222
 3652TIP3   OH232370   2.591   6.675  11.870  0.3609  0.0800 -0.0562
 3652TIP3    H132371   2.620   6.699  11.958  0.2309  1.1840 -0.2935
 3652TIP3    H232372   2.672   6.675  11.817  0.3184  0.3030 -0.1214
 3653TIP3   OH232373   5.923   3.792   1.625  0.0773 -0.3776  0.0711
 3653TIP3    H132374   5.945   3.700   1.640 -0.6240 -0.5694 -0.0185
 3653TIP3    H232375   5.914   3.829   1.713  0.1259 -0.4524  0.1073
 3654TIP3   OH232376   3.672   3.394   2.724 -0.2390  0.0304  0.4906
 3654TIP3    H132377   3.639   3.306   2.745 -0.1436 -0.2133 -0.3675
 3654TIP3    H232378   3.675   3.397   2.629  0.9815  0.5080  0.5169
 3655TIP3   OH232379   1.622   0.276   4.204 -0.0639 -0.5227 -0.0735
 3655TIP3    H132380   1.609   0.201   4.262  0.7338 -0.5177  0.1291
 3655TIP3    H232381   1.542   0.281   4.151  0.0165 -1.7128 -0.3179
 3656TIP3   OH232382   2.078   4.211   1.890 -0.0391  0.4666  0.0514
 3656TIP3    H132383   2.080   4.115   1.894  0.8776  0.4793  0.1955
 3656TIP3    H232384   2.155   4.234   1.838  0.2491  1.1551  0.7658
 3657TIP3   OH232385   6.508   4.816  15.026  0.1300  0.2433  0.3144
 3657TIP3    H132386   6.492   4.806  15.119 -1.5814  1.4847  0.2101
 3657TIP3    H232387   6.448   4.885  14.999 -0.1021 -0.7336 -1.8869
 3658TIP3   OH232388   4.954   6.697   1.898  0.0811  0.5240  0.7436
 3658TIP3    H132389   4.983   6.608   1.877  0.0869  0.5084  0.8204
 3658TIP3    H232390   4.960   6.703   1.993 -1.1591  0.1703  0.8563
 3659TIP3   OH232391   2.360   1.681   1.494  0.5063  0.6636  0.4918
 3659TIP3    H132392   2.286   1.634   1.531 -0.4485  0.5759 -1.4130
 3659TIP3    H232393   2.425   1.613   1.476  1.5040  0.8419  2.9893
 3660TIP3   OH232394   3.202   5.804   6.074  0.5085 -0.6624 -0.2086
 3660TIP3    H132395   3.259   5.734   6.108  0.0355 -1.1902 -0.4940
 3660TIP3    H232396   3.206   5.872   6.141  1.8478 -0.4851 -0.4400
 3661TIP3   OH232397   2.029   6.737  14.776  0.0181  0.4621  0.1038
 3661TIP3    H132398   1.959   6.755  14.713  0.1116  1.6619  0.3196
 3661TIP3    H232399   2.001   6.781  14.856  1.5879  2.0832 -0.1715
 3662TIP3   OH232400   3.288   3.680   4.274  0.3058 -0.2230  0.0272
 3662TIP3    H132401   3.288   3.772   4.301 -3.6850  0.7768 -2.5503
 3662TIP3    H232402   3.357   3.675   4.207 -0.5334  1.3915 -1.0109
 3663TIP3   OH232403   5.332   2.787   4.602 -0.6446 -0.0250  0.0459
 3663TIP3    H132404   5.300   2.877   4.603 -0.7080 -0.0386 -0.3885
 3663TIP3    H232405   5.427   2.795   4.611 -0.5261  0.1605 -1.1631
 3664TIP3   OH232406   0.187   2.678  16.841  0.2207  0.3213 -0.2500
 3664TIP3    H132407   0.203   2.587  16.863  1.0510  0.6521  0.5772
 3664TIP3    H232408   0.238   2.693  16.761  2.6580  0.8497  1.3116
 3665TIP3   OH232409   0.911   4.283  12.204 -0.8350 -0.0223  0.1404
 3665TIP3    H132410   0.856   4.207  12.224 -0.7349 -0.3344 -0.7203
 3665TIP3    H232411   0.999   4.256  12.229 -1.1320  0.7111  2.1273
 3666TIP3   OH232412   3.872   5.594   4.947  0.2023  0.2145 -0.5074
 3666TIP3    H132413   3.778   5.608   4.940 -0.2569 -1.1765  2.0071
 3666TIP3    H232414   3.893   5.537   4.872 -0.9624  0.4230 -1.0151
 3667TIP3   OH232415   3.613   1.471  12.840  0.0317  0.2782  0.3042
 3667TIP3    H132416   3.560   1.479  12.760  0.5745 -2.3121 -0.3792
 3667TIP3    H232417   3.694   1.518  12.820 -0.1612  0.3320 -0.3652
 3668TIP3   OH232418   1.427   1.972   5.786  0.7890 -0.5250  0.0361
 3668TIP3    H132419   1.344   1.925   5.782  0.8773 -0.6727 -0.0460
 3668TIP3    H232420   1.446   1.997   5.696  1.9783 -2.4786 -0.3120
 3669TIP3   OH232421   4.923   0.592  15.387 -0.1279  0.7797  0.2339
 3669TIP3    H132422   5.014   0.583  15.359 -0.2972  2.9521 -1.2706
 3669TIP3    H232423   4.923   0.664  15.450 -0.7638  0.7056  0.3303
 3670TIP3   OH232424   0.880   3.425  12.790  0.1877 -0.3017  0.3892
 3670TIP3    H132425   0.884   3.492  12.858  0.4462 -0.0615  0.1382
 3670TIP3    H232426   0.787   3.420  12.767 -0.1830 -1.5683  1.9279
 3671TIP3   OH232427   2.138   5.983  13.853 -0.1858  0.3684 -0.2861
 3671TIP3    H132428   2.112   5.892  13.868 -0.8747  0.3455 -1.4873
 3671TIP3    H232429   2.134   6.023  13.940 -1.4339 -0.3611  0.0276
 3672TIP3   OH232430   6.444   3.601  11.158 -0.2650 -0.3075  0.1871
 3672TIP3    H132431   6.489   3.524  11.123  2.5915  1.5246 -0.6234
 3672TIP3    H232432   6.405   3.643  11.081  1.3026  0.8559 -0.0271
 3673TIP3   OH232433   3.046   4.285  14.325 -0.0448 -0.6624 -0.8852
 3673TIP3    H132434   2.996   4.309  14.247 -0.0332 -0.3046 -0.7859
 3673TIP3    H232435   3.042   4.363  14.380 -0.9207 -1.2665 -0.0696
 3674TIP3   OH232436   6.457   1.844  15.562  0.7140 -0.5904  0.2145
 3674TIP3    H132437   6.467   1.767  15.618  0.0070  0.0602  1.2679
 3674TIP3    H232438   6.501   1.915  15.610 -0.4207  0.1112  0.2674
 3675TIP3   OH232439   2.764   1.412   1.165  0.5042 -0.7100  0.2277
 3675TIP3    H132440   2.706   1.359   1.111  1.2455 -2.2201  0.8461
 3675TIP3    H232441   2.742   1.502   1.142 -0.7538 -1.2641 -0.9196
 3676TIP3   OH232442   4.817   5.785  15.695 -0.4733 -0.3162  0.1648
 3676TIP3    H132443   4.722   5.782  15.681 -0.5029  0.5993  0.1123
 3676TIP3    H232444   4.853   5.721  15.634 -0.9829  0.0773 -0.5621
 3677TIP3   OH232445   4.625   3.687   6.296 -0.2417  0.7847  0.1788
 3677TIP3    H132446   4.694   3.621   6.286 -0.9614 -0.0659  0.6215
 3677TIP3    H232447   4.669   3.771   6.282  0.5249  0.1765 -1.2593
 3678TIP3   OH232448   3.728   6.431   4.472  0.2305 -0.0043 -0.1595
 3678TIP3    H132449   3.803   6.376   4.449 -0.6994 -1.6441  0.5703
 3678TIP3    H232450   3.717   6.420   4.566 -0.3019  1.0622 -0.0743
 3679TIP3   OH232451   0.005   4.540   5.946 -0.4764  0.2265 -0.0025
 3679TIP3    H132452   0.019   4.449   5.973 -1.5515  0.2627  0.7286
 3679TIP3    H232453  -0.028   4.583   6.024 -0.5743  1.1059 -0.5187
 3680TIP3   OH232454   2.632   4.146   3.607  0.6027  0.1720  0.6917
 3680TIP3    H132455   2.598   4.167   3.694 -0.9866 -3.2778  1.0431
 3680TIP3    H232456   2.725   4.126   3.622 -0.2505 -3.2817  2.3097
 3681TIP3   OH232457   5.082   1.880   0.643  0.5365  0.5229  0.3515
 3681TIP3    H132458   5.054   1.876   0.552  1.0246  0.9408  0.1824
 3681TIP3    H232459   5.115   1.792   0.662  0.2027  0.3624  0.2051
 3682TIP3   OH232460   6.593   5.077  13.916 -0.4512 -0.3956 -0.1827
 3682TIP3    H132461   6.535   5.023  13.968 -1.6863  0.7664 -0.2914
 3682TIP3    H232462   6.615   5.151  13.972 -1.3125  0.5630 -1.0696
 3683TIP3   OH232463   2.007   4.477   0.708 -0.1952  0.2733 -0.0276
 3683TIP3    H132464   2.082   4.527   0.740  0.2118  0.6492 -1.4663
 3683TIP3    H232465   1.931   4.514   0.754 -0.0600  3.0031 -1.7618
 3684TIP3   OH232466   0.930   3.016   1.196 -0.3576 -0.0140 -0.0134
 3684TIP3    H132467   0.949   2.962   1.119 -2.1279 -1.2817  0.3880
 3684TIP3    H232468   0.852   3.065   1.172 -0.2877  0.4026  0.5930
 3685TIP3   OH232469   5.022   1.488   3.884  0.7094 -0.3324  0.5372
 3685TIP3    H132470   5.117   1.490   3.895  0.6027  0.2993  1.4701
 3685TIP3    H232471   4.987   1.494   3.973 -0.2223 -3.2316  0.4862
 3686TIP3   OH232472   5.749   2.107  15.953  0.1034 -0.3951  0.1870
 3686TIP3    H132473   5.718   2.186  15.998 -0.5558 -0.0779 -0.7909
 3686TIP3    H232474   5.702   2.035  15.996 -1.5231  0.0184 -0.7979
 3687TIP3   OH232475   4.048   2.639  13.872 -0.2241 -0.0188 -0.2420
 3687TIP3    H132476   4.129   2.667  13.829 -0.2082  1.8523  0.9039
 3687TIP3    H232477   4.028   2.555  13.831  0.7162  0.8121 -2.6503
 3688TIP3   OH232478   3.005   0.767  14.626 -0.0098  0.6066  0.4004
 3688TIP3    H132479   2.986   0.842  14.569  0.3837 -1.1426 -2.2160
 3688TIP3    H232480   2.943   0.699  14.599  1.7813 -1.0982  0.2818
 3689TIP3   OH232481   3.725   3.173   4.372 -0.3811 -0.0442  0.3213
 3689TIP3    H132482   3.656   3.207   4.428 -0.0371  0.0494  0.6981
 3689TIP3    H232483   3.793   3.240   4.375  0.5188 -0.9554  1.4683
 3690TIP3   OH232484   3.035   6.240   2.700  0.3200 -0.4618  0.1063
 3690TIP3    H132485   3.088   6.256   2.621  1.1023 -0.2145  0.6652
 3690TIP3    H232486   3.042   6.146   2.714 -0.0480 -0.5465 -0.2786
 3691TIP3   OH232487   0.802   3.023   5.364  0.0870  0.0184  0.3637
 3691TIP3    H132488   0.803   3.096   5.425  0.0107  0.2333  0.1104
 3691TIP3    H232489   0.882   2.974   5.383  0.2233  0.2635  0.4194
 3692TIP3   OH232490   2.517   6.193  12.028 -0.2640 -0.4343  0.2297
 3692TIP3    H132491   2.497   6.170  11.937  0.4275 -1.7440  0.3889
 3692TIP3    H232492   2.433   6.223  12.063 -0.3353  1.0748 -1.0968
 3693TIP3   OH232493   2.344   4.639  13.610  0.0654  0.5414 -0.4435
 3693TIP3    H132494   2.294   4.643  13.691  0.4817  1.7975 -0.2226
 3693TIP3    H232495   2.409   4.571  13.625 -2.0929 -1.8169 -1.0888
 3694TIP3   OH232496   2.080   4.669   3.697  0.3539 -0.0416 -0.3975
 3694TIP3    H132497   2.047   4.696   3.611 -0.7381 -0.6303 -0.1758
 3694TIP3    H232498   2.116   4.581   3.681  0.1835 -0.1358 -0.2605
 3695TIP3   OH232499   4.047   4.809  16.334 -0.0606  0.1573  0.5420
 3695TIP3    H132500   3.992   4.877  16.372 -0.3321  0.1653  0.1393
 3695TIP3    H232501   4.117   4.856  16.290 -0.5025  0.1985 -0.1309
 3696TIP3   OH232502   0.606   0.244  11.574  0.5295 -0.4614 -0.2835
 3696TIP3    H132503   0.609   0.258  11.668  2.5833 -0.2470 -0.3244
 3696TIP3    H232504   0.516   0.220  11.555 -0.1190  0.3283  1.6105
 3697TIP3   OH232505   3.523   0.896   5.917  0.3510  0.0824  0.2438
 3697TIP3    H132506   3.445   0.947   5.897 -0.2139  0.0695  2.2027
 3697TIP3    H232507   3.531   0.901   6.012  0.7669 -2.7538  0.4466
 3698TIP3   OH232508   2.397   2.286  12.596 -0.2862  0.3695  0.6592
 3698TIP3    H132509   2.470   2.346  12.613 -0.4682  0.8884 -0.3676
 3698TIP3    H232510   2.431   2.200  12.620  0.8314  0.5410 -0.2566
 3699TIP3   OH232511   5.546   2.544   0.843 -0.2192 -0.5133 -0.5999
 3699TIP3    H132512   5.608   2.607   0.807  1.0334 -1.2741  0.1655
 3699TIP3    H232513   5.552   2.468   0.785 -0.1050 -0.7547 -0.2780
 3700TIP3   OH232514   6.548   4.557   4.995 -0.2881 -0.7234 -0.3153
 3700TIP3    H132515   6.502   4.636   4.967  0.4234  1.2025  3.4111
 3700TIP3    H232516   6.489   4.485   4.969 -1.5669  1.0302 -2.6751
 3701TIP3   OH232517   2.451   5.429  15.214  0.6709  0.5239 -0.3473
 3701TIP3    H132518   2.494   5.485  15.279 -0.4525 -0.5216  1.3808
 3701TIP3    H232519   2.492   5.343  15.226  0.0673  0.1909 -0.6350
 3702TIP3   OH232520   5.584   6.463   1.798 -0.7583 -0.1717 -0.3116
 3702TIP3    H132521   5.562   6.552   1.824 -1.3180 -0.3800 -0.0384
 3702TIP3    H232522   5.661   6.472   1.742  0.2928  0.3389  1.1526
 3703TIP3   OH232523   4.141   6.685   5.561 -0.0943 -0.0516  0.1836
 3703TIP3    H132524   4.054   6.660   5.531  0.8586 -1.1669 -1.8579
 3703TIP3    H232525   4.157   6.769   5.519  0.4276 -0.6422 -0.8555
 3704TIP3   OH232526   0.866   4.113   6.787  0.1722  0.2402 -0.1352
 3704TIP3    H132527   0.908   4.046   6.732  1.1186  0.1011  0.7264
 3704TIP3    H232528   0.805   4.064   6.842 -0.1441  0.2719 -0.4514
 3705TIP3   OH232529   5.480   0.504   0.713  0.6287 -0.1749  0.3325
 3705TIP3    H132530   5.433   0.460   0.642  0.5831 -1.7542  1.2887
 3705TIP3    H232531   5.524   0.433   0.760  1.1157  0.8922  1.5493
 3706TIP3   OH232532   4.111   4.421  16.195 -0.2554 -0.7354 -0.1277
 3706TIP3    H132533   4.051   4.351  16.221  0.4645 -1.5555 -0.6172
 3706TIP3    H232534   4.175   4.378  16.139  0.7145  0.1554  0.2664
 3707TIP3   OH232535   6.478   0.848  17.254 -0.1299  0.4220 -0.2961
 3707TIP3    H132536   6.553   0.874  17.200  0.1453 -2.3879 -1.4812
 3707TIP3    H232537   6.514   0.781  17.313 -1.4069  0.0769  0.1257
 3708TIP3   OH232538   0.869   0.342   4.225 -0.3202  0.8071  0.2321
 3708TIP3    H132539   0.913   0.265   4.191 -2.0015  0.3092 -0.9435
 3708TIP3    H232540   0.844   0.318   4.314  0.0303  0.3756  0.2165
 3709TIP3   OH232541   2.870   0.715  13.127 -0.0394 -0.0998 -0.4770
 3709TIP3    H132542   2.920   0.786  13.087 -1.0556  0.9452  0.0084
 3709TIP3    H232543   2.902   0.710  13.216 -0.1730 -0.0385 -0.4248
 3710TIP3   OH232544   1.553   0.008  15.937 -0.0535 -0.1366 -0.0722
 3710TIP3    H132545   1.529  -0.084  15.950  1.2113 -0.7565 -1.7496
 3710TIP3    H232546   1.521   0.029  15.849  0.4885  0.7493 -0.0720
 3711TIP3   OH232547   6.514   1.755   1.365  0.5063  0.7062  0.4048
 3711TIP3    H132548   6.473   1.722   1.445  0.0361 -2.0410 -0.8588
 3711TIP3    H232549   6.603   1.777   1.392 -0.0407  1.2197  1.9455
 3712TIP3   OH232550   2.556   4.166   0.672 -0.3141  0.5871 -0.3228
 3712TIP3    H132551   2.586   4.244   0.626  1.7929 -0.3628 -0.6687
 3712TIP3    H232552   2.616   4.156   0.745  0.4739 -1.5127 -1.1601
 3713TIP3   OH232553   6.060   3.867   0.880  0.2465  0.0479 -0.7094
 3713TIP3    H132554   6.131   3.927   0.854 -0.0050 -0.2226 -2.1218
 3713TIP3    H232555   6.092   3.825   0.960 -0.2705  3.2504  1.3362
 3714TIP3   OH232556   1.691   4.768  13.825 -0.7832 -0.0028 -0.3101
 3714TIP3    H132557   1.705   4.757  13.731 -1.2459 -0.3103 -0.3445
 3714TIP3    H232558   1.606   4.811  13.832 -0.1192  1.3416 -0.0839
 3715TIP3   OH232559   5.300   6.398  13.559  0.2098  0.3581 -0.6345
 3715TIP3    H132560   5.364   6.463  13.588  0.0438 -0.3451  1.5815
 3715TIP3    H232561   5.351   6.333  13.511  1.3472 -0.4213  1.4821
 3716TIP3   OH232562   2.677   4.878   2.438 -0.1504 -0.1431  0.0392
 3716TIP3    H132563   2.703   4.875   2.530  3.8150 -1.7694 -0.9075
 3716TIP3    H232564   2.687   4.788   2.407 -1.9115  0.2596 -1.9089
 3717TIP3   OH232565   2.551   1.607  14.242 -0.5974  0.8971  0.4124
 3717TIP3    H132566   2.640   1.623  14.211 -0.5690 -1.0758 -0.6788
 3717TIP3    H232567   2.562   1.577  14.332  0.0531 -0.9965 -0.2488
 3718TIP3   OH232568   2.916   3.836  16.676 -0.3768  0.6483  0.6966
 3718TIP3    H132569   3.000   3.863  16.713  0.3622  0.2423 -0.6021
 3718TIP3    H232570   2.939   3.770  16.610 -1.8452 -0.6567  1.4158
 3719TIP3   OH232571   6.168   5.977  12.828  0.2972 -0.8089 -0.2096
 3719TIP3    H132572   6.247   5.954  12.877 -0.3102  0.1371  1.2756
 3719TIP3    H232573   6.104   6.001  12.895 -0.4890  0.8476 -1.4744
 3720TIP3   OH232574   0.217   1.391   0.003 -0.7930  0.0003 -0.4265
 3720TIP3    H132575   0.242   1.461   0.064 -0.1422 -0.8956  0.3638
 3720TIP3    H232576   0.166   1.435  -0.065 -3.4559  0.7513  1.8646
 3721TIP3   OH232577   4.442   5.593   3.235 -0.1445 -0.2439  0.3307
 3721TIP3    H132578   4.416   5.675   3.192 -2.3526 -1.7260 -1.4126
 3721TIP3    H232579   4.523   5.567   3.191 -0.3066  0.1905 -0.2331
 3722TIP3   OH232580   4.890   3.650  12.481 -0.3222 -1.0249 -0.0121
 3722TIP3    H132581   4.832   3.720  12.511  1.2599  0.6535 -0.6375
 3722TIP3    H232582   4.834   3.573  12.475 -2.5295  0.5210 -0.7443
 3723TIP3   OH232583   1.462   0.677  14.761 -0.2040  0.3402 -0.1377
 3723TIP3    H132584   1.451   0.593  14.716  1.3813  0.4525 -0.7821
 3723TIP3    H232585   1.492   0.654  14.849  0.1687  0.2379 -0.2933
 3724TIP3   OH232586   2.275   2.761   1.814  0.3711  0.1459 -0.2151
 3724TIP3    H132587   2.318   2.840   1.847  0.7393 -0.4299  0.7242
 3724TIP3    H232588   2.333   2.729   1.745  0.9054 -0.0364  0.3144
 3725TIP3   OH232589   4.988   6.435   5.661 -0.2526  0.0547  0.0711
 3725TIP3    H132590   5.003   6.394   5.576  0.8257 -0.4280  0.4845
 3725TIP3    H232591   5.049   6.509   5.663  1.3524 -1.2390  1.2928
 3726TIP3   OH232592   2.523   3.353   5.124  0.3993  0.2996 -0.0546
 3726TIP3    H132593   2.464   3.287   5.161 -0.4344  1.4966  0.8651
 3726TIP3    H232594   2.561   3.311   5.047 -0.8002 -0.9229 -0.0274
 3727TIP3   OH232595   2.700   2.682  15.400 -0.0981  0.6229 -1.1485
 3727TIP3    H132596   2.665   2.593  15.404 -0.8119  0.9344  0.4782
 3727TIP3    H232597   2.769   2.683  15.467 -0.7589  1.5518 -0.4707
 3728TIP3   OH232598   4.125   3.754  16.421 -0.2657 -0.5270 -0.6124
 3728TIP3    H132599   4.030   3.750  16.431 -0.3108  0.5299 -0.4331
 3728TIP3    H232600   4.140   3.731  16.329 -0.5026 -2.6978 -0.1538
 3729TIP3   OH232601   1.024   5.155  14.127 -0.0225 -0.2430  0.0237
 3729TIP3    H132602   1.050   5.167  14.036 -0.1882 -0.8608 -0.1141
 3729TIP3    H232603   0.935   5.120  14.121  0.7593 -2.4618  0.3238
 3730TIP3   OH232604   0.604   2.607   0.270 -0.1388  0.0492  0.2919
 3730TIP3    H132605   0.533   2.670   0.261 -2.1787 -1.9231  1.5054
 3730TIP3    H232606   0.672   2.639   0.211 -0.6000  3.8635  1.5548
 3731TIP3   OH232607   3.834   2.552  15.515  0.6425  0.1161  0.1565
 3731TIP3    H132608   3.859   2.594  15.597  3.1056 -3.1962  1.2972
 3731TIP3    H232609   3.739   2.541  15.523  0.6926  0.6409  2.2017
 3732TIP3   OH232610   3.922   2.681  13.307 -0.3236 -0.5393 -0.4666
 3732TIP3    H132611   3.978   2.677  13.384  1.1261 -0.8137 -1.4956
 3732TIP3    H232612   3.938   2.599  13.261 -0.8335 -0.1939 -1.2889
 3733TIP3   OH232613   6.569   2.396  13.299  0.0421  0.1769 -0.2172
 3733TIP3    H132614   6.530   2.314  13.268 -0.6128  0.1472  0.6420
 3733TIP3    H232615   6.523   2.414  13.381  0.8426  0.9154  0.0773
 3734TIP3   OH232616   0.304   3.353  14.338  0.1209  0.5005 -0.5679
 3734TIP3    H132617   0.254   3.395  14.408  1.3873  0.4485  0.4002
 3734TIP3    H232618   0.360   3.423  14.304 -0.1080  0.3922 -1.1766
 3735TIP3   OH232619   0.874   5.040   1.446 -0.4232 -0.6263  0.3360
 3735TIP3    H132620   0.811   5.040   1.374  1.0256 -0.9121 -0.9901
 3735TIP3    H232621   0.846   5.113   1.502 -0.2379  1.2107 -1.8021
 3736TIP3   OH232622   1.658   2.903   4.687 -0.2255  0.3135  0.6417
 3736TIP3    H132623   1.609   2.966   4.635 -0.5232 -0.4801 -0.0633
 3736TIP3    H232624   1.647   2.932   4.778 -0.1288  1.4151  0.3106
 3737TIP3   OH232625   1.099   1.258  16.885  0.5241 -0.0343 -0.1407
 3737TIP3    H132626   1.154   1.329  16.917 -2.4186  3.2012 -1.5825
 3737TIP3    H232627   1.049   1.230  16.962  1.1148 -0.0128  0.2630
 3738TIP3   OH232628   6.196   6.068   4.418 -0.4027 -0.4730 -0.2483
 3738TIP3    H132629   6.267   6.004   4.418 -0.5090 -0.6759 -2.4332
 3738TIP3    H232630   6.120   6.021   4.385 -1.1953  0.1153  0.6739
 3739TIP3   OH232631   1.250   1.066  10.898  0.0050  0.2160  0.1955
 3739TIP3    H132632   1.214   1.149  10.867 -0.4862 -0.7788 -2.1146
 3739TIP3    H232633   1.283   1.023  10.818 -0.0998 -1.9652  1.2684
 3740TIP3   OH232634   4.150   0.797  17.084 -0.3256  0.0328  0.2880
 3740TIP3    H132635   4.081   0.862  17.099  0.3112  0.8208 -0.1603
 3740TIP3    H232636   4.138   0.733  17.154 -2.2362 -0.4712 -0.4325
 3741TIP3   OH232637   2.903   2.283  17.066 -0.6677 -0.2924 -0.5944
 3741TIP3    H132638   2.977   2.229  17.039  0.0665  0.1911  0.3800
 3741TIP3    H232639   2.872   2.324  16.985  1.6831  1.4083 -0.7545
 3742TIP3   OH232640   1.673   1.307   2.654  0.5450  0.2546 -0.4538
 3742TIP3    H132641   1.598   1.287   2.710  0.3376  0.1754 -0.7618
 3742TIP3    H232642   1.668   1.402   2.642 -0.6210  0.0252 -2.0468
 3743TIP3   OH232643   2.115   5.096   1.462 -0.4042  0.6984 -0.5212
 3743TIP3    H132644   2.180   5.039   1.503 -1.0649  1.3291  1.4705
 3743TIP3    H232645   2.165   5.170   1.428 -0.0860  1.5262  1.6130
 3744TIP3   OH232646   1.516   2.499  10.785 -0.4940  0.1593 -0.2932
 3744TIP3    H132647   1.457   2.445  10.837  0.3574  0.7402  1.3463
 3744TIP3    H232648   1.462   2.574  10.759 -0.7923  0.1431  0.2485
 3745TIP3   OH232649   5.088   6.411   0.219 -0.0561 -0.0044 -0.1921
 3745TIP3    H132650   5.095   6.413   0.314 -1.0458 -0.0214 -0.1055
 3745TIP3    H232651   5.172   6.376   0.189 -0.3278 -1.6206  0.7717
 3746TIP3   OH232652   1.285   4.241  12.740 -0.0285  0.2358 -0.1746
 3746TIP3    H132653   1.271   4.180  12.667  1.5440 -1.3114  0.7245
 3746TIP3    H232654   1.309   4.323  12.698 -0.1561 -0.3392 -1.4220
 3747TIP3   OH232655   1.750   1.074  14.570  0.2637  0.2508 -0.4394
 3747TIP3    H132656   1.832   1.100  14.529  0.4298  1.2957  0.5104
 3747TIP3    H232657   1.689   1.065  14.497  1.6531 -2.6119 -1.4320
 3748TIP3   OH232658   0.539   3.196  16.674 -0.8929  0.8498  0.5410
 3748TIP3    H132659   0.532   3.274  16.729  0.9420  0.2407  1.7383
 3748TIP3    H232660   0.631   3.171  16.679 -0.4322  1.1141 -3.3995
 3749TIP3   OH232661   4.392   2.580  14.621  0.0374 -0.2963  0.2166
 3749TIP3    H132662   4.444   2.499  14.626 -2.2926 -1.9891 -1.2809
 3749TIP3    H232663   4.420   2.622  14.540 -1.9428 -2.0373 -1.4484
 3750TIP3   OH232664   0.437   4.842   2.215  0.0153 -0.1105 -0.1894
 3750TIP3    H132665   0.398   4.876   2.295  1.0241 -1.9585  1.1552
 3750TIP3    H232666   0.529   4.827   2.237  0.2906 -0.8010 -1.6569
 3751TIP3   OH232667   1.522   2.399  15.977  0.5288  0.2897  0.0530
 3751TIP3    H132668   1.538   2.460  15.904 -0.8913  2.0554  1.1378
 3751TIP3    H232669   1.489   2.454  16.047 -0.3406 -1.6942  1.2801
 3752TIP3   OH232670   1.497   0.586   3.726 -0.1263  0.3882  0.1054
 3752TIP3    H132671   1.507   0.609   3.819  0.7660 -2.5864  0.8710
 3752TIP3    H232672   1.585   0.598   3.689  0.4180 -1.6993  0.5772
 3753TIP3   OH232673   4.369   4.874  11.336  0.3058 -0.4224 -0.1139
 3753TIP3    H132674   4.343   4.865  11.244  2.0240 -0.1136 -0.6578
 3753TIP3    H232675   4.378   4.969  11.349  2.1414 -0.5313 -0.2812
 3754TIP3   OH232676   0.695   5.090   5.297 -0.3581 -0.2436  0.0492
 3754TIP3    H132677   0.764   5.049   5.349 -0.9370 -0.5451  0.5867
 3754TIP3    H232678   0.663   5.021   5.239 -0.7885 -0.3408  0.3975
 3755TIP3   OH232679   2.307   3.283  17.092 -0.0980  0.0626  0.0665
 3755TIP3    H132680   2.370   3.284  17.021  0.1474 -0.2399  0.2751
 3755TIP3    H232681   2.222   3.296  17.050  0.1492  1.0166 -0.1583
 3756TIP3   OH232682   1.104   0.913  14.363  0.1821 -0.2968  0.1772
 3756TIP3    H132683   1.191   0.915  14.324  0.2561  1.2526  0.3388
 3756TIP3    H232684   1.105   0.985  14.427 -1.0043 -0.6688  0.6483
 3757TIP3   OH232685   1.300   1.370  15.606 -0.2148 -0.6821  0.2880
 3757TIP3    H132686   1.219   1.389  15.653  0.3105 -1.7630  1.6718
 3757TIP3    H232687   1.282   1.289  15.558 -0.1117 -0.6631  0.2155
 3758TIP3   OH232688   0.789   0.969  11.520  0.0588  0.3130 -0.8378
 3758TIP3    H132689   0.793   1.056  11.560  0.5477 -0.3245  0.5667
 3758TIP3    H232690   0.881   0.944  11.507 -0.0478 -0.4604 -0.1605
 3759TIP3   OH232691   4.744   1.210   3.859  0.0217  0.1348  0.3498
 3759TIP3    H132692   4.774   1.184   3.772 -1.4292 -0.2884 -0.0560
 3759TIP3    H232693   4.742   1.305   3.857  1.1371  0.1797  0.3531
 3760TIP3   OH232694   2.781   2.712   0.351  0.1172  0.2055  0.2658
 3760TIP3    H132695   2.771   2.804   0.325  0.0967  0.0579 -0.2605
 3760TIP3    H232696   2.776   2.664   0.269 -3.7026 -0.6136  0.8039
 3761TIP3   OH232697   0.497   6.243  15.303 -0.1792  0.1720  0.6683
 3761TIP3    H132698   0.494   6.149  15.288  0.8018 -0.1385  2.1730
 3761TIP3    H232699   0.500   6.282  15.215 -1.4335 -1.1310  0.0166
 3762TIP3   OH232700   3.695   0.110  15.760 -0.0178  0.5100 -0.0040
 3762TIP3    H132701   3.716   0.042  15.696  2.2558  0.7060  0.4458
 3762TIP3    H232702   3.668   0.186  15.708 -0.7186 -0.1128 -0.5793
 3763TIP3   OH232703   5.701   5.803   5.309 -0.5331 -0.1708  0.1289
 3763TIP3    H132704   5.786   5.767   5.282 -0.1295  1.0969 -0.3342
 3763TIP3    H232705   5.718   5.841   5.395 -0.1134  1.8233 -0.7936
 3764TIP3   OH232706   5.872   0.983  11.449 -0.2918  0.0133  0.9686
 3764TIP3    H132707   5.934   0.931  11.398 -0.7800  1.1591 -0.9010
 3764TIP3    H232708   5.813   0.919  11.488 -1.8505 -0.9290 -2.5329
 3765TIP3   OH232709   0.137   0.741  15.004 -0.9714  0.5430  0.2560
 3765TIP3    H132710   0.203   0.811  15.006 -0.7345  0.3171  1.8385
 3765TIP3    H232711   0.114   0.732  14.912  3.4903 -1.4798 -0.9254
 3766TIP3   OH232712   3.129   0.792  16.337  0.5406 -0.1156  0.1637
 3766TIP3    H132713   3.170   0.740  16.405 -0.8761 -0.7022  0.6184
 3766TIP3    H232714   3.067   0.731  16.296  0.8322  0.4456 -1.1485
 3767TIP3   OH232715   1.102   5.848  11.501 -0.3533  0.0735  0.1057
 3767TIP3    H132716   1.031   5.796  11.538 -0.0454  0.1421  0.8062
 3767TIP3    H232717   1.163   5.783  11.465 -1.7374  0.0372 -2.4248
 3768TIP3   OH232718   0.641   5.592   3.667  0.1118 -0.0295  0.1970
 3768TIP3    H132719   0.645   5.537   3.589  1.3770 -0.6461  0.6549
 3768TIP3    H232720   0.731   5.621   3.680 -0.1457  0.3423  1.2252
 3769TIP3   OH232721   6.757   6.697   1.086 -0.2098  0.3420 -0.2012
 3769TIP3    H132722   6.830   6.665   1.033  0.0936  0.9026 -0.1234
 3769TIP3    H232723   6.749   6.789   1.063 -2.9624 -0.3335 -2.6836
 3770TIP3   OH232724   6.413   4.645   2.476  0.5875  0.2781 -0.4316
 3770TIP3    H132725   6.397   4.707   2.406 -2.3411  0.0719 -0.0855
 3770TIP3    H232726   6.395   4.693   2.556 -1.3417 -0.7999 -0.1421
 3771TIP3   OH232727   4.562   4.243  13.465 -0.3517 -0.6299 -0.1657
 3771TIP3    H132728   4.645   4.201  13.487 -0.0378 -1.6632 -2.9337
 3771TIP3    H232729   4.562   4.325  13.516  1.6371 -1.2916  1.0133
 3772TIP3   OH232730   0.657   0.698  12.344 -0.2018 -0.5931  0.0474
 3772TIP3    H132731   0.639   0.736  12.258  0.9629 -0.0122  0.0375
 3772TIP3    H232732   0.691   0.611  12.325  5.4495  1.3197 -0.6178
 3773TIP3   OH232733   2.530   0.591   0.882 -0.3754 -0.4623  0.4872
 3773TIP3    H132734   2.528   0.686   0.890 -0.8326 -0.3276 -1.0199
 3773TIP3    H232735   2.542   0.574   0.789 -1.8103 -1.8765  0.5102
 3774TIP3   OH232736   3.251   0.009   1.567 -0.0769 -0.3358  0.1889
 3774TIP3    H132737   3.301   0.081   1.605 -2.0729  0.8084  0.7866
 3774TIP3    H232738   3.181  -0.007   1.630 -3.5035  1.6051 -2.7495
 3775TIP3   OH232739   2.745   3.103   5.939  0.2680  0.9524 -0.1198
 3775TIP3    H132740   2.824   3.143   5.974  0.6223  0.6613 -0.5875
 3775TIP3    H232741   2.722   3.036   6.004  0.3669  1.0725  0.0409
 3776TIP3   OH232742   0.702   0.286  15.178  0.0642 -0.2016  0.0407
 3776TIP3    H132743   0.658   0.261  15.097 -1.8267 -2.0070  1.4869
 3776TIP3    H232744   0.741   0.371  15.160 -2.0419  0.4027 -2.1124
 3777TIP3   OH232745   1.421   4.523   6.896  0.3449 -0.7018  0.0763
 3777TIP3    H132746   1.434   4.501   6.988 -0.5655 -2.5619 -0.1883
 3777TIP3    H232747   1.481   4.465   6.849 -0.2760 -0.8390 -0.5581
 3778TIP3   OH232748   2.973   1.330  14.217 -0.0964 -0.3537  0.2077
 3778TIP3    H132749   3.021   1.318  14.299  1.8856 -0.1368 -0.8540
 3778TIP3    H232750   2.936   1.243  14.199 -0.7505 -0.3447  1.4231
 3779TIP3   OH232751   4.033   6.470  16.141  0.1733 -0.4942  0.0800
 3779TIP3    H132752   4.025   6.526  16.064 -1.9427 -1.4039 -0.4335
 3779TIP3    H232753   4.047   6.530  16.214 -2.9503  0.9096 -0.3016
 3780TIP3   OH232754   4.076   2.116  16.943 -0.0335 -0.3716 -0.0002
 3780TIP3    H132755   4.124   2.057  16.886  0.9605  3.5324 -3.7404
 3780TIP3    H232756   4.137   2.136  17.014  2.1250  0.6730 -1.9988
 3781TIP3   OH232757   2.131   0.895   0.634 -0.0648  0.5907 -0.1007
 3781TIP3    H132758   2.107   0.819   0.581 -0.5157  0.1532  0.7206
 3781TIP3    H232759   2.215   0.871   0.673 -0.2414  0.4795  0.2150
 3782TIP3   OH232760   6.014   4.258  13.289  0.3745  0.3537 -0.0167
 3782TIP3    H132761   6.057   4.252  13.204  0.0389 -0.1623 -0.1549
 3782TIP3    H232762   6.081   4.230  13.352  0.4162  0.0874 -0.1778
 3783TIP3   OH232763   1.644   2.731  14.536  0.1810  0.0005  0.7310
 3783TIP3    H132764   1.593   2.759  14.460  2.5658  0.2770 -0.8621
 3783TIP3    H232765   1.672   2.642  14.515  1.2463  0.2453  1.0832
 3784TIP3   OH232766   0.025   0.157  12.443 -0.0495 -0.7237  0.7196
 3784TIP3    H132767   0.015   0.174  12.537  0.3908 -0.3941  0.7136
 3784TIP3    H232768   0.033   0.062  12.436 -0.9298 -0.8165  0.9310
 3785TIP3   OH232769   3.813   0.271  17.126 -0.0131 -0.0805 -0.0011
 3785TIP3    H132770   3.718   0.283  17.128 -0.1058 -0.5287 -0.9600
 3785TIP3    H232771   3.837   0.287  17.034  0.6448 -1.3667 -0.0722
 3786TIP3   OH232772   1.043   2.852   5.363  0.2771 -0.0410  0.5977
 3786TIP3    H132773   0.979   2.814   5.303  1.2003  1.5890 -1.5385
 3786TIP3    H232774   1.071   2.779   5.418  0.5376 -2.0463 -2.0031
 3787TIP3   OH232775   0.647   6.168   5.348  0.1255 -0.0469 -0.8213
 3787TIP3    H132776   0.619   6.211   5.267 -1.0623  0.5494 -0.1352
 3787TIP3    H232777   0.742   6.160   5.340 -0.0346 -0.6109 -2.5485
 3788TIP3   OH232778   5.929   4.456   3.921  0.3482 -0.3683  0.2286
 3788TIP3    H132779   5.995   4.414   3.867  0.6155  0.8404 -0.4354
 3788TIP3    H232780   5.876   4.507   3.858  0.8857  1.3472  1.1017
 3789TIP3   OH232781   1.049   1.432   3.631  0.4896  0.5826  0.3595
 3789TIP3    H132782   0.984   1.428   3.702  0.8999 -1.1315  0.6739
 3789TIP3    H232783   1.026   1.511   3.582 -2.3376 -0.4027 -0.0303
 3790TIP3   OH232784   3.035   4.636   0.850 -0.1744  0.1639  0.2998
 3790TIP3    H132785   3.000   4.547   0.855 -1.6566  0.6261 -1.1348
 3790TIP3    H232786   3.121   4.626   0.808 -0.1120 -0.6101  0.5907
 3791TIP3   OH232787   5.137   3.112   0.182 -0.4919  0.1919  0.4622
 3791TIP3    H132788   5.113   3.167   0.108 -0.9958  0.1514  0.5859
 3791TIP3    H232789   5.105   3.025   0.159  1.8379 -0.4773 -0.5022
 3792TIP3   OH232790   5.299   3.075  15.432 -0.4568  0.0618 -0.0721
 3792TIP3    H132791   5.292   3.171  15.434 -1.8666 -0.0153 -0.2973
 3792TIP3    H232792   5.231   3.047  15.371  1.8979 -0.9720 -2.4118
 3793TIP3   OH232793   5.617   4.891  11.987 -0.0104  0.0960 -0.4569
 3793TIP3    H132794   5.615   4.888  11.891 -1.2193  1.9533 -0.5177
 3793TIP3    H232795   5.531   4.924  12.012 -0.2724 -1.7452  1.3832
 3794TIP3   OH232796   2.764   0.161  15.858 -1.0235  0.2746  0.9719
 3794TIP3    H132797   2.839   0.211  15.891 -0.6284 -0.9054  1.9681
 3794TIP3    H232798   2.695   0.176  15.922 -0.9337 -0.3281  1.2237
 3795TIP3   OH232799   5.724   4.294   4.941  0.1491  0.0299  0.1291
 3795TIP3    H132800   5.705   4.313   5.033  1.0416 -0.6487  0.4727
 3795TIP3    H232801   5.816   4.269   4.940 -0.3357 -1.9517 -0.6084
 3796TIP3   OH232802   5.360   6.685  11.825 -0.0741  0.4117 -0.4306
 3796TIP3    H132803   5.369   6.611  11.764  1.0993  0.8184 -0.7911
 3796TIP3    H232804   5.274   6.674  11.864  1.1975 -2.9897  1.8871
 3797TIP3   OH232805   5.654   2.796   0.475  0.2392 -0.4370 -0.6463
 3797TIP3    H132806   5.562   2.797   0.450 -0.1517  0.0486  0.7219
 3797TIP3    H232807   5.678   2.889   0.480  1.2210 -0.5534 -2.3626
 3798TIP3   OH232808   0.589   2.160   2.022 -0.3079  0.3396 -0.4043
 3798TIP3    H132809   0.651   2.090   2.040 -0.2923  0.3839 -0.2874
 3798TIP3    H232810   0.631   2.212   1.953 -0.5086 -0.0132 -0.8004
 3799TIP3   OH232811   0.720   2.930  12.997  0.3123  0.6755  0.5404
 3799TIP3    H132812   0.707   2.992  12.925  0.5592  0.4427  0.2892
 3799TIP3    H232813   0.689   2.846  12.962 -0.9870  0.8483  1.2378
 3800TIP3   OH232814   5.504   2.163   0.456 -0.2657 -0.2078 -0.3200
 3800TIP3    H132815   5.486   2.185   0.365 -0.5485 -0.5035 -0.3353
 3800TIP3    H232816   5.431   2.106   0.482 -1.6394  1.9426  0.8623
 3801TIP3   OH232817   3.595   3.677  11.163 -0.3350 -0.1334  0.1519
 3801TIP3    H132818   3.658   3.744  11.191  0.5955 -1.6646  1.8959
 3801TIP3    H232819   3.611   3.668  11.069  0.7472  0.8307  0.2193
 3802TIP3   OH232820   3.723   3.396   1.743 -0.2545 -0.3263 -0.1957
 3802TIP3    H132821   3.773   3.440   1.812 -0.1818 -0.7112  0.0005
 3802TIP3    H232822   3.707   3.464   1.678  0.9003 -0.2845 -0.4660
 3803TIP3   OH232823   5.870   3.713   2.706  0.4108  0.0389  0.2862
 3803TIP3    H132824   5.916   3.643   2.660 -0.3601 -0.0624 -0.3554
 3803TIP3    H232825   5.931   3.741   2.774  1.9380  0.7428 -1.2754
 3804TIP3   OH232826   4.744   1.031   0.385  0.1787 -0.4836  0.0700
 3804TIP3    H132827   4.735   1.069   0.472 -0.6333  0.3940 -0.3819
 3804TIP3    H232828   4.768   0.939   0.401 -1.2128 -0.6790  1.2546
 3805TIP3   OH232829   5.104   4.479  12.424  0.1194  0.3433  0.0855
 3805TIP3    H132830   5.030   4.419  12.432  0.1273  0.4399  1.0528
 3805TIP3    H232831   5.180   4.428  12.450  0.6315 -0.1552 -2.2060
 3806TIP3   OH232832   4.586   4.261  13.981 -0.7913 -0.1106  0.4253
 3806TIP3    H132833   4.608   4.175  13.945  1.2213  0.5190  0.0287
 3806TIP3    H232834   4.653   4.277  14.047 -1.1785  1.1317  0.5396
 3807TIP3   OH232835   0.793   4.577   6.058  0.6256  0.1217 -0.0455
 3807TIP3    H132836   0.841   4.536   6.130 -0.5237  0.5295  0.9839
 3807TIP3    H232837   0.741   4.645   6.099  1.0878  1.4077 -1.4846
 3808TIP3   OH232838   0.724   3.804  13.176  0.0236  0.5150 -0.1108
 3808TIP3    H132839   0.794   3.869  13.178 -0.5959  1.3932 -3.1769
 3808TIP3    H232840   0.649   3.847  13.217  0.1770  0.9992 -0.3377
 3809TIP3   OH232841   1.881   5.932   2.499  0.1920  0.0322  0.5864
 3809TIP3    H132842   1.805   5.955   2.551  1.1392  0.4265  1.8526
 3809TIP3    H232843   1.899   5.840   2.521 -0.0133 -0.1200  0.1438
 3810TIP3   OH232844   2.065   0.251   2.516  0.1211  0.0465 -0.2594
 3810TIP3    H132845   2.143   0.198   2.529  0.5796  0.6680 -0.3985
 3810TIP3    H232846   2.004   0.194   2.469  1.5127  0.3742 -2.6410
 3811TIP3   OH232847   1.658   2.334   3.264  0.1365 -0.1801 -0.1480
 3811TIP3    H132848   1.583   2.292   3.306  0.5459  0.0869  0.8809
 3811TIP3    H232849   1.626   2.361   3.178 -1.4424  1.4029  0.8868
 3812TIP3   OH232850   2.758   5.180  14.428  0.3674 -0.2700  0.6525
 3812TIP3    H132851   2.717   5.267  14.435 -2.3051 -1.5085  1.7280
 3812TIP3    H232852   2.764   5.164  14.333  0.1967  0.7572  0.4537
 3813TIP3   OH232853   4.039   0.094   3.236 -0.6487  0.0155 -0.2619
 3813TIP3    H132854   4.005   0.005   3.230  0.5849 -0.5504  0.6887
 3813TIP3    H232855   4.052   0.121   3.145 -1.0132 -0.7834 -0.5554
 3814TIP3   OH232856   1.650   3.671  16.183  0.4841  0.6000 -0.4429
 3814TIP3    H132857   1.572   3.676  16.127  0.2153  0.4621 -0.0866
 3814TIP3    H232858   1.691   3.757  16.174 -0.0875  0.9166 -0.1058
 3815TIP3   OH232859   0.974   0.497  17.070 -0.3656  0.4673  0.3255
 3815TIP3    H132860   0.900   0.553  17.090 -0.4166  0.7046 -0.5057
 3815TIP3    H232861   0.945   0.409  17.095 -0.1235  0.8304  2.0628
 3816TIP3   OH232862   0.227   1.135  15.684  0.2450 -0.2698  0.3243
 3816TIP3    H132863   0.137   1.103  15.691 -0.3378  0.5735 -2.3421
 3816TIP3    H232864   0.275   1.065  15.641  0.2666  0.1989 -0.4437
 3817TIP3   OH232865   3.565   4.641   1.285 -0.1503  0.1459 -0.3928
 3817TIP3    H132866   3.563   4.551   1.251  0.2680 -1.6002  3.6782
 3817TIP3    H232867   3.647   4.677   1.252 -1.2617 -0.0545 -3.8020
 3818TIP3   OH232868   6.077   5.720   5.612 -0.3338 -0.3916  0.3530
 3818TIP3    H132869   6.065   5.718   5.707 -1.6692  1.5201  0.2706
 3818TIP3    H232870   6.138   5.792   5.597  1.1557 -1.6839 -0.1940
 3819TIP3   OH232871   4.797   3.900   1.484 -0.5973  0.0671 -0.0038
 3819TIP3    H132872   4.762   3.984   1.453  0.2592  0.2467 -0.5135
 3819TIP3    H232873   4.722   3.857   1.525 -1.4805  0.3584 -1.2433
 3820TIP3   OH232874   0.459   4.857  17.047  0.4651 -0.0428 -0.0951
 3820TIP3    H132875   0.374   4.873  17.005  0.9629  2.0731 -0.4209
 3820TIP3    H232876   0.510   4.935  17.027  2.6225 -1.3964 -0.1797
 3821TIP3   OH232877   0.888   6.133   2.668 -0.2850  0.1545 -0.2121
 3821TIP3    H132878   0.892   6.117   2.573 -0.3951  2.2164 -0.6133
 3821TIP3    H232879   0.802   6.102   2.694 -0.3991 -0.0972 -0.8618
 3822TIP3   OH232880   1.563   4.357   1.324 -0.4349 -0.3678 -0.3104
 3822TIP3    H132881   1.594   4.358   1.415 -2.4707  0.6258  0.4244
 3822TIP3    H232882   1.541   4.265   1.308  1.5250 -0.8576 -0.4152
 3823TIP3   OH232883   1.873   6.612  16.011  0.2846 -0.4721 -0.0009
 3823TIP3    H132884   1.786   6.577  16.031  1.2252 -2.3003  1.1325
 3823TIP3    H232885   1.885   6.683  16.073  0.1102 -1.0733  0.7346
 3824TIP3   OH232886   2.138   1.586  16.362 -0.1599  0.1611 -0.6879
 3824TIP3    H132887   2.089   1.513  16.325 -0.1388 -0.0315 -0.3379
 3824TIP3    H232888   2.217   1.592  16.308  0.1383 -0.4751 -0.3365
 3825TIP3   OH232889   2.163   6.097   0.272 -0.0895  0.6730 -0.0800
 3825TIP3    H132890   2.203   6.030   0.327 -1.2714 -0.7126 -0.8157
 3825TIP3    H232891   2.234   6.128   0.216  0.6034  0.4309  0.6559
 3826TIP3   OH232892   6.719   5.937  17.016  0.1608  0.8858  0.3172
 3826TIP3    H132893   6.779   5.962  16.945 -0.7260  1.8531 -0.1266
 3826TIP3    H232894   6.724   6.009  17.078  0.0090  0.6225  0.6364
 3827TIP3   OH232895   2.530   1.497   0.202  0.1226  0.5242 -0.4399
 3827TIP3    H132896   2.483   1.431   0.151  1.7125 -0.9887 -0.0330
 3827TIP3    H232897   2.469   1.571   0.207 -1.9267 -1.0676 -0.5016
 3828TIP3   OH232898   0.041   5.827  11.307  0.0553 -0.2578  0.3067
 3828TIP3    H132899   0.036   5.908  11.257 -1.8358  0.0386  0.8893
 3828TIP3    H232900   0.092   5.851  11.385 -1.5746  0.7720  1.1114
 3829TIP3   OH232901   1.550   6.342   2.645 -0.2774  0.4418 -0.1426
 3829TIP3    H132902   1.591   6.306   2.724  1.4849 -0.4367 -1.3899
 3829TIP3    H232903   1.458   6.317   2.653  0.3865 -2.2536  0.2617
 3830TIP3   OH232904   1.585   1.498   0.760  0.5360  0.6914 -0.1532
 3830TIP3    H132905   1.498   1.469   0.786 -0.2992  0.3324 -3.0406
 3830TIP3    H232906   1.643   1.459   0.826 -1.4335  1.3355  2.1291
 3831TIP3   OH232907   3.973   0.652   0.558 -0.3941  0.0459  0.2352
 3831TIP3    H132908   4.061   0.657   0.520 -0.8644  0.7922 -0.7903
 3831TIP3    H232909   3.981   0.587   0.628  0.6387 -0.9338 -0.7595
 3832TIP3   OH232910   5.868   5.702  17.272 -0.2757 -0.4445 -0.1164
 3832TIP3    H132911   5.780   5.663  17.268 -0.7528  0.5709 -3.9529
 3832TIP3    H232912   5.922   5.636  17.315 -1.9709 -3.3824 -2.1086
 3833TIP3   OH232913   0.046   3.443   3.685  0.0554  0.2439  0.5908
 3833TIP3    H132914  -0.017   3.376   3.713  0.5228 -1.5038 -2.1271
 3833TIP3    H232915   0.132   3.405   3.707  0.2742  1.1265  1.3091
 3834TIP3   OH232916   5.410   6.673   2.583  0.6496 -0.0193 -0.7169
 3834TIP3    H132917   5.357   6.633   2.515 -1.2336  0.7362  0.2180
 3834TIP3    H232918   5.425   6.763   2.553 -0.0025  0.2504 -0.2697
 3835TIP3   OH232919   1.016   0.192  15.893  0.2512  0.5254  0.3385
 3835TIP3    H132920   1.046   0.103  15.913 -0.1847 -0.1185 -1.6547
 3835TIP3    H232921   0.922   0.190  15.911  0.2473  0.6027  0.3259
 3836TIP3   OH232922   1.769   4.651   5.937 -0.4728 -0.3043  0.0114
 3836TIP3    H132923   1.754   4.557   5.950  3.1653 -1.0562 -0.0725
 3836TIP3    H232924   1.782   4.686   6.025 -1.3716  0.0266  0.0131
 3837TIP3   OH232925   4.383   3.771   5.136 -0.4027  0.1126  0.2548
 3837TIP3    H132926   4.426   3.854   5.154 -0.5707  0.5377 -1.2060
 3837TIP3    H232927   4.324   3.789   5.064 -2.7220 -0.5561  1.8508
 3838TIP3   OH232928   3.067   4.086   0.922  0.2077  0.5369  0.2764
 3838TIP3    H132929   3.142   4.050   0.969  0.5543  1.0601  0.1354
 3838TIP3    H232930   3.017   4.010   0.894  0.4592  0.1981  0.7472
 3839TIP3   OH232931   2.634   4.605   2.394  0.1567 -0.0473  0.1270
 3839TIP3    H132932   2.590   4.522   2.380  0.0628  0.0620 -0.2331
 3839TIP3    H232933   2.723   4.581   2.422 -0.1971 -0.2666  1.0983
 3840TIP3   OH232934   5.533   4.756  13.631 -0.5800 -0.0523 -0.3713
 3840TIP3    H132935   5.561   4.744  13.540  1.0888 -2.5323  0.3419
 3840TIP3    H232936   5.438   4.743  13.629 -0.4128 -1.4381 -1.6291
 3841TIP3   OH232937   3.805   1.001  16.893 -0.1296  0.5732  0.4359
 3841TIP3    H132938   3.899   1.020  16.898 -0.0837  0.0022  3.7874
 3841TIP3    H232939   3.763   1.087  16.892  0.3597  0.8646 -2.2613
 3842TIP3   OH232940   4.924   0.935   1.535  0.1287 -0.3109  0.4813
 3842TIP3    H132941   4.934   0.880   1.457  0.6150 -2.0306  1.6827
 3842TIP3    H232942   5.011   0.936   1.575  0.0853  1.2454  0.5880
 3843TIP3   OH232943   2.026   5.451  13.263  0.2297 -0.5065 -0.0586
 3843TIP3    H132944   2.091   5.380  13.261 -0.7814 -1.5093  0.7548
 3843TIP3    H232945   2.030   5.490  13.176  2.7704  0.2903  0.3415
 3844TIP3   OH232946   5.493   2.344  11.703 -0.6635 -0.5676 -0.3324
 3844TIP3    H132947   5.549   2.408  11.659 -1.1369 -1.0418 -1.6664
 3844TIP3    H232948   5.550   2.302  11.767 -0.8708  2.7511  2.3091
 3845TIP3   OH232949   4.270   6.201  11.865  0.2806  0.5889 -0.1937
 3845TIP3    H132950   4.318   6.270  11.819  0.8883  0.2641 -0.0744
 3845TIP3    H232951   4.233   6.243  11.942  1.2684  0.6352  0.2714
 3846TIP3   OH232952   5.201   5.047  11.084  0.0914 -0.9950  0.0065
 3846TIP3    H132953   5.145   4.969  11.081 -3.1434  1.1111  0.8408
 3846TIP3    H232954   5.233   5.051  11.174 -1.1302 -0.5139  0.4354
 3847TIP3   OH232955   1.064   1.946   0.660  0.4574  0.3446 -0.5270
 3847TIP3    H132956   1.130   1.952   0.730 -0.2635 -1.7508  0.4290
 3847TIP3    H232957   1.112   1.966   0.580  1.3961  2.4997  0.4944
 3848TIP3   OH232958   3.855   0.369   0.197 -0.5752 -0.3564  0.7029
 3848TIP3    H132959   3.938   0.367   0.245 -1.1647 -0.2146  1.7595
 3848TIP3    H232960   3.803   0.300   0.237 -1.4505  0.4370  0.9686
 3849TIP3   OH232961   4.535   0.142   5.005 -0.0591  0.6348 -0.1257
 3849TIP3    H132962   4.502   0.196   4.934 -0.3564  1.1671  0.4157
 3849TIP3    H232963   4.480   0.064   5.003 -0.1832  0.7270 -0.3643
 3850TIP3   OH232964   0.200   1.670   3.048  0.1108 -0.5003 -0.0589
 3850TIP3    H132965   0.157   1.632   2.971  1.0385 -2.8055  0.4574
 3850TIP3    H232966   0.172   1.614   3.121  0.2826  0.8474  1.0897
 3851TIP3   OH232967   2.285   2.760   4.538  0.0003  0.1739  0.4757
 3851TIP3    H132968   2.244   2.846   4.551  0.3227  0.3426  0.3876
 3851TIP3    H232969   2.327   2.767   4.452  0.3455  0.0578  0.6348
 3852TIP3   OH232970   6.709   5.023   0.631 -0.3128 -0.3126  0.0767
 3852TIP3    H132971   6.641   5.090   0.628 -1.2846 -1.2809 -0.3188
 3852TIP3    H232972   6.778   5.057   0.575 -1.6530 -0.5007 -1.8047
 3853TIP3   OH232973   2.997   1.934  16.651  0.0612  0.3996 -0.1577
 3853TIP3    H132974   2.977   1.842  16.632 -1.2905  0.8685 -1.1702
 3853TIP3    H232975   2.957   1.949  16.736  0.8640 -0.0998  0.3292
 3854TIP3   OH232976   0.072   2.902  14.070 -0.3110 -0.8903 -0.4137
 3854TIP3    H132977   0.101   2.839  14.004  1.2115  0.2862 -0.9083
 3854TIP3    H232978   0.094   2.861  14.153  0.0747 -1.2916 -0.7093
 3855TIP3   OH232979   3.728   3.610  12.110  0.1317 -0.4902 -0.1670
 3855TIP3    H132980   3.804   3.662  12.083  0.6268 -0.4081  1.2981
 3855TIP3    H232981   3.708   3.641  12.198  0.2016 -2.5134  0.6043
 3856TIP3   OH232982   1.741   3.981  13.090  0.1355 -0.2297 -0.0662
 3856TIP3    H132983   1.771   3.915  13.153  1.1673 -1.0634 -1.3861
 3856TIP3    H232984   1.704   3.931  13.018 -1.1080  0.7185 -0.1276
 3857TIP3   OH232985   4.424   0.452  16.031  0.2129 -0.2293  0.3994
 3857TIP3    H132986   4.517   0.472  16.032  0.3054 -0.6502  1.8786
 3857TIP3    H232987   4.419   0.359  16.052 -0.5353 -0.2816  0.0387
 3858TIP3   OH232988   5.001   1.706  12.694 -0.2699  0.9796  0.9280
 3858TIP3    H132989   5.095   1.695  12.710 -0.4865  0.7360  2.1379
 3858TIP3    H232990   4.996   1.748  12.608  0.8255 -1.8528 -0.6266
 3859TIP3   OH232991   0.822   0.523  13.818 -0.0311 -0.1632  0.0551
 3859TIP3    H132992   0.865   0.449  13.861  0.5149  0.5404  0.7727
 3859TIP3    H232993   0.890   0.591  13.815 -0.5542  0.3454 -0.4719
 3860TIP3   OH232994   6.746   6.412   1.726  0.2345 -1.3337  0.1438
 3860TIP3    H132995   6.765   6.401   1.633  1.7210  0.0574  0.2330
 3860TIP3    H232996   6.829   6.441   1.764 -0.4893 -1.3251  1.8181
 3861TIP3   OH232997   6.179   4.450  14.595 -0.6365 -0.2507 -0.3735
 3861TIP3    H132998   6.181   4.435  14.500  1.4297 -0.2097 -0.3871
 3861TIP3    H232999   6.162   4.364  14.633  1.1904 -0.8235 -0.7434
 3862TIP3   OH233000   5.825   3.223   4.266  0.2872  0.0137 -0.1816
 3862TIP3    H133001   5.781   3.257   4.189 -0.1898 -0.2871 -0.0465
 3862TIP3    H233002   5.903   3.277   4.275  1.2792 -1.0702 -1.8890
 3863TIP3   OH233003   2.859   6.730   1.271 -0.2399 -0.3423  0.3011
 3863TIP3    H133004   2.812   6.648   1.254 -0.5120 -0.0866 -0.2212
 3863TIP3    H233005   2.791   6.797   1.266  0.0691 -0.0355  0.2154
 3864TIP3   OH233006   5.837   5.121   4.880 -0.3210 -0.7400  0.4550
 3864TIP3    H133007   5.784   5.093   4.805 -0.1661 -0.8569  0.3875
 3864TIP3    H233008   5.774   5.145   4.947 -0.4670 -2.5805  1.0168
 3865TIP3   OH233009   3.351   1.283   5.393  0.6343  0.3549  0.3123
 3865TIP3    H133010   3.415   1.242   5.335  0.5607 -0.2029  0.6154
 3865TIP3    H233011   3.317   1.357   5.343  0.2711 -0.3564 -0.5088
 3866TIP3   OH233012   0.991   6.021  12.137 -0.5509 -0.1071  0.1381
 3866TIP3    H133013   0.905   5.986  12.114  0.6768 -1.6835 -2.4665
 3866TIP3    H233014   1.013   6.081  12.065  0.1860  1.0087  1.2436
 3867TIP3   OH233015   1.392   2.487   1.225  0.1150  0.1219 -0.1505
 3867TIP3    H133016   1.358   2.540   1.297 -0.8546  0.1629 -0.6153
 3867TIP3    H233017   1.433   2.550   1.166  2.2293 -0.0610  1.0330
 3868TIP3   OH233018   1.298   6.175   3.477 -0.5729 -0.7603  0.0033
 3868TIP3    H133019   1.286   6.266   3.449  0.4320 -0.8509 -0.7961
 3868TIP3    H233020   1.303   6.126   3.395 -1.0228 -1.5407  0.4258
 3869TIP3   OH233021   4.889   0.935  10.480  0.4211  0.5777 -0.2002
 3869TIP3    H133022   4.913   0.909  10.391 -0.9242  1.7929 -0.9589
 3869TIP3    H233023   4.865   1.027  10.474  1.6183  1.0764  1.7165
 3870TIP3   OH233024   4.620   6.151  12.536 -0.3149  0.0558  0.4844
 3870TIP3    H133025   4.581   6.072  12.498 -0.1531  0.7667 -1.2237
 3870TIP3    H233026   4.711   6.149  12.508  1.2596 -1.8210  4.8021
 3871TIP3   OH233027   2.525   0.847  13.368 -0.6169  0.1049  0.0327
 3871TIP3    H133028   2.596   0.801  13.413  0.1667 -0.7130 -1.9215
 3871TIP3    H233029   2.554   0.852  13.276 -0.6266  4.5374  0.0249
 3872TIP3   OH233030   2.457   5.288   4.926  0.0914  0.1218 -0.1209
 3872TIP3    H133031   2.388   5.331   4.876 -0.5106  0.6818  1.1583
 3872TIP3    H233032   2.450   5.195   4.901 -1.1931  0.1562  0.0585
 3873TIP3   OH233033   1.394   1.034   1.944 -0.3507  0.7791 -0.0640
 3873TIP3    H133034   1.381   0.993   1.858  1.6309  2.3396 -1.1804
 3873TIP3    H233035   1.489   1.041   1.953 -0.5523  1.6205  1.8071
 3874TIP3   OH233036   4.393   4.153  15.513 -0.0368 -0.2149  0.6341
 3874TIP3    H133037   4.303   4.157  15.482  0.0712 -1.2133  0.1795
 3874TIP3    H233038   4.433   4.234  15.480 -1.3837  1.5230  2.9197
 3875TIP3   OH233039   5.076   4.077  16.930  0.1746  0.7872 -0.0110
 3875TIP3    H133040   5.012   4.009  16.950 -1.0508  1.2698 -1.9717
 3875TIP3    H233041   5.139   4.035  16.872  0.1431  0.9591 -0.1755
 3876TIP3   OH233042   2.524   1.523  14.511 -0.1240 -0.3842 -0.4446
 3876TIP3    H133043   2.438   1.509  14.553 -0.8257  1.2793 -1.2551
 3876TIP3    H233044   2.578   1.562  14.580  0.0079 -1.3945  0.0555
 3877TIP3   OH233045   3.408   2.426  11.323  0.0573  0.0921  0.0386
 3877TIP3    H133046   3.390   2.350  11.377  2.2733 -1.9774 -1.8815
 3877TIP3    H233047   3.483   2.469  11.366  0.0343  0.0788  0.0915
 3878TIP3   OH233048   4.048   4.128   3.388 -0.3410  0.1540 -0.0112
 3878TIP3    H133049   3.954   4.150   3.393 -0.1411  0.7302  2.3186
 3878TIP3    H233050   4.074   4.155   3.300 -2.2266  0.5606 -0.4907
 3879TIP3   OH233051   0.716   6.340   1.506  0.0237 -0.2141 -0.2436
 3879TIP3    H133052   0.788   6.280   1.523  0.9453  1.0675  0.5091
 3879TIP3    H233053   0.642   6.304   1.556  0.7552 -0.3538  0.7688
 3880TIP3   OH233054   5.819   6.149   2.256  0.1187  0.1552  0.4235
 3880TIP3    H133055   5.777   6.129   2.340  3.3833  0.1958  2.2338
 3880TIP3    H233056   5.791   6.238   2.236 -1.0256  0.0096  1.2407
 3881TIP3   OH233057   0.319   2.707  16.606  0.2603 -0.1490  0.1063
 3881TIP3    H133058   0.264   2.693  16.529  1.1812 -0.4339 -0.5210
 3881TIP3    H233059   0.392   2.760  16.574  0.6032 -0.1884  0.8095
 3882TIP3   OH233060   1.745   2.378   5.614  0.3046 -0.2282  0.1064
 3882TIP3    H133061   1.836   2.391   5.639  0.2591  0.9367 -0.2842
 3882TIP3    H233062   1.749   2.335   5.529  0.5575  1.8099 -0.9828
 3883TIP3   OH233063   2.898   0.758  17.218  0.0697 -0.3713  0.8940
 3883TIP3    H133064   2.894   0.672  17.175 -0.8627 -0.6803  1.5695
 3883TIP3    H233065   2.811   0.770  17.256  0.6019  0.2890  1.9392
 3884TIP3   OH233066   6.136   1.619  14.359 -0.2925 -0.2087 -0.3009
 3884TIP3    H133067   6.154   1.585  14.447  2.4164 -2.6615 -1.6390
 3884TIP3    H233068   6.147   1.714  14.367  0.5405 -0.4304  1.8769
 3885TIP3   OH233069   3.070   2.211   2.484  0.0055 -0.4999  1.0995
 3885TIP3    H133070   3.008   2.261   2.537 -0.9975 -0.0642 -0.4121
 3885TIP3    H233071   3.062   2.121   2.516 -0.0290 -0.1275  2.1657
 3886TIP3   OH233072   1.958   1.275   4.053  0.1804 -0.1579  0.0444
 3886TIP3    H133073   2.001   1.213   3.993 -1.2231 -1.2910  0.1530
 3886TIP3    H233074   2.006   1.357   4.041  1.6799 -1.0785 -0.6036
 3887TIP3   OH233075   3.971   4.667   2.132  0.4787  0.1055 -0.2901
 3887TIP3    H133076   4.030   4.687   2.060 -0.9566 -0.6962 -1.7515
 3887TIP3    H233077   3.903   4.734   2.128  0.8826  0.6322  0.9641
 3888TIP3   OH233078   1.634   4.104   1.669  0.7393 -0.5342  0.4285
 3888TIP3    H133079   1.546   4.141   1.678  0.4065 -0.6763 -1.7061
 3888TIP3    H233080   1.690   4.181   1.660  0.3821 -0.4502 -1.4089
 3889TIP3   OH233081   4.011   4.172   2.056 -0.7557 -0.1504 -0.1235
 3889TIP3    H133082   4.076   4.136   2.117 -1.5965 -0.1001  0.8463
 3889TIP3    H233083   3.958   4.096   2.031 -1.7038  0.1411  0.8805
 3890TIP3   OH233084   6.469   1.931  14.379  0.6296  0.5268  0.1674
 3890TIP3    H133085   6.545   1.874  14.394  0.2403  0.5140  2.4150
 3890TIP3    H233086   6.492   1.981  14.300  1.5156 -1.8020 -1.1323
 3891TIP3   OH233087   0.519   2.628  13.209 -0.7787 -0.4132  0.1339
 3891TIP3    H133088   0.466   2.591  13.138 -0.1246 -2.2079  0.5300
 3891TIP3    H233089   0.608   2.599  13.189 -0.8331 -2.8124  2.7207
 3892TIP3   OH233090   0.165   0.714   5.383  0.4224  0.2045 -0.6378
 3892TIP3    H133091   0.247   0.718   5.433  0.5212  0.7598 -0.8340
 3892TIP3    H233092   0.143   0.621   5.380  0.4408  0.1536  0.3982
 3893TIP3   OH233093   0.661   5.887  14.706  0.3079  0.3529 -0.0844
 3893TIP3    H133094   0.710   5.915  14.783 -0.0768 -1.5682  0.9261
 3893TIP3    H233095   0.570   5.885  14.734  0.0810  0.3152 -0.7988
 3894TIP3   OH233096   4.888   4.861   6.830 -0.3384  0.2221 -0.1770
 3894TIP3    H133097   4.815   4.817   6.873 -0.5324  0.8323  0.1352
 3894TIP3    H233098   4.857   4.882   6.742 -1.5312  2.7947  0.7473
 3895TIP3   OH233099   3.117   4.535   3.664 -0.1856 -0.1332 -0.0393
 3895TIP3    H133100   3.104   4.474   3.737 -0.5078 -0.3679 -0.2868
 3895TIP3    H233101   3.212   4.548   3.660 -0.2656  1.3315  1.5870
 3896TIP3   OH233102   4.556   3.760   5.857  0.0237 -0.4147 -0.1174
 3896TIP3    H133103   4.575   3.681   5.907 -0.9718 -0.6452 -0.0953
 3896TIP3    H233104   4.544   3.828   5.923 -0.2625 -0.4926 -0.0905
 3897TIP3   OH233105   5.564   4.424   4.769 -0.3190 -0.3676  0.3389
 3897TIP3    H133106   5.622   4.379   4.831 -1.4382 -1.8091  0.3806
 3897TIP3    H233107   5.486   4.444   4.820 -0.5708 -0.0044 -0.1772
 3898TIP3   OH233108   3.524   5.557   3.893  0.1276  0.1486 -0.6919
 3898TIP3    H133109   3.435   5.584   3.917 -0.3467 -1.4429 -0.5681
 3898TIP3    H233110   3.546   5.614   3.819 -1.8665 -0.8160 -2.1504
 3899TIP3   OH233111   3.634   4.222   2.824  0.2683  0.5655  0.1260
 3899TIP3    H133112   3.627   4.303   2.774 -1.2039 -0.0977 -0.8256
 3899TIP3    H233113   3.544   4.202   2.850  0.6004 -0.7440  0.3461
 3900TIP3   OH233114   0.281   5.812  14.467  0.6368 -0.0716  0.1287
 3900TIP3    H133115   0.206   5.767  14.506 -0.8391  0.3972 -1.9660
 3900TIP3    H233116   0.286   5.777  14.378  0.6947  2.3942 -0.9163
 3901TIP3   OH233117   3.896   5.512  13.698  0.5952 -1.2602 -0.0608
 3901TIP3    H133118   3.916   5.521  13.605  0.9898 -0.0796  0.1205
 3901TIP3    H233119   3.970   5.462  13.733  0.7907 -1.1074 -0.2538
 3902TIP3   OH233120   1.376   3.970   2.003  0.0856 -0.2385  0.4923
 3902TIP3    H133121   1.446   4.032   1.982  0.2583 -0.1966  1.1692
 3902TIP3    H233122   1.422   3.893   2.037 -0.1774 -0.3682  0.5566
 3903TIP3   OH233123   2.838   5.234   4.137 -0.2756  0.0968 -0.2421
 3903TIP3    H133124   2.904   5.207   4.201 -0.6118  0.1495  0.1255
 3903TIP3    H233125   2.808   5.320   4.168 -1.4945 -0.5249  0.3555
 3904TIP3   OH233126   4.218   0.136   4.965  0.1407  0.3609 -0.3668
 3904TIP3    H133127   4.267   0.175   4.893  1.2098  0.4634  0.3991
 3904TIP3    H233128   4.248   0.182   5.043  1.7365 -2.1405  0.6325
 3905TIP3   OH233129   4.999   5.155   4.489  0.2619  0.4000 -0.1188
 3905TIP3    H133130   5.080   5.192   4.453  0.1058  0.8413 -0.0296
 3905TIP3    H233131   4.953   5.118   4.414  1.4924 -1.7098  0.1111
 3906TIP3   OH233132   0.918   0.465  15.788  0.2314  0.1598  0.4397
 3906TIP3    H133133   0.917   0.396  15.723  1.3705  1.0670 -0.5904
 3906TIP3    H233134   0.906   0.420  15.872  3.1329 -1.5763  0.0479
 3907TIP3   OH233135   3.974   2.073  14.296 -0.0458 -0.6354 -0.2264
 3907TIP3    H133136   4.001   2.032  14.378 -0.4732 -2.4385 -0.9361
 3907TIP3    H233137   4.049   2.059  14.237  0.5833  1.3468  0.0456
 3908TIP3   OH233138   5.692   6.707   3.021  0.2825  0.1708  0.3696
 3908TIP3    H133139   5.701   6.682   2.929 -0.2537  0.2677  0.2885
 3908TIP3    H233140   5.780   6.735   3.047  0.7975 -1.3216  0.3273
 3909TIP3   OH233141   2.455   1.226  12.670 -0.4396  0.3621 -0.2487
 3909TIP3    H133142   2.532   1.209  12.723  0.0546  0.7027 -0.8431
 3909TIP3    H233143   2.406   1.144  12.671 -0.1638  0.1990  0.2780
 3910TIP3   OH233144   3.102   1.103  15.248  0.6824 -0.3405  0.3416
 3910TIP3    H133145   3.192   1.070  15.246  0.4958 -0.8026 -1.5813
 3910TIP3    H233146   3.110   1.195  15.220  0.4956 -0.5405 -0.3694
 3911TIP3   OH233147   3.331   3.095  12.102 -0.1267 -0.5821  0.9079
 3911TIP3    H133148   3.315   3.185  12.074  0.5149 -0.9778 -0.9152
 3911TIP3    H233149   3.400   3.102  12.168 -0.4207  0.2967  1.1261
 3912TIP3   OH233150   6.536   5.189   1.847  0.1699  0.2548  0.2025
 3912TIP3    H133151   6.552   5.214   1.756 -2.4652  0.1492 -0.3689
 3912TIP3    H233152   6.484   5.261   1.883  0.6242 -0.0154  1.4355
 3913TIP3   OH233153   1.964   3.439   0.342 -0.3989  0.4236  0.3997
 3913TIP3    H133154   1.902   3.511   0.348 -0.3266  0.6613 -1.1686
 3913TIP3    H233155   2.032   3.460   0.406 -1.6873  0.3628  1.8548
 3914TIP3   OH233156   0.619   1.865  14.771  0.6707 -0.4878 -0.2615
 3914TIP3    H133157   0.602   1.883  14.863  0.2508  2.6206 -0.8568
 3914TIP3    H233158   0.663   1.780  14.771  0.4239 -0.7080  2.7470
 3915TIP3   OH233159   2.352   3.720  15.642 -0.2626  0.5158  0.0626
 3915TIP3    H133160   2.447   3.715  15.631 -0.1457 -1.1004  1.4088
 3915TIP3    H233161   2.335   3.678  15.726 -2.3055 -0.7761 -0.9065
 3916TIP3   OH233162   5.387   5.692   1.591  0.2150 -0.0252  0.0421
 3916TIP3    H133163   5.419   5.758   1.653 -0.0535 -1.5599  1.9033
 3916TIP3    H233164   5.463   5.636   1.575  0.0208 -0.2121 -0.2281
 3917TIP3   OH233165   2.364   3.201  13.812 -0.3269 -0.0508 -0.2125
 3917TIP3    H133166   2.273   3.201  13.783 -0.1477  0.6578 -0.7840
 3917TIP3    H233167   2.415   3.211  13.732  0.2691 -0.7009  0.0807
 3918TIP3   OH233168   4.776   5.190  12.919  0.7999 -0.4762  0.3576
 3918TIP3    H133169   4.841   5.133  12.876  0.0677 -0.9131 -0.1971
 3918TIP3    H233170   4.826   5.266  12.947  1.4087 -0.4296 -0.7986
 3919TIP3   OH233171   5.701   6.549   5.514 -0.1785 -0.2264 -0.1403
 3919TIP3    H133172   5.727   6.553   5.606  0.0837 -1.8522 -0.1159
 3919TIP3    H233173   5.685   6.456   5.497 -0.0717  0.0172 -1.7837
 3920TIP3   OH233174   2.951   2.290   1.126 -0.1059  0.2560  0.3231
 3920TIP3    H133175   2.857   2.272   1.133  0.2136 -1.2946  1.0505
 3920TIP3    H233176   2.993   2.204   1.136  1.2492  0.1357 -4.2024
 3921TIP3   OH233177   5.612   1.594   3.830  0.1237  0.0673  0.4007
 3921TIP3    H133178   5.538   1.655   3.821 -1.9715 -2.2448  0.9561
 3921TIP3    H233179   5.675   1.642   3.884 -1.4722  1.7040  0.9398
 3922TIP3   OH233180   2.344   2.115  11.950  0.3242  0.3183 -0.0800
 3922TIP3    H133181   2.374   2.166  11.874  0.1530 -0.7193 -0.8572
 3922TIP3    H233182   2.340   2.025  11.918 -1.3851  0.0946  0.6659
 3923TIP3   OH233183   4.249   5.552   2.506 -0.7502  0.3740 -0.0972
 3923TIP3    H133184   4.307   5.486   2.467  0.9839  1.7759 -0.0239
 3923TIP3    H233185   4.211   5.599   2.432 -0.0415  0.8876 -0.1428
 3924TIP3   OH233186   3.786   0.959  14.440 -0.1149 -0.1409 -0.0116
 3924TIP3    H133187   3.718   0.900  14.408 -0.8640  1.1360 -0.8668
 3924TIP3    H233188   3.831   0.988  14.361  2.5570 -2.1745  0.6012
 3925TIP3   OH233189   3.301   5.220   4.480 -0.1055  0.4041  0.1026
 3925TIP3    H133190   3.351   5.207   4.560 -2.1148  0.3237  1.3965
 3925TIP3    H233191   3.358   5.275   4.425  1.3335  0.4030  1.5279
 3926TIP3   OH233192   6.021   4.946   2.374 -0.7703  0.4009 -0.3047
 3926TIP3    H133193   5.973   4.928   2.294  1.8207  2.2027 -2.4398
 3926TIP3    H233194   6.103   4.898   2.364 -1.0920 -0.8764  2.2281
 3927TIP3   OH233195   2.101   4.065   1.074 -0.2376 -0.2812  0.1657
 3927TIP3    H133196   2.183   4.020   1.055  0.0957  0.2011  0.4335
 3927TIP3    H233197   2.048   4.054   0.995  1.3600  2.2414 -1.4285
 3928TIP3   OH233198   3.709   0.725   2.863  0.2254  0.2945  0.5826
 3928TIP3    H133199   3.770   0.652   2.873 -0.1047  0.0599  0.9028
 3928TIP3    H233200   3.733   0.786   2.933 -0.2976 -0.0810  1.1029
 3929TIP3   OH233201   3.215   5.722   4.858 -0.6107 -0.3011 -0.5549
 3929TIP3    H133202   3.270   5.800   4.872 -0.2080 -0.8070  0.8535
 3929TIP3    H233203   3.271   5.661   4.810 -0.4107 -0.2830 -0.3462
 3930TIP3   OH233204   5.484   1.638   5.347 -0.5009  0.4735  0.1313
 3930TIP3    H133205   5.403   1.625   5.397 -0.4302  1.1819  0.4402
 3930TIP3    H233206   5.454   1.658   5.258 -0.6476  0.2839  0.1360
 3931TIP3   OH233207   4.728   0.853   5.291 -0.0142 -0.0124 -0.0525
 3931TIP3    H133208   4.639   0.864   5.323  0.2441 -0.5309  0.8828
 3931TIP3    H233209   4.719   0.845   5.196 -1.0154 -0.5932  0.0803
 3932TIP3   OH233210   6.098   2.560  14.623 -0.3164 -0.4060 -0.1459
 3932TIP3    H133211   6.124   2.469  14.633  0.9186 -0.0623 -0.1023
 3932TIP3    H233212   6.179   2.607  14.605 -1.0230  0.5994 -0.8333
 3933TIP3   OH233213   1.196   3.580  16.131 -0.3205 -0.5845 -0.8276
 3933TIP3    H133214   1.147   3.516  16.080  0.2508 -0.2954 -1.7704
 3933TIP3    H233215   1.227   3.644  16.066 -0.4144  0.3447  0.0160
 3934TIP3   OH233216   5.268   2.395   1.374  0.5332  0.4322  0.4207
 3934TIP3    H133217   5.206   2.336   1.330  1.9868 -0.6534 -0.2590
 3934TIP3    H233218   5.253   2.480   1.333  1.4769 -0.4371 -1.9142
 3935TIP3   OH233219   2.196   5.205  12.083 -0.1230  0.0778 -0.2824
 3935TIP3    H133220   2.251   5.160  12.147  0.5886 -0.7096 -1.4101
 3935TIP3    H233221   2.133   5.139  12.055 -1.5846  0.9169  0.8592
 3936TIP3   OH233222   0.902   5.081  14.829  0.0353  0.4451 -0.4394
 3936TIP3    H133223   0.884   4.998  14.785  3.0673 -1.1709  1.0479
 3936TIP3    H233224   0.904   5.146  14.758 -0.5651 -1.0797 -1.9157
 3937TIP3   OH233225   6.057   4.630  13.032 -0.4814 -0.1901  0.1144
 3937TIP3    H133226   5.967   4.609  13.058 -0.2023  0.1180  1.3689
 3937TIP3    H233227   6.108   4.620  13.112  0.2755  1.6159 -0.0984
 3938TIP3   OH233228   1.847   3.072  16.294 -0.1837 -0.0392  0.4797
 3938TIP3    H133229   1.826   3.131  16.222 -0.6483  0.5938  1.1210
 3938TIP3    H233230   1.942   3.059  16.288 -0.0512  0.8966  0.4222
 3939TIP3   OH233231   5.966   2.768  11.652 -0.3124 -0.1649  0.7501
 3939TIP3    H133232   5.928   2.703  11.593 -0.1845  0.9890 -0.6360
 3939TIP3    H233233   5.891   2.812  11.691 -0.3868 -0.2288  0.6784
 3940TIP3   OH233234   4.043   3.434  13.345 -0.7511  0.0487  0.2518
 3940TIP3    H133235   4.005   3.363  13.293 -1.7286  0.7838 -0.0609
 3940TIP3    H233236   3.974   3.457  13.408  0.0764 -0.2039  1.2902
 3941TIP3   OH233237   1.221   0.971   4.058 -0.1951 -0.4497 -0.6451
 3941TIP3    H133238   1.263   0.925   4.130 -1.1713  1.2499  1.1048
 3941TIP3    H233239   1.270   1.053   4.050 -1.3754  0.2891 -0.5089
 3942TIP3   OH233240   4.986   6.338  11.926 -0.0038  0.0571 -0.1186
 3942TIP3    H133241   4.946   6.270  11.980 -0.0722  0.3140  0.1612
 3942TIP3    H233242   5.002   6.296  11.842  1.6410 -0.8525  0.5986
 3943TIP3   OH233243   4.379   3.825  16.966  0.3486 -0.2774  0.2412
 3943TIP3    H133244   4.342   3.774  17.038  1.6372  0.0222  1.1543
 3943TIP3    H233245   4.470   3.796  16.960  0.3626 -0.0589 -1.0716
 3944TIP3   OH233246   6.021   5.354  15.908  0.3613 -0.4187  0.6253
 3944TIP3    H133247   5.966   5.278  15.890 -1.2037  0.3267  1.9956
 3944TIP3    H233248   6.089   5.320  15.966  0.9868 -1.2064 -0.5295
 3945TIP3   OH233249   3.104   3.129  16.536  0.1272 -0.3898 -0.1572
 3945TIP3    H133250   3.195   3.139  16.565  0.2639  0.6941 -0.9056
 3945TIP3    H233251   3.099   3.039  16.505  1.0418 -0.3653 -0.4224
 3946TIP3   OH233252   2.582   0.501   1.718 -0.0818 -0.3008 -0.3188
 3946TIP3    H133253   2.661   0.510   1.665  0.2963  0.0838  0.2989
 3946TIP3    H233254   2.510   0.516   1.656  0.3909  1.8845 -0.4195
 3947TIP3   OH233255   0.554   2.816   4.580  0.1366 -0.0813 -0.0341
 3947TIP3    H133256   0.613   2.791   4.509 -1.0875  1.7411 -1.8315
 3947TIP3    H233257   0.466   2.806   4.542 -0.5184  3.9509 -0.0112
 3948TIP3   OH233258   3.523   4.914   2.848  0.2873 -0.5660 -0.1269
 3948TIP3    H133259   3.541   4.824   2.875 -0.8175 -0.9792 -0.7063
 3948TIP3    H233260   3.532   4.913   2.753 -0.2166 -0.1831 -0.1850
 3949TIP3   OH233261   3.909   3.383   2.293 -0.0255 -0.0953  0.1784
 3949TIP3    H133262   3.949   3.462   2.258  0.1216 -0.8047 -1.3346
 3949TIP3    H233263   3.904   3.398   2.388 -0.5742  1.9493 -0.1350
 3950TIP3   OH233264   4.782   2.794  13.677 -0.1039 -0.2764  0.1552
 3950TIP3    H133265   4.864   2.842  13.687  0.6860 -1.3461 -0.9405
 3950TIP3    H233266   4.734   2.843  13.611  0.3107 -0.4666 -0.2967
 3951TIP3   OH233267   0.779   1.656   2.761  0.5279  0.0078  0.4069
 3951TIP3    H133268   0.782   1.752   2.755  0.4370  0.1553  2.0816
 3951TIP3    H233269   0.707   1.639   2.821 -0.9794 -1.2524 -1.6545
 3952TIP3   OH233270   1.819   4.187  16.267  0.5667 -0.1898  0.3821
 3952TIP3    H133271   1.812   4.193  16.362  0.7228 -0.4922  0.4123
 3952TIP3    H233272   1.906   4.221  16.247  0.1321  0.8909  0.2529
 3953TIP3   OH233273   6.002   6.504  11.821 -0.0999 -0.0331 -0.5719
 3953TIP3    H133274   5.974   6.474  11.907 -0.2764  0.0679 -0.5932
 3953TIP3    H233275   5.976   6.435  11.761  0.0051 -0.0945 -0.5485
 3954TIP3   OH233276   0.156   5.685   2.636 -0.2390  0.1503  0.0373
 3954TIP3    H133277   0.140   5.601   2.679  1.3363 -0.7143 -0.9621
 3954TIP3    H233278   0.096   5.686   2.561  0.0686 -0.2944 -0.2140
 3955TIP3   OH233279   1.674   0.112   4.823  0.2386  0.0507  0.1476
 3955TIP3    H133280   1.638   0.201   4.826  1.1152  0.5543 -2.2656
 3955TIP3    H233281   1.619   0.063   4.884 -1.6685  1.7705 -0.0372
 3956TIP3   OH233282   6.216   6.008   3.284 -0.2105 -0.3642  0.1454
 3956TIP3    H133283   6.237   6.088   3.333 -1.2536  0.3522 -0.5178
 3956TIP3    H233284   6.128   5.985   3.314 -0.6861 -0.1648 -1.0339
 3957TIP3   OH233285   5.713   0.750   5.035  0.1894  0.1762  0.0388
 3957TIP3    H133286   5.737   0.836   5.069  1.2789  0.6777 -1.8209
 3957TIP3    H233287   5.794   0.699   5.039 -0.0738 -0.2739 -0.2522
 3958TIP3   OH233288   1.837   1.965   6.491 -0.2167  0.1484  0.0870
 3958TIP3    H133289   1.751   1.980   6.453  0.2932 -0.9244 -1.5790
 3958TIP3    H233290   1.821   1.910   6.567 -1.0790  0.8114  0.4087
 3959TIP3   OH233291   3.922   5.713   1.717 -0.1547 -0.4594 -0.0249
 3959TIP3    H133292   3.953   5.802   1.700  0.3937 -0.7913 -0.8291
 3959TIP3    H233293   3.972   5.684   1.793  1.9688 -1.1702 -1.5996
 3960TIP3   OH233294   0.669   4.501   0.924  0.0634  0.0847  0.3191
 3960TIP3    H133295   0.729   4.507   0.849  0.4214  0.6616  0.6477
 3960TIP3    H233296   0.679   4.411   0.955  1.6156  0.4891  1.0714
 3961TIP3   OH233297   3.218   2.026   6.678  0.1077  0.2284 -0.3403
 3961TIP3    H133298   3.124   2.030   6.664  0.2793  0.0066 -1.6969
 3961TIP3    H233299   3.256   2.025   6.590  1.3681  0.0783  0.1736
 3962TIP3   OH233300   2.393   5.846  16.861  0.0014  0.5518  0.1381
 3962TIP3    H133301   2.489   5.850  16.864 -0.0271  0.7198  1.8872
 3962TIP3    H233302   2.372   5.757  16.889 -0.3726  0.6371  0.1339
 3963TIP3   OH233303   6.661   3.660  10.807  0.0255 -0.1761 -0.0445
 3963TIP3    H133304   6.613   3.734  10.771 -0.8563 -0.2315  0.9620
 3963TIP3    H233305   6.595   3.593  10.823  0.4117 -0.2627  1.3547
 3964TIP3   OH233306   5.254   3.037  14.742  0.6738 -0.2672  0.4430
 3964TIP3    H133307   5.159   3.024  14.737  0.8488 -1.1538 -1.3810
 3964TIP3    H233308   5.286   2.958  14.786  0.6903 -0.7237 -0.3675
 3965TIP3   OH233309   0.792   0.540  11.928  0.1441  0.5705  0.1522
 3965TIP3    H133310   0.846   0.557  12.004 -0.7512 -0.3302  1.0212
 3965TIP3    H233311   0.706   0.577  11.950 -0.8031 -1.7116  0.6011
 3966TIP3   OH233312   5.776   4.087  15.679  0.2083 -0.6357  0.1815
 3966TIP3    H133313   5.794   3.993  15.687 -0.3437 -0.6754  1.1728
 3966TIP3    H233314   5.684   4.095  15.704 -0.2627 -0.0380 -1.6082
 3967TIP3   OH233315   4.928   6.055  11.223  0.0566 -0.0662 -0.2687
 3967TIP3    H133316   4.835   6.063  11.202 -0.2971 -1.9605  0.4259
 3967TIP3    H233317   4.963   5.996  11.156  0.4662 -0.4477  0.2711
 3968TIP3   OH233318   4.814   4.711  12.762 -0.8830  0.2862 -0.1897
 3968TIP3    H133319   4.872   4.643  12.727  1.0436  1.9877 -0.5237
 3968TIP3    H233320   4.810   4.692  12.856 -0.2293 -0.1962 -0.2464
 3969TIP3   OH233321   6.534   4.498  15.563 -0.0748 -0.0454  0.0922
 3969TIP3    H133322   6.507   4.589  15.573  2.3625  0.6686  0.7646
 3969TIP3    H233323   6.590   4.481  15.638  2.9691 -0.7033 -2.1285
 3970TIP3   OH233324   5.649   4.532  16.384  0.0097 -0.8926  0.3206
 3970TIP3    H133325   5.673   4.560  16.296 -0.0167 -1.3186  0.1773
 3970TIP3    H233326   5.576   4.472  16.371 -1.4652  0.7380  0.7847
 3971TIP3   OH233327   0.954   3.080   6.096  0.4359 -0.0389 -0.2882
 3971TIP3    H133328   0.979   2.994   6.063  1.0976  0.5515 -1.3681
 3971TIP3    H233329   0.890   3.061   6.165 -0.2596 -1.3387 -1.2397
 3972TIP3   OH233330   3.530   2.064   1.717 -0.4259 -0.5241  0.2634
 3972TIP3    H133331   3.465   1.999   1.691 -0.2950  0.2178 -2.1244
 3972TIP3    H233332   3.596   2.061   1.647  0.4016  1.0524  0.9252
 3973TIP3   OH233333   3.381   1.754  13.456 -0.0143 -0.3369  0.0723
 3973TIP3    H133334   3.355   1.662  13.460  2.6567 -1.1041  1.3825
 3973TIP3    H233335   3.334   1.795  13.529 -2.2581 -0.2801 -1.3038
 3974TIP3   OH233336   5.718   0.517  10.988 -0.3801 -0.1995 -0.1478
 3974TIP3    H133337   5.662   0.587  10.954  0.0260 -0.4857 -1.4422
 3974TIP3    H233338   5.801   0.528  10.942  0.2395 -0.5441  0.8422
 3975TIP3   OH233339   1.174   5.163   3.453  0.5536  0.1548 -0.3608
 3975TIP3    H133340   1.232   5.161   3.377  1.6175 -1.0105  0.4475
 3975TIP3    H233341   1.129   5.079   3.452  0.8804 -0.0421  0.5152
 3976TIP3   OH233342   0.885   4.041  13.148 -0.0489 -0.6495 -0.3046
 3976TIP3    H133343   0.960   4.100  13.162 -0.9888  0.4928  0.1032
 3976TIP3    H233344   0.854   4.063  13.060 -1.4541  0.7505  0.4890
 3977TIP3   OH233345   4.532   4.748   2.584 -0.1561 -0.2197  0.0978
 3977TIP3    H133346   4.449   4.766   2.539  0.1299  0.9583 -0.0062
 3977TIP3    H233347   4.506   4.714   2.669 -0.8931  2.6433  1.1620
 3978TIP3   OH233348   6.505   0.579  13.463  0.0597  0.4033 -0.3182
 3978TIP3    H133349   6.548   0.493  13.469  1.0563  0.9644  1.5380
 3978TIP3    H233350   6.567   0.633  13.413  1.0197  0.8657  1.2777
 3979TIP3   OH233351   5.206   5.612   5.041  0.0799  0.0382 -0.7963
 3979TIP3    H133352   5.260   5.650   5.110 -0.3791 -1.2856  0.3330
 3979TIP3    H233353   5.128   5.668   5.038 -0.3362 -0.4552  0.4549
 3980TIP3   OH233354   0.702   0.690   0.127  0.0813 -0.1002 -0.4099
 3980TIP3    H133355   0.771   0.718   0.067 -0.7083 -0.1788 -1.3892
 3980TIP3    H233356   0.691   0.597   0.108 -0.3064 -0.0827 -0.2690
 3981TIP3   OH233357   6.211   2.288  17.216 -0.1720  0.6828  0.2610
 3981TIP3    H133358   6.255   2.332  17.143  0.0265 -1.2855 -0.8876
 3981TIP3    H233359   6.237   2.196  17.208 -1.3322  0.1511  1.9474
 3982TIP3   OH233360   6.282   3.704  15.483 -0.2500 -0.6863  0.0244
 3982TIP3    H133361   6.340   3.716  15.558 -0.3326 -0.5331  0.0649
 3982TIP3    H233362   6.195   3.729  15.516 -0.2053 -0.1171 -0.2621
 3983TIP3   OH233363   3.353   1.015   5.751  0.0991 -0.0734 -0.0707
 3983TIP3    H133364   3.315   1.038   5.666  1.4079 -1.1453 -0.9976
 3983TIP3    H233365   3.281   0.975   5.800  0.0650 -2.6365 -2.0001
 3984TIP3   OH233366   0.978   0.058   1.208 -0.3392  0.6879 -0.6387
 3984TIP3    H133367   1.024   0.003   1.144  1.4441  2.2110 -0.7469
 3984TIP3    H233368   1.012   0.146   1.192  0.7131  1.0636  2.8357
 3985TIP3   OH233369   2.296   5.750   1.695  0.3396 -0.6602  0.1758
 3985TIP3    H133370   2.352   5.818   1.657 -1.1105  0.3723 -0.1855
 3985TIP3    H233371   2.218   5.797   1.725  0.8499 -1.5830  3.3655
 3986TIP3   OH233372   1.593   4.818   3.635 -0.2432  0.5759  0.4692
 3986TIP3    H133373   1.531   4.839   3.565 -0.4145  0.1795  0.4970
 3986TIP3    H233374   1.678   4.814   3.591 -0.4498 -0.4188  0.1304
 3987TIP3   OH233375   4.978   1.104   5.349  0.5517  0.8474 -0.6640
 3987TIP3    H133376   5.051   1.096   5.410 -1.5271 -0.4016  1.8264
 3987TIP3    H233377   4.978   1.023   5.299  0.3419  0.4251  0.0080
 3988TIP3   OH233378   2.845   6.602  15.008  0.3931 -0.1414 -0.4915
 3988TIP3    H133379   2.793   6.634  14.935 -1.1254  0.4203  0.7893
 3988TIP3    H233380   2.871   6.680  15.056  0.2763 -0.5662  0.2838
 3989TIP3   OH233381   4.702   0.713   4.190  0.2042 -0.4470  0.4055
 3989TIP3    H133382   4.743   0.648   4.247 -0.5383 -1.9902 -0.7348
 3989TIP3    H233383   4.639   0.663   4.138 -0.8559  1.3083 -0.0900
 3990TIP3   OH233384   5.978   2.219  11.541  0.1397 -0.5984  0.8719
 3990TIP3    H133385   5.908   2.158  11.518 -0.9621  0.6960  0.6360
 3990TIP3    H233386   5.943   2.270  11.614  0.1809  1.0772 -0.1982
 3991TIP3   OH233387   4.297   1.286  13.366  0.0643 -0.3020  0.4640
 3991TIP3    H133388   4.259   1.208  13.407 -0.3183 -0.2938  0.1333
 3991TIP3    H233389   4.288   1.355  13.433 -0.8951 -0.1953  0.2493
 3992TIP3   OH233390   1.173   0.638  16.708  0.0903  0.2333  0.2888
 3992TIP3    H133391   1.107   0.707  16.701 -0.3844 -0.1843  0.5419
 3992TIP3    H233392   1.215   0.635  16.622 -0.4984  0.2309 -0.0024
 3993TIP3   OH233393   4.057   1.475   1.838 -0.3849  0.1286  0.1368
 3993TIP3    H133394   4.081   1.568   1.832 -0.3588  0.1082 -0.0915
 3993TIP3    H233395   4.141   1.429   1.847 -0.3603  0.0821 -0.3337
 3994TIP3   OH233396   2.376   4.957   1.068  0.0159  0.1363 -0.0167
 3994TIP3    H133397   2.387   4.938   0.975  2.8881 -1.0624  0.4729
 3994TIP3    H233398   2.325   4.884   1.102  0.5054 -0.3721 -0.3539
 3995TIP3   OH233399   2.404   6.089   5.032 -0.4833 -1.0044  0.1728
 3995TIP3    H133400   2.350   6.136   4.968  0.3189 -0.6825 -0.2774
 3995TIP3    H233401   2.440   6.015   4.984  0.0347 -0.8265  0.2775
 3996TIP3   OH233402   0.155   4.716  13.731 -0.0501 -0.6311 -0.1876
 3996TIP3    H133403   0.102   4.642  13.759 -0.2454 -0.2936  0.3618
 3996TIP3    H233404   0.092   4.787  13.717  0.2867 -0.1005  0.8989
 3997TIP3   OH233405   0.413   2.501  14.113  0.4186 -0.4994  0.3501
 3997TIP3    H133406   0.419   2.572  14.049  2.2648 -0.5465  0.4420
 3997TIP3    H233407   0.321   2.474  14.109 -0.0959  1.2535 -0.3628
 3998TIP3   OH233408   1.884   3.605   1.437 -0.0293 -0.0336 -0.5426
 3998TIP3    H133409   1.843   3.691   1.427 -1.8283 -0.7250  0.5180
 3998TIP3    H233410   1.899   3.597   1.531  0.3939 -0.7806 -0.6669
 3999TIP3   OH233411   0.888   5.725   3.695  0.2694  0.0841  0.0745
 3999TIP3    H133412   0.966   5.746   3.642  0.6256 -0.0225  0.5501
 3999TIP3    H233413   0.855   5.810   3.724 -1.3124  0.3456 -2.2249
 4000TIP3   OH233414   4.182   6.135  12.396  0.2833  0.0884  0.2225
 4000TIP3    H133415   4.122   6.159  12.467  1.1039 -2.1331  1.7965
 4000TIP3    H233416   4.129   6.144  12.316 -1.3712  0.5679  1.3181
 4001TIP3   OH233417   2.873   5.740   2.583 -0.4188  0.1682  0.0613
 4001TIP3    H133418   2.953   5.732   2.531  0.0500  1.2162  0.5787
 4001TIP3    H233419   2.826   5.814   2.544 -2.4380 -1.9901 -1.8509
 4002TIP3   OH233420   6.093   3.615  11.656  0.2393 -0.2322 -0.1145
 4002TIP3    H133421   6.052   3.623  11.570 -1.5220  0.5972  0.7560
 4002TIP3    H233422   6.033   3.562  11.708  0.8809 -0.0647  0.8389
 4003TIP3   OH233423   2.868   4.621   1.669 -0.0274  0.4424  0.1706
 4003TIP3    H133424   2.855   4.713   1.692 -1.6546 -0.0192  1.3362
 4003TIP3    H233425   2.874   4.576   1.753  1.6298 -0.4496 -0.3762
 4004TIP3   OH233426   0.891   5.461   2.825  0.3425 -0.2030  0.6044
 4004TIP3    H133427   0.876   5.484   2.734 -2.2140  0.5817  1.1448
 4004TIP3    H233428   0.804   5.456   2.864  1.3579 -0.1057  3.1073
 4005TIP3   OH233429   6.219   2.280   2.931 -0.2957 -0.1061 -0.4635
 4005TIP3    H133430   6.220   2.279   2.835  0.6334  0.2349 -0.4638
 4005TIP3    H233431   6.310   2.292   2.956 -0.2523 -2.1411  0.5069
 4006TIP3   OH233432   6.035   4.108  13.795 -0.4028  0.2374 -0.2712
 4006TIP3    H133433   5.997   4.097  13.883 -0.8947  1.6567 -0.2770
 4006TIP3    H233434   6.052   4.019  13.765  0.3800 -0.2632  1.5257
 4007TIP3   OH233435   2.358   1.865   5.824 -0.1645  0.2007  0.1391
 4007TIP3    H133436   2.425   1.916   5.778 -1.0614  1.6226  0.3424
 4007TIP3    H233437   2.380   1.874   5.917 -0.1179 -0.1131  0.1610
 4008TIP3   OH233438   1.944   5.556  16.015 -0.0926  0.1288 -0.2501
 4008TIP3    H133439   1.892   5.507  16.079 -0.8974  0.6647 -0.4737
 4008TIP3    H233440   1.998   5.615  16.067 -1.3080  1.1150 -0.0639
 4009TIP3   OH233441   2.372   1.591  16.675 -0.0516 -0.0792  0.0129
 4009TIP3    H133442   2.336   1.604  16.588  0.9122  1.8796 -0.1457
 4009TIP3    H233443   2.467   1.595  16.663  0.1302 -0.9893  0.9848
 4010TIP3   OH233444   4.032   4.659   4.624 -0.4125 -0.3394  0.0240
 4010TIP3    H133445   4.048   4.732   4.563 -0.6980 -0.9926 -0.8504
 4010TIP3    H233446   4.101   4.667   4.690 -1.4697  1.7879  0.9786
 4011TIP3   OH233447   4.509   1.942  16.177 -0.5507  0.1381 -0.3639
 4011TIP3    H133448   4.500   1.981  16.263 -1.0147  0.1964 -0.4364
 4011TIP3    H233449   4.579   1.877  16.186 -0.9569 -0.2270  0.1873
 4012TIP3   OH233450   2.822   4.311   2.714  0.4744  0.2190  0.3142
 4012TIP3    H133451   2.911   4.299   2.681  0.2925 -2.9352  0.6442
 4012TIP3    H233452   2.820   4.262   2.796 -1.6161  0.0081  0.1981
 4013TIP3   OH233453   5.285   4.218  12.314  0.0694  0.4873 -0.3307
 4013TIP3    H133454   5.235   4.179  12.242  0.6954 -1.2007  0.1112
 4013TIP3    H233455   5.369   4.241  12.274  0.3060 -0.1734 -0.2348
 4014TIP3   OH233456   5.272   3.341  15.507 -0.0834  0.1720  0.2594
 4014TIP3    H133457   5.257   3.366  15.598 -2.1915  2.0791 -0.5066
 4014TIP3    H233458   5.342   3.399  15.478  2.0269 -1.8184  1.1354
 4015TIP3   OH233459   4.980   6.509   1.579  0.3142  0.1645  0.0719
 4015TIP3    H133460   4.940   6.482   1.662 -0.6129 -1.4560 -0.8537
 4015TIP3    H233461   4.910   6.556   1.533  1.1887  2.1528  0.6556
 4016TIP3   OH233462   4.657   1.851  11.650  0.4073 -0.0258  1.2056
 4016TIP3    H133463   4.688   1.907  11.579  0.9261  0.3281  1.7043
 4016TIP3    H233464   4.713   1.773  11.645  0.3772 -0.0453  1.1678
 4017TIP3   OH233465   4.911   2.035   1.691 -0.5653 -0.0887  0.2385
 4017TIP3    H133466   4.998   2.075   1.688 -0.8738  0.5244 -0.7847
 4017TIP3    H233467   4.854   2.096   1.645 -1.6441 -0.2712  1.2808
 4018TIP3   OH233468   4.520   4.862  15.373 -0.0364  0.4257  0.4345
 4018TIP3    H133469   4.482   4.911  15.446 -1.1236  0.8905 -0.4179
 4018TIP3    H233470   4.496   4.912  15.295 -1.4038 -1.5506 -0.4995
 4019TIP3   OH233471   5.124   6.723  11.218 -0.7183  0.6491  0.3868
 4019TIP3    H133472   5.057   6.738  11.285 -1.3104  0.2830 -0.1079
 4019TIP3    H233473   5.090   6.767  11.140 -0.3171  0.5789  0.1700
 4020TIP3   OH233474   4.987   3.537  14.139  0.6368  0.0713  0.1902
 4020TIP3    H133475   4.898   3.557  14.169  0.8815  0.3187  0.7596
 4020TIP3    H233476   4.999   3.592  14.062  0.0329 -0.5080 -0.3308
 4021TIP3   OH233477   4.893   0.298  16.586 -0.1977 -0.6455  0.3730
 4021TIP3    H133478   4.843   0.335  16.659  3.1230  0.0731  2.5230
 4021TIP3    H233479   4.917   0.210  16.616 -2.0309 -1.8956 -1.6240
 4022TIP3   OH233480   5.180   6.545   0.872 -0.1731  0.0247  0.1667
 4022TIP3    H133481   5.141   6.564   0.786  1.8416 -0.3058 -0.8764
 4022TIP3    H233482   5.170   6.626   0.921  0.9055  1.0964 -1.3030
 4023TIP3   OH233483   2.641   2.673  14.044 -0.1558 -0.0244 -0.3027
 4023TIP3    H133484   2.719   2.688  14.098  0.0682  1.2004 -0.9347
 4023TIP3    H233485   2.674   2.670  13.954 -0.6323 -1.2167 -0.4550
 4024TIP3   OH233486   5.564   1.078   4.846 -0.2348  0.0814 -0.1246
 4024TIP3    H133487   5.638   1.130   4.813  1.3624 -1.5045  0.7858
 4024TIP3    H233488   5.544   1.117   4.931  0.1632 -0.0272  0.0217
 4025TIP3   OH233489   5.840   3.954   0.424  0.4714  0.3952  0.1086
 4025TIP3    H133490   5.826   3.917   0.337 -2.7439 -0.1705  0.7630
 4025TIP3    H233491   5.907   3.898   0.464 -2.6970 -3.7291  0.3016
 4026TIP3   OH233492   0.998   2.375  11.427  0.1687 -0.0542 -0.3495
 4026TIP3    H133493   0.965   2.421  11.504  1.9316  1.0821 -0.2075
 4026TIP3    H233494   0.957   2.420  11.353 -0.8355 -0.5684 -0.1180
 4027TIP3   OH233495   5.253   4.502   2.518 -0.0512  0.5153  0.4385
 4027TIP3    H133496   5.293   4.564   2.457 -1.4432  1.0748  0.0770
 4027TIP3    H233497   5.319   4.432   2.527 -0.4841 -0.5653 -3.1564
 4028TIP3   OH233498   2.763   0.992  11.380 -0.5864  0.2370 -0.0690
 4028TIP3    H133499   2.825   0.961  11.315  0.2209 -1.2722  1.3478
 4028TIP3    H233500   2.691   0.928  11.377 -0.4898  0.0916  0.5839
 4029TIP3   OH233501   2.120   0.570  16.583  0.0930 -0.2717 -0.1142
 4029TIP3    H133502   2.172   0.629  16.638 -0.1227 -0.1432 -0.0444
 4029TIP3    H233503   2.034   0.612  16.579  0.6813  0.8941 -2.3549
 4030TIP3   OH233504   0.594   6.412   0.891 -0.5247 -0.6299  1.0390
 4030TIP3    H133505   0.611   6.396   0.984  0.5408 -1.0735  0.7799
 4030TIP3    H233506   0.650   6.486   0.869  0.4998 -1.5612  0.3762
 4031TIP3   OH233507   5.197   5.707   2.032 -0.1023  0.1092 -0.6709
 4031TIP3    H133508   5.136   5.659   1.977 -2.3309  1.2363  0.6536
 4031TIP3    H233509   5.264   5.643   2.056 -1.3357 -1.4897 -1.3117
 4032TIP3   OH233510   1.335   2.291  14.738  0.4031 -0.0964  0.6705
 4032TIP3    H133511   1.415   2.264  14.783  0.9171 -2.9768 -1.6308
 4032TIP3    H233512   1.265   2.251  14.790  0.7626 -0.6983  0.7115
 4033TIP3   OH233513   3.439   4.844  14.890  0.6244  0.1176 -0.1021
 4033TIP3    H133514   3.409   4.933  14.908 -1.0320 -0.5827  0.8329
 4033TIP3    H233515   3.411   4.793  14.966  2.4219 -1.0435 -0.1482
 4034TIP3   OH233516   0.797   1.524  15.491  0.4630  0.3535 -0.0388
 4034TIP3    H133517   0.742   1.487  15.560  1.1399  0.4241  0.5474
 4034TIP3    H233518   0.807   1.616  15.515 -1.1906  0.9713 -1.4744
 4035TIP3   OH233519   5.761   4.066  16.832 -0.0647  0.0952 -0.1585
 4035TIP3    H133520   5.856   4.062  16.821 -0.0941  0.6620 -0.6312
 4035TIP3    H233521   5.745   4.150  16.876 -0.5506  1.3393 -2.5547
 4036TIP3   OH233522   0.497   0.783  14.003  0.1965 -0.3033 -0.2194
 4036TIP3    H133523   0.505   0.690  14.021  0.4673  0.2902  3.5818
 4036TIP3    H233524   0.407   0.794  13.971 -0.0152 -1.7582 -0.1817
 4037TIP3   OH233525   0.767   3.516  13.594  0.8301 -0.6065  0.7151
 4037TIP3    H133526   0.846   3.477  13.633 -1.1390 -2.9315  2.8139
 4037TIP3    H233527   0.713   3.440  13.572 -0.8673  0.9184 -0.5948
 4038TIP3   OH233528   0.619   3.840   1.559 -0.4919 -0.3289 -0.8679
 4038TIP3    H133529   0.705   3.842   1.600 -0.2156 -0.6532 -1.4277
 4038TIP3    H233530   0.594   3.932   1.552 -0.1769 -0.2325 -0.7302
 4039TIP3   OH233531   0.403   3.173  17.289 -0.3263 -0.1295  0.9519
 4039TIP3    H133532   0.486   3.141  17.323 -0.1820 -0.4364  0.3190
 4039TIP3    H233533   0.392   3.129  17.204 -0.6915  0.6017  0.6065
 4040TIP3   OH233534   1.972   0.322   2.762  0.3963  0.1272  0.8419
 4040TIP3    H133535   2.012   0.287   2.682 -0.4122  0.2025  0.3983
 4040TIP3    H233536   2.047   0.342   2.818  0.9424 -0.8260  0.4887
 4041TIP3   OH233537   5.653   2.938  12.321  0.0503 -0.0053 -0.4566
 4041TIP3    H133538   5.711   2.915  12.394 -0.0188  0.1093 -0.3654
 4041TIP3    H233539   5.667   3.032  12.308 -2.1533  0.6497  1.3831
 4042TIP3   OH233540   0.051   4.071  13.479 -0.9287  0.6131 -0.1932
 4042TIP3    H133541   0.067   4.111  13.564  0.2422  2.3246 -1.1745
 4042TIP3    H233542  -0.038   4.036  13.486 -0.0432 -1.4463  2.5047
 4043TIP3   OH233543   4.014   2.344   5.906  0.1318  0.0656  0.5430
 4043TIP3    H133544   4.041   2.305   5.989  0.7848  1.9003  1.2563
 4043TIP3    H233545   3.997   2.436   5.928  0.9356  0.7477 -1.4723
 4044TIP3   OH233546   0.518   1.907   4.108 -0.4058 -0.2394  0.0790
 4044TIP3    H133547   0.491   1.997   4.091 -0.4589 -0.3238 -0.2943
 4044TIP3    H233548   0.486   1.858   4.033  2.1042 -0.0710 -1.2082
 4045TIP3   OH233549   0.132   4.398   3.863  0.1864 -0.3291 -0.1501
 4045TIP3    H133550   0.102   4.337   3.796 -0.7515  1.0322 -1.0211
 4045TIP3    H233551   0.125   4.485   3.822  1.4049  0.3958  1.0596
 4046TIP3   OH233552   5.529   5.369   3.772 -0.1302  0.0993 -0.1698
 4046TIP3    H133553   5.595   5.345   3.707  1.9601  1.4688  1.2875
 4046TIP3    H233554   5.525   5.294   3.831 -0.7656 -0.4583 -0.9121
 4047TIP3   OH233555   5.899   0.382  13.354 -0.1273  0.2546  0.3649
 4047TIP3    H133556   5.842   0.374  13.278  1.6402 -0.5873 -0.9581
 4047TIP3    H233557   5.841   0.376  13.429 -1.7334 -0.8558 -0.9028
 4048TIP3   OH233558   4.930   2.474  13.984 -0.1608  0.0474  0.2059
 4048TIP3    H133559   5.021   2.504  13.983 -0.5282  1.2126 -0.4843
 4048TIP3    H233560   4.890   2.522  14.057 -0.3827  0.0836  0.0628
 4049TIP3   OH233561   1.367   2.461   3.548  0.2496 -0.0421  0.2786
 4049TIP3    H133562   1.348   2.443   3.640 -1.6983 -1.6753 -0.3690
 4049TIP3    H233563   1.310   2.402   3.499  0.2806  1.6764 -2.0267
 4050TIP3   OH233564   1.178   5.806  12.054 -0.0712 -0.3674 -0.4968
 4050TIP3    H133565   1.195   5.764  12.139 -0.3592  0.7113  0.1194
 4050TIP3    H233566   1.104   5.864  12.071  0.8367  1.0285 -1.0684
 4051TIP3   OH233567   0.717   0.143   2.323 -0.2555 -0.5138 -0.4225
 4051TIP3    H133568   0.756   0.152   2.410  0.3678 -1.3894 -0.5977
 4051TIP3    H233569   0.755   0.062   2.288 -2.9626 -2.0155 -0.2247
 4052TIP3   OH233570   2.264   5.288   1.346 -0.6727 -0.3148  0.1268
 4052TIP3    H133571   2.353   5.257   1.357 -1.0029 -1.5354 -0.4965
 4052TIP3    H233572   2.265   5.377   1.381  0.3803 -0.9076  1.6715
 4053TIP3   OH233573   1.374   0.325  14.231  0.3771  0.0873  0.0317
 4053TIP3    H133574   1.352   0.395  14.293 -0.5013 -0.5019  0.4058
 4053TIP3    H233575   1.396   0.250  14.287  1.5247  0.1051 -0.3644
 4054TIP3   OH233576   1.237   0.698   2.781  0.1290 -0.6359  0.5954
 4054TIP3    H133577   1.192   0.620   2.749  1.1065 -1.2674  0.7168
 4054TIP3    H233578   1.249   0.683   2.875  0.3047 -0.3277  0.6246
 4055TIP3   OH233579   2.068   1.954   3.923  0.4784  1.1198  0.1862
 4055TIP3    H133580   2.091   1.879   3.868 -0.5634  0.3062  0.8210
 4055TIP3    H233581   2.137   1.958   3.989 -0.5282 -0.6431  1.4373
 4056TIP3   OH233582   2.662   1.801  16.909  0.9400 -0.1845 -0.3542
 4056TIP3    H133583   2.707   1.738  16.965  0.3678 -0.6619 -0.4209
 4056TIP3    H233584   2.697   1.887  16.936  0.6036 -0.3923  0.7912
 4057TIP3   OH233585   2.119   2.263  17.097  0.0417 -0.0582  0.1586
 4057TIP3    H133586   2.034   2.267  17.054 -0.6266  0.7024  1.5053
 4057TIP3    H233587   2.159   2.349  17.080  0.8221 -0.6053 -0.9547
 4058TIP3   OH233588   4.880   6.595  15.552 -0.0502 -0.4611  0.6602
 4058TIP3    H133589   4.939   6.653  15.601 -1.8258  0.8571  1.3161
 4058TIP3    H233590   4.939   6.535  15.506  1.7689 -0.2046  2.4955
 4059TIP3   OH233591   5.678   6.248   3.948  1.0604  0.3183  0.2773
 4059TIP3    H133592   5.653   6.289   4.031  1.9819 -0.0444  0.7541
 4059TIP3    H233593   5.661   6.155   3.962 -1.6915  0.5126 -1.0408
 4060TIP3   OH233594   4.455   5.620   3.900  0.2460  0.0747 -0.0059
 4060TIP3    H133595   4.510   5.547   3.929  0.7259  0.4927  0.1486
 4060TIP3    H233596   4.371   5.579   3.879  0.8602 -0.7120 -1.0771
 4061TIP3   OH233597   2.443   0.086  14.459  0.5805  0.1958 -0.2251
 4061TIP3    H133598   2.478   0.052  14.376 -0.7428  1.5028 -1.3881
 4061TIP3    H233599   2.454   0.181  14.451  1.2096  0.3007  1.5011
 4062TIP3   OH233600   5.587   1.973   2.022 -0.1669 -0.7813 -0.1049
 4062TIP3    H133601   5.540   1.904   1.975 -0.0032 -1.8393  1.2488
 4062TIP3    H233602   5.548   2.054   1.989 -2.8001 -1.5929  0.7330
 4063TIP3   OH233603   2.809   4.603   6.745  0.0364 -0.5617  0.0744
 4063TIP3    H133604   2.819   4.696   6.727 -0.4005 -0.6803 -0.8239
 4063TIP3    H233605   2.715   4.592   6.764 -0.1787 -1.0405 -1.2159
 4064TIP3   OH233606   4.309   5.325  13.466  0.4351 -0.3802 -0.0299
 4064TIP3    H133607   4.274   5.388  13.403  1.5142 -0.4450 -0.7310
 4064TIP3    H233608   4.386   5.369  13.503  0.3217 -0.6992  0.5959
 4065TIP3   OH233609   2.121   3.841  12.861 -0.1143 -0.2291 -0.1660
 4065TIP3    H133610   2.119   3.931  12.894  0.6013  0.1217 -1.0430
 4065TIP3    H233611   2.072   3.790  12.926 -0.9454  0.8716  0.0957
 4066TIP3   OH233612   4.799   3.451   5.072  0.0609  0.5012 -0.8664
 4066TIP3    H133613   4.734   3.520   5.058 -0.7479 -0.0985 -0.1718
 4066TIP3    H233614   4.866   3.468   5.005 -1.5062  0.2898 -2.5839
 4067TIP3   OH233615   0.435   1.543   1.844  0.4144 -0.0885 -0.9928
 4067TIP3    H133616   0.521   1.503   1.833  0.8981  1.4173 -3.2623
 4067TIP3    H233617   0.373   1.470   1.837  1.4214 -0.9236 -1.3611
 4068TIP3   OH233618   6.603   4.955   5.980  0.2638  0.2187  0.0150
 4068TIP3    H133619   6.619   4.886   5.915 -0.1168 -0.6250  0.8018
 4068TIP3    H233620   6.532   5.007   5.942  0.6002  0.2303 -0.6151
 4069TIP3   OH233621   6.267   1.495  11.750 -0.0979 -0.4812 -0.4760
 4069TIP3    H133622   6.285   1.486  11.657 -0.7343 -1.9172 -0.4890
 4069TIP3    H233623   6.240   1.408  11.778  0.6073 -0.2154  1.1786
 4070TIP3   OH233624   0.936   0.987   5.816  0.4010 -0.4449 -0.0921
 4070TIP3    H133625   0.949   0.900   5.854  0.7244 -0.3079  0.1134
 4070TIP3    H233626   0.904   0.969   5.727  0.8411 -0.7824 -0.1894
 4071TIP3   OH233627   2.874   4.985  11.343 -0.3419  0.3902 -0.7443
 4071TIP3    H133628   2.831   4.903  11.365 -0.8238  0.2598 -2.0461
 4071TIP3    H233629   2.807   5.035  11.295 -0.0122  1.4797 -0.1124
 4072TIP3   OH233630   3.486   6.061  12.404  0.3104  0.1476 -0.1002
 4072TIP3    H133631   3.451   6.033  12.319  0.9707 -0.5557 -0.1524
 4072TIP3    H233632   3.432   6.136  12.429  0.5565  0.8058 -1.4674
 4073TIP3   OH233633   0.423   6.477  12.928  0.5650 -0.0073  0.0474
 4073TIP3    H133634   0.495   6.456  12.988 -0.6301 -0.8295  1.2557
 4073TIP3    H233635   0.464   6.528  12.858  2.0651  0.7972  1.4443
 4074TIP3   OH233636   0.813   2.837   6.675  0.2241 -0.7294 -0.0640
 4074TIP3    H133637   0.862   2.850   6.595  0.3373 -0.0722  0.1100
 4074TIP3    H233638   0.745   2.774   6.651  0.2033 -0.4726 -0.6965
 4075TIP3   OH233639   1.195   6.620   5.457  0.1572  0.3087 -0.1823
 4075TIP3    H133640   1.264   6.555   5.444 -0.8737 -1.4179  2.2828
 4075TIP3    H233641   1.188   6.665   5.372  2.4668 -1.2337 -1.2792
 4076TIP3   OH233642   6.516   1.657   2.769 -0.1129 -0.4078  0.2729
 4076TIP3    H133643   6.505   1.634   2.677 -2.5254  0.8309  0.1765
 4076TIP3    H233644   6.467   1.590   2.817  2.3832 -1.9601  0.8790
 4077TIP3   OH233645   4.140   0.750   4.211 -0.3323 -0.1528  0.3711
 4077TIP3    H133646   4.093   0.790   4.137  0.2728 -0.3354 -0.1206
 4077TIP3    H233647   4.231   0.744   4.181 -0.0145  0.0877  1.2733
 4078TIP3   OH233648   1.843   0.889   2.060  0.4365  0.4664 -0.1216
 4078TIP3    H133649   1.908   0.833   2.103 -0.7000 -0.4072  0.5242
 4078TIP3    H233650   1.827   0.960   2.123  0.7093  0.6526 -0.2584
 4079TIP3   OH233651   5.850   4.942  11.542 -0.3243 -0.3881 -0.2906
 4079TIP3    H133652   5.798   4.981  11.612  1.3340  1.2295  0.0920
 4079TIP3    H233653   5.785   4.904  11.482 -1.8327 -0.2278  1.1828
 4080TIP3   OH233654   1.360   2.995  12.508 -0.5302  0.0244  1.2176
 4080TIP3    H133655   1.289   2.936  12.533  1.1389 -2.6988 -0.0398
 4080TIP3    H233656   1.424   2.988  12.579  1.8861 -3.7380 -1.0113
 4081TIP3   OH233657   1.429   3.102   2.097  0.3837  0.5578  0.3248
 4081TIP3    H133658   1.345   3.100   2.141  0.1568  1.0349 -0.0786
 4081TIP3    H233659   1.458   3.193   2.105 -0.0082  0.8388 -1.1329
 4082TIP3   OH233660   0.268   1.457  13.035  0.9469 -0.5303 -0.9139
 4082TIP3    H133661   0.197   1.505  13.077  0.4956 -1.5860 -0.4322
 4082TIP3    H233662   0.279   1.500  12.950  0.9714  0.7878 -0.2737
 4083TIP3   OH233663   4.080   5.852   0.668  0.0586  0.0102  0.2681
 4083TIP3    H133664   4.059   5.928   0.723 -0.1223  0.3528 -0.2706
 4083TIP3    H233665   4.143   5.885   0.604 -2.3810  0.5800 -2.0322
 4084TIP3   OH233666   5.618   0.441  11.270  0.1608 -0.1035  0.2743
 4084TIP3    H133667   5.573   0.461  11.188  1.3903  0.5113 -0.2833
 4084TIP3    H233668   5.665   0.359  11.251  0.8038  0.2720  0.1888
 4085TIP3   OH233669   4.289   3.785  14.804 -0.0233 -0.0553  0.0398
 4085TIP3    H133670   4.202   3.820  14.823  0.4443  1.5112 -0.5041
 4085TIP3    H233671   4.342   3.863  14.785  1.8065 -0.8562  1.5135
 4086TIP3   OH233672   5.710   5.074  12.728  0.0798  0.1379  0.1928
 4086TIP3    H133673   5.696   4.985  12.694 -1.0845  0.5655 -0.5221
 4086TIP3    H233674   5.725   5.062  12.822  1.0576 -0.8878 -0.0660
 4087TIP3   OH233675   4.717   2.164   5.139  0.2874 -0.0815 -0.4207
 4087TIP3    H133676   4.715   2.156   5.234 -2.2602  0.4229 -0.3556
 4087TIP3    H233677   4.801   2.206   5.120 -0.2703  2.3213  1.8724
 4088TIP3   OH233678   1.436   4.983  16.708  0.2317  0.5678  0.4350
 4088TIP3    H133679   1.437   5.073  16.741 -0.4189  1.5186 -1.9083
 4088TIP3    H233680   1.344   4.957  16.713  0.3825  0.1120  0.8853
 4089TIP3   OH233681   1.942   5.684  16.760 -0.0449 -0.3415 -0.0287
 4089TIP3    H133682   1.954   5.590  16.744  0.0638 -0.3166 -0.1022
 4089TIP3    H233683   1.860   5.706  16.715  0.3801 -0.2264 -0.7710
 4090TIP3   OH233684   4.381   5.570  14.598 -0.1313  0.3725  0.2024
 4090TIP3    H133685   4.446   5.640  14.597 -0.3756  0.6313  1.2003
 4090TIP3    H233686   4.405   5.514  14.524  0.0289  1.5318 -0.6514
 4091TIP3   OH233687   0.945   5.034  15.258  0.2078 -0.3050 -0.1893
 4091TIP3    H133688   0.960   4.970  15.329  1.6699 -0.2966 -0.4548
 4091TIP3    H233689   0.929   5.116  15.304 -0.6235 -0.6484  0.1469
 4092TIP3   OH233690   3.496   1.797   0.384 -0.7910  0.3747 -0.2940
 4092TIP3    H133691   3.467   1.818   0.296 -1.0128 -1.6596 -0.7447
 4092TIP3    H233692   3.445   1.855   0.440 -2.1432  0.2769 -1.3838
 4093TIP3   OH233693   1.896   2.771   5.702 -0.3420  0.1038  0.4433
 4093TIP3    H133694   1.880   2.856   5.663 -1.9015 -0.0252  0.7554
 4093TIP3    H233695   1.980   2.781   5.748  0.1386  1.0565 -0.5887
 4094TIP3   OH233696   1.047   1.397   1.059  0.2721  0.3838  0.0119
 4094TIP3    H133697   0.999   1.407   1.141  1.0286  0.9894  0.3965
 4094TIP3    H233698   1.070   1.304   1.055  1.0135  0.5141  0.9537
 4095TIP3   OH233699   5.310   2.655  12.427  0.2966 -0.8557 -0.1424
 4095TIP3    H133700   5.249   2.689  12.493  2.1378 -1.7615  2.1369
 4095TIP3    H233701   5.397   2.671  12.464  1.3594 -3.1199 -1.4859
 4096TIP3   OH233702   0.619   2.086   5.286  0.1257  0.2011 -0.1866
 4096TIP3    H133703   0.569   2.007   5.304  0.2783  0.3655  1.1007
 4096TIP3    H233704   0.640   2.121   5.373  1.8868  0.4979 -0.6822
 4097TIP3   OH233705   6.692   6.748   0.325  0.0305  0.1586 -0.1980
 4097TIP3    H133706   6.661   6.724   0.237 -1.2833  0.3874  0.1815
 4097TIP3    H233707   6.617   6.791   0.366 -0.8833 -3.5183  2.4931
 4098TIP3   OH233708   2.143   4.731   6.080  0.0654  0.1668  0.2862
 4098TIP3    H133709   2.201   4.779   6.022 -0.6937  0.8532  0.0791
 4098TIP3    H233710   2.062   4.782   6.081 -0.2505 -0.3261  1.2196
 4099TIP3   OH233711   5.743   2.448  17.291  0.5799  0.2771 -0.4039
 4099TIP3    H133712   5.673   2.414  17.235  0.5609  0.2374 -0.3560
 4099TIP3    H233713   5.823   2.406  17.258  0.8278  1.5435 -1.4928
 4100TIP3   OH233714   2.460   2.402   1.569  0.4249 -0.1979 -0.2159
 4100TIP3    H133715   2.368   2.381   1.555  0.5166 -1.2455  0.5931
 4100TIP3    H233716   2.506   2.359   1.497  0.2700  0.6111 -0.8154
 4101TIP3   OH233717   4.324   2.826  12.180  0.8159 -0.3651  0.0799
 4101TIP3    H133718   4.415   2.809  12.159  1.4033  2.7752 -0.4907
 4101TIP3    H233719   4.326   2.867  12.266 -0.3799 -2.3979  1.1521
 4102TIP3   OH233720   3.204   2.029  13.882 -0.8819  0.1974  0.4233
 4102TIP3    H133721   3.254   2.111  13.886  0.8780 -0.7988  0.0939
 4102TIP3    H233722   3.165   2.020  13.969  1.8476 -0.3091  1.7055
 4103TIP3   OH233723   5.474   2.050  11.336  0.4182  0.1720  0.4022
 4103TIP3    H133724   5.393   2.044  11.286 -0.2029 -0.1922  1.4179
 4103TIP3    H233725   5.503   1.959  11.346  0.5043  0.2361  0.7485
 4104TIP3   OH233726   3.215   2.899   2.483 -0.4143 -0.0490  0.3561
 4104TIP3    H133727   3.173   2.911   2.398 -0.2654  0.5199  0.3625
 4104TIP3    H233728   3.216   2.804   2.496 -0.9572 -0.1064 -0.0121
 4105TIP3   OH233729   1.479   3.601  15.982  0.3960 -0.0954  0.5873
 4105TIP3    H133730   1.554   3.548  15.953  0.6833  0.9681 -0.7414
 4105TIP3    H233731   1.403   3.555  15.947  0.7026  0.8348 -1.4757
 4106TIP3   OH233732   4.091   5.026  12.215 -0.2510  0.1470 -0.1118
 4106TIP3    H133733   4.163   5.011  12.276 -1.2757  0.2047  1.1555
 4106TIP3    H233734   4.111   5.110  12.173  0.1234  0.4396  0.6511
 4107TIP3   OH233735   4.993   0.841   5.257 -0.3263  0.0080  0.8222
 4107TIP3    H133736   5.033   0.770   5.308  0.9123  1.5735  2.1378
 4107TIP3    H233737   4.900   0.835   5.277 -0.1473 -0.7962  1.4928
 4108TIP3   OH233738   2.395   5.775  13.263 -0.0787  0.4351  0.6379
 4108TIP3    H133739   2.405   5.866  13.292  3.3376 -0.1345  1.6987
 4108TIP3    H233740   2.485   5.746  13.243 -1.0664 -2.6637  0.1304
 4109TIP3   OH233741   4.511   0.034  17.233  0.1648  0.1061  0.8977
 4109TIP3    H133742   4.544  -0.008  17.312  1.4931 -0.6483 -0.0284
 4109TIP3    H233743   4.585   0.086  17.201 -0.0326 -0.3795 -0.3848
 4110TIP3   OH233744   1.284   5.995  14.337  0.6573 -0.0954 -0.3494
 4110TIP3    H133745   1.192   5.993  14.312  0.3451 -0.7942  0.7737
 4110TIP3    H233746   1.324   5.922  14.290  0.8000  0.6061 -1.3556
 4111TIP3   OH233747   5.407   1.019  10.512  0.1840 -0.1096 -0.4177
 4111TIP3    H133748   5.473   1.033  10.444 -0.0045 -0.8368 -0.7562
 4111TIP3    H233749   5.455   0.976  10.584  0.0593 -0.7594 -0.7163
 4112TIP3   OH233750   0.985   6.026   5.754 -0.2207  0.4118 -0.1832
 4112TIP3    H133751   1.060   6.065   5.799  0.1981  0.9965 -1.3558
 4112TIP3    H233752   0.927   6.100   5.735  0.7339  0.5982 -2.7243
 4113TIP3   OH233753   5.028   1.051  11.980 -0.2802 -0.3381  0.3246
 4113TIP3    H133754   5.108   1.004  12.004  0.6810  1.4423  0.7989
 4113TIP3    H233755   4.959   1.011  12.033  1.0762  0.8262  3.1318
 4114TIP3   OH233756   1.492   5.953  14.850  0.1904 -0.0230 -0.1535
 4114TIP3    H133757   1.462   5.928  14.937 -0.4640 -0.4794 -0.5034
 4114TIP3    H233758   1.413   5.987  14.807  0.2280 -0.9553 -0.9834
 4115TIP3   OH233759   1.814   5.628  13.840 -0.5806 -0.3074 -0.1188
 4115TIP3    H133760   1.876   5.677  13.892 -1.1316 -2.3455  2.7137
 4115TIP3    H233761   1.770   5.694  13.785  1.0328  1.7649  0.9556
 4116TIP3   OH233762   4.719   0.193  12.137  0.3808  0.4298 -0.1094
 4116TIP3    H133763   4.736   0.230  12.224 -0.0138  0.3242  0.0189
 4116TIP3    H233764   4.781   0.121  12.129 -0.3953 -0.3491  0.6057
 4117TIP3   OH233765   0.749   5.416   4.507 -0.1496  0.2680  0.6686
 4117TIP3    H133766   0.828   5.399   4.559 -0.2350 -0.7617  0.4890
 4117TIP3    H233767   0.755   5.354   4.435 -0.3913  1.2052 -0.1704
 4118TIP3   OH233768   3.950   1.593  13.935  0.3314 -0.1958  0.1689
 4118TIP3    H133769   3.872   1.588  13.990  0.3797  0.2625  0.2817
 4118TIP3    H233770   3.916   1.608  13.846  0.3184  1.0156  0.3628
 4119TIP3   OH233771   6.229   4.552   2.744 -0.2335  0.0897  0.0636
 4119TIP3    H133772   6.325   4.557   2.751 -0.3504  0.3920  1.6961
 4119TIP3    H233773   6.200   4.643   2.748 -0.5944  0.0172 -0.6919
 4120TIP3   OH233774   5.114   1.475  15.486 -0.7760 -0.1571 -0.6140
 4120TIP3    H133775   5.112   1.560  15.531  0.2880 -0.0865 -0.6779
 4120TIP3    H233776   5.092   1.411  15.554 -0.4206  0.0638 -0.2906
 4121TIP3   OH233777   3.817   0.990   2.414  0.4946  0.4821  0.3468
 4121TIP3    H133778   3.861   0.937   2.480 -0.0390 -0.1358  0.2211
 4121TIP3    H233779   3.728   1.003   2.449  0.2954  0.3866 -0.1143
 4122TIP3   OH233780   3.529   3.646   4.133  0.1263  0.2974 -0.0995
 4122TIP3    H133781   3.509   3.635   4.040  0.0152 -0.2265 -0.0167
 4122TIP3    H233782   3.611   3.695   4.134  1.5644 -1.9479 -0.5409
 4123TIP3   OH233783   2.460   5.299  15.465 -0.1873 -0.2621 -0.5117
 4123TIP3    H133784   2.404   5.224  15.487 -0.2380 -0.1876 -0.3817
 4123TIP3    H233785   2.406   5.375  15.486 -0.5330 -0.1817 -1.6557
 4124TIP3   OH233786   3.056   3.713   3.564 -0.2706  0.3779  0.0488
 4124TIP3    H133787   3.090   3.789   3.518  0.8568  0.2604  0.6591
 4124TIP3    H233788   2.964   3.707   3.537 -0.4641  2.1357  0.2413
 4125TIP3   OH233789   1.001   1.168   0.594  0.5713  0.0751  0.0768
 4125TIP3    H133790   0.957   1.219   0.526  0.0373 -0.0917  0.2935
 4125TIP3    H233791   0.932   1.113   0.631  0.5252  1.1403  1.6963
 4126TIP3   OH233792   1.814   5.611   3.441 -0.0910  0.3341  0.1423
 4126TIP3    H133793   1.816   5.688   3.497  0.4151  2.0148 -2.0423
 4126TIP3    H233794   1.768   5.640   3.362 -2.2630 -2.3852  0.2598
 4127TIP3   OH233795   0.859   4.884   5.376 -0.2459 -0.0922  0.1561
 4127TIP3    H133796   0.906   4.842   5.304  1.1264  2.1534 -0.3521
 4127TIP3    H233797   0.912   4.868   5.453 -1.7803 -2.6050  0.7851
 4128TIP3   OH233798   4.158   4.338   2.935 -0.3338 -0.4823 -0.2655
 4128TIP3    H133799   4.175   4.360   2.844  0.2475 -0.9055 -0.2696
 4128TIP3    H233800   4.079   4.386   2.958 -1.5235 -1.7383 -1.5253
 4129TIP3   OH233801   5.009   2.926  14.526 -0.1488 -0.4199 -0.0461
 4129TIP3    H133802   4.926   2.928  14.479  0.4944 -0.7417 -1.2474
 4129TIP3    H233803   5.032   3.018  14.539 -0.0720 -0.3200 -0.8658
 4130TIP3   OH233804   6.122   3.311   5.289 -0.3853  0.1438  0.0551
 4130TIP3    H133805   6.177   3.283   5.361 -1.6647 -0.7879  0.7076
 4130TIP3    H233806   6.082   3.393   5.320 -2.5709 -1.3227  1.3442
 4131TIP3   OH233807   3.167   0.876   5.514 -0.0285  0.0220 -0.3940
 4131TIP3    H133808   3.178   0.970   5.506 -0.2190  0.0613 -0.2200
 4131TIP3    H233809   3.090   0.866   5.570 -1.1109 -0.2329 -1.8765
 4132TIP3   OH233810   4.723   1.350   4.192 -0.2346  0.6468  0.2352
 4132TIP3    H133811   4.750   1.349   4.284 -0.3973  0.8879  0.2858
 4132TIP3    H233812   4.784   1.409   4.150  0.0580  0.2656  0.1189
 4133TIP3   OH233813   1.618   5.044   2.597  0.1340 -0.4033  0.4594
 4133TIP3    H133814   1.564   5.036   2.676 -2.4039  2.5367 -0.7996
 4133TIP3    H233815   1.619   4.956   2.560 -0.6886 -1.3140  2.4275
 4134TIP3   OH233816   4.834   5.300  16.334 -0.0009 -0.1203 -0.4989
 4134TIP3    H133817   4.841   5.311  16.240  0.9717 -0.3882 -0.4631
 4134TIP3    H233818   4.919   5.327  16.369  0.3195 -1.7857  0.1196
 4135TIP3   OH233819   2.311   3.063   3.466  0.5420  0.2607 -0.2427
 4135TIP3    H133820   2.345   3.117   3.538  0.2337  0.1060  0.0254
 4135TIP3    H233821   2.317   3.119   3.389 -0.4456  0.9529  0.1552
 4136TIP3   OH233822   0.825   1.366   4.481  0.4169 -0.0319 -0.9254
 4136TIP3    H133823   0.819   1.284   4.530  3.1318  0.1365 -0.1736
 4136TIP3    H233824   0.894   1.351   4.417 -1.4283  0.5749 -3.2134
 4137TIP3   OH233825   1.189   5.606  17.279  0.6261  0.6796  0.1761
 4137TIP3    H133826   1.132   5.575  17.349  0.3578  0.5215 -0.1065
 4137TIP3    H233827   1.217   5.693  17.308 -0.9801  1.4235 -0.3462
 4138TIP3   OH233828   4.046   2.297  14.036  0.0866 -0.5589 -0.3643
 4138TIP3    H133829   3.983   2.224  14.037  0.3034 -0.7458 -0.2492
 4138TIP3    H233830   4.129   2.257  14.061  0.1067 -0.1737  0.2082
 4139TIP3   OH233831   1.258   5.572   3.398 -0.1448 -0.3070  0.0175
 4139TIP3    H133832   1.254   5.514   3.322 -0.6461 -1.2347  0.7316
 4139TIP3    H233833   1.212   5.524   3.467 -1.1091  1.2107  0.4567
 4140TIP3   OH233834   0.198   6.027   2.542  0.1615 -0.0727  0.4149
 4140TIP3    H133835   0.236   6.090   2.481  0.1420 -2.1314 -1.9216
 4140TIP3    H233836   0.114   6.004   2.503 -0.9195  0.2051  2.4839
 4141TIP3   OH233837   4.455   3.107   5.140 -0.6604 -0.6029  0.0766
 4141TIP3    H133838   4.528   3.150   5.096 -0.5338  1.1684  1.8363
 4141TIP3    H233839   4.494   3.033   5.185  0.0457  0.1951  0.8191
 4142TIP3   OH233840   3.856   1.331  11.524 -0.5128 -0.8518 -0.4083
 4142TIP3    H133841   3.807   1.332  11.606  1.1294 -2.9870  0.6831
 4142TIP3    H233842   3.791   1.357  11.458 -1.8845  0.9114  1.4935
 4143TIP3   OH233843   1.010   1.303   0.309  0.2976  0.4841  0.2266
 4143TIP3    H133844   1.030   1.233   0.247 -1.8803 -0.4654  0.5109
 4143TIP3    H233845   1.011   1.383   0.257 -1.4379 -0.2824 -1.0817
 4144TIP3   OH233846   2.079   1.545  11.226  0.7615 -0.2814  0.0504
 4144TIP3    H133847   2.152   1.518  11.281  0.6503  1.8611  1.3899
 4144TIP3    H233848   2.115   1.616  11.173  0.9310 -2.4357 -2.9391
 4145TIP3   OH233849   3.282   1.917   4.950  0.3397  0.3450  0.8250
 4145TIP3    H133850   3.355   1.885   5.003  1.5655  0.8042 -0.5261
 4145TIP3    H233851   3.268   1.848   4.885 -1.9619 -0.7863  2.3828
 4146TIP3   OH233852   3.780   0.245  12.611 -0.7662 -0.6583 -0.5745
 4146TIP3    H133853   3.758   0.335  12.587 -2.3064 -0.0346  2.6979
 4146TIP3    H233854   3.719   0.191  12.560 -0.8160  0.1930 -1.4583
 4147TIP3   OH233855   4.455   1.352   2.370 -0.9950 -0.6820 -0.2943
 4147TIP3    H133856   4.431   1.278   2.315  0.4880  0.3255 -2.4209
 4147TIP3    H233857   4.374   1.402   2.381 -1.1690 -0.4560 -2.3332
 4148TIP3   OH233858   4.550   1.114   0.602 -0.0966  0.4370 -0.2958
 4148TIP3    H133859   4.540   1.021   0.620 -0.4263  0.5726  0.2668
 4148TIP3    H233860   4.644   1.131   0.609 -0.1110  0.2933  0.4044
 4149TIP3   OH233861   1.479   1.436  14.674  0.2320  0.0183 -0.1193
 4149TIP3    H133862   1.484   1.461  14.766  0.0955  1.1200 -0.4041
 4149TIP3    H233863   1.514   1.511  14.626  0.0838 -0.4482 -0.9795
 4150TIP3   OH233864   2.837   6.098   6.613  0.2474 -0.6931 -0.0199
 4150TIP3    H133865   2.747   6.065   6.612  0.4172 -1.1608 -0.6371
 4150TIP3    H233866   2.891   6.019   6.621  0.7477 -0.8238 -3.4724
 4151TIP3   OH233867   5.800   5.498   6.178 -0.1838 -0.6009  0.2033
 4151TIP3    H133868   5.775   5.477   6.088 -0.3280  2.7644 -0.6785
 4151TIP3    H233869   5.722   5.479   6.230 -0.7654 -0.7747 -0.7102
 4152TIP3   OH233870   1.317   2.933  11.399 -0.4302  0.1074  0.1914
 4152TIP3    H133871   1.241   2.876  11.385 -2.1481  2.2656  0.2532
 4152TIP3    H233872   1.315   2.952  11.493  1.7094 -1.7186  0.7054
 4153TIP3   OH233873   2.714   0.062   4.840 -0.8350  0.4178  0.5241
 4153TIP3    H133874   2.685   0.141   4.887 -1.9881  0.0914  0.3886
 4153TIP3    H233875   2.728   0.092   4.750 -4.3915 -0.1135 -0.3272
 4154TIP3   OH233876   6.675   1.826   3.662 -0.3706 -0.2173 -0.2420
 4154TIP3    H133877   6.748   1.853   3.605 -0.6071 -1.2771 -1.0591
 4154TIP3    H233878   6.597   1.848   3.613 -0.6191  0.3186  0.3683
 4155TIP3   OH233879   6.728   2.339  16.831  0.1707  0.2179 -0.0103
 4155TIP3    H133880   6.797   2.274  16.837 -0.8846 -1.1798 -1.9044
 4155TIP3    H233881   6.740   2.380  16.745  0.2678  1.9433  0.7770
 4156TIP3   OH233882   6.522   3.099  16.915 -0.8184  0.3618  0.8964
 4156TIP3    H133883   6.607   3.100  16.870 -0.9601 -0.6328  0.5853
 4156TIP3    H233884   6.517   3.012  16.955 -2.2529 -0.0893 -0.1941
 4157TIP3   OH233885   1.758   1.321   4.636  0.7604 -0.5301  0.1745
 4157TIP3    H133886   1.757   1.399   4.581  2.7829 -0.9832 -0.6063
 4157TIP3    H233887   1.753   1.355   4.726 -1.3206  0.2808 -0.1926
 4158TIP3   OH233888   4.284   0.435   3.551 -0.0533  0.1921  0.3887
 4158TIP3    H133889   4.219   0.502   3.529  1.0839  0.7655 -1.4105
 4158TIP3    H233890   4.240   0.352   3.534 -0.8557  0.5159  0.8382
 4159TIP3   OH233891   1.327   0.992  14.189 -0.4513 -0.1999  0.2001
 4159TIP3    H133892   1.381   1.057  14.143 -1.2652  0.4317  0.1051
 4159TIP3    H233893   1.389   0.925  14.217  0.2064 -0.1561 -1.0407
 4160TIP3   OH233894   2.741   2.732  16.943  0.4926 -0.0472 -0.4462
 4160TIP3    H133895   2.812   2.667  16.939  0.9393  0.3156  0.9979
 4160TIP3    H233896   2.707   2.724  17.032 -2.2854 -1.2003 -1.5134
 4161TIP3   OH233897   2.754   1.616   3.858 -0.1499 -0.6207  0.7092
 4161TIP3    H133898   2.716   1.529   3.855  2.0992 -1.8890  3.7989
 4161TIP3    H233899   2.705   1.662   3.926  0.7916 -0.7114  1.4814
 4162TIP3   OH233900   4.208   1.882  14.350 -0.6249 -0.4076 -0.2419
 4162TIP3    H133901   4.162   1.821  14.292 -0.7536  1.6505 -2.4855
 4162TIP3    H233902   4.147   1.897  14.422 -1.0069 -2.0690 -0.1691
 4163TIP3   OH233903   6.592   0.733   6.320  0.4508  0.5120  0.3337
 4163TIP3    H133904   6.518   0.746   6.260  1.6801 -0.2867 -1.4297
 4163TIP3    H233905   6.572   0.790   6.395 -1.6671  0.7323 -0.3255
 4164TIP3   OH233906   5.961   2.433  17.077 -0.2938  0.8083 -0.2577
 4164TIP3    H133907   6.008   2.515  17.088  0.9680  0.0031  0.5366
 4164TIP3    H233908   5.999   2.374  17.142 -0.0612 -0.8872 -1.8427
 4165TIP3   OH233909   1.309   1.371  12.428  0.0690 -0.2590  0.4026
 4165TIP3    H133910   1.304   1.297  12.368  0.7176 -0.0785  0.1171
 4165TIP3    H233911   1.387   1.419  12.400  1.1134 -0.8489  2.1600
 4166TIP3   OH233912   2.101   6.113   2.563 -0.2617  0.3105  0.4875
 4166TIP3    H133913   2.132   6.029   2.595  0.1100  0.1850 -0.1824
 4166TIP3    H233914   2.014   6.094   2.526  0.8454 -0.3345 -1.9865
 4167TIP3   OH233915   5.639   3.102  11.867 -0.3379 -0.1252  0.0740
 4167TIP3    H133916   5.548   3.119  11.842  0.2863  1.1297 -1.4877
 4167TIP3    H233917   5.645   3.135  11.957 -1.2520  0.3900 -0.0333
 4168TIP3   OH233918   2.515   1.469   3.055  0.7368  0.4718 -0.1367
 4168TIP3    H133919   2.590   1.504   3.102  1.6888 -3.9938  2.1150
 4168TIP3    H233920   2.535   1.377   3.040 -2.7113 -0.0812 -2.9662
 4169TIP3   OH233921   3.698   4.413  12.615  0.5509 -0.1562  0.9505
 4169TIP3    H133922   3.710   4.342  12.678  0.2393  0.8354  2.1665
 4169TIP3    H233923   3.763   4.479  12.640 -1.3393  1.4271  2.0135
 4170TIP3   OH233924   6.468   6.599   1.434  0.1503  0.4824  0.1233
 4170TIP3    H133925   6.380   6.630   1.454 -0.2224  1.0879 -2.1057
 4170TIP3    H233926   6.497   6.554   1.513 -2.6220 -0.7617  0.5378
 4171TIP3   OH233927   2.002   3.002   0.680  0.4856  0.3115 -0.3267
 4171TIP3    H133928   1.997   3.003   0.775  0.8849  0.5705 -0.3067
 4171TIP3    H233929   1.973   3.089   0.653 -1.8195 -0.4549 -0.5730
 4172TIP3   OH233930   6.190   2.510  10.172 -0.4461 -0.4407 -0.0563
 4172TIP3    H133931   6.272   2.478  10.210  0.1921 -0.5250 -1.4416
 4172TIP3    H233932   6.165   2.583  10.228  0.4590 -0.5556  0.5232
 4173TIP3   OH233933   4.330   1.917  10.524  0.1529  0.2993  0.8543
 4173TIP3    H133934   4.242   1.955  10.529  0.1552  0.6697 -1.1276
 4173TIP3    H233935   4.389   1.989  10.543  0.0707  0.4944  0.3756
 4174TIP3   OH233936   6.702   6.318  11.546  0.0118  0.4673  0.5230
 4174TIP3    H133937   6.627   6.266  11.573 -0.7983  1.0178 -0.6039
 4174TIP3    H233938   6.664   6.398  11.509  1.0173 -0.1197 -1.9841
 4175TIP3   OH233939   2.768   4.914   4.161  0.0745 -0.4654  0.0163
 4175TIP3    H133940   2.782   4.833   4.112 -4.0903 -2.4194  1.6321
 4175TIP3    H233941   2.750   4.885   4.250 -1.6999  2.2298  0.6423
 4176TIP3   OH233942   4.487   2.292  15.678  0.2702 -0.0380  0.6673
 4176TIP3    H133943   4.455   2.204  15.657  0.5934  0.5005 -2.4871
 4176TIP3    H233944   4.413   2.350  15.659  1.7211  0.8468 -3.0525
 4177TIP3   OH233945   5.067   2.817  16.671 -0.2332 -0.0164  0.1537
 4177TIP3    H133946   5.130   2.794  16.740 -0.4369 -2.5016 -0.3993
 4177TIP3    H233947   4.983   2.826  16.716 -0.2733 -1.1340  0.3278
 4178TIP3   OH233948   3.580   6.106  14.339 -0.2278  0.0223  0.1105
 4178TIP3    H133949   3.523   6.093  14.415  1.1272 -3.8594  0.6960
 4178TIP3    H233950   3.651   6.162  14.371 -0.5834 -0.1286  1.2031
 4179TIP3   OH233951   1.454   4.701   4.098 -0.1630  0.4173 -0.0662
 4179TIP3    H133952   1.465   4.741   4.012  0.5273 -1.2761 -0.8053
 4179TIP3    H233953   1.540   4.669   4.121 -0.1281  1.6478  1.7256
 4180TIP3   OH233954   4.629   5.957  10.679  0.4622  0.1862  0.1911
 4180TIP3    H133955   4.589   6.032  10.724  2.3989 -0.0060  2.3969
 4180TIP3    H233956   4.558   5.923  10.624 -1.0256  2.5086  0.4906
 4181TIP3   OH233957   2.491   5.914   3.677 -0.1173 -0.2640 -0.0943
 4181TIP3    H133958   2.504   6.008   3.678  0.5019 -0.3464 -0.1931
 4181TIP3    H233959   2.400   5.903   3.648 -0.1237  0.2908 -0.2965
 4182TIP3   OH233960   0.152   1.409  10.997  0.1726 -0.2539  0.8179
 4182TIP3    H133961   0.167   1.459  10.917 -1.3850 -0.4040  0.4119
 4182TIP3    H233962   0.137   1.475  11.065  0.8310 -0.1394  0.8575
 4183TIP3   OH233963   0.548   1.420  14.399  0.1969 -0.7758 -0.1756
 4183TIP3    H133964   0.610   1.473  14.448 -1.0292 -1.1116  1.8548
 4183TIP3    H233965   0.601   1.350  14.360  1.3777  0.1555 -0.2934
 4184TIP3   OH233966   3.589   6.589   5.462 -0.0498  0.0119  0.0789
 4184TIP3    H133967   3.619   6.573   5.551 -0.5933 -1.4044  0.0339
 4184TIP3    H233968   3.660   6.558   5.406 -0.6003 -1.1882  0.0091
 4185TIP3   OH233969   0.182   4.907   5.959 -0.4248 -0.2366  0.0199
 4185TIP3    H133970   0.183   4.921   5.865 -0.6719 -1.0119 -0.1089
 4185TIP3    H233971   0.230   4.825   5.972  0.2645  0.2584  0.6427
 4186TIP3   OH233972   4.345   2.987  11.949 -0.4622  0.5146  0.3778
 4186TIP3    H133973   4.355   3.079  11.974  3.2553 -0.0538  1.6127
 4186TIP3    H233974   4.327   2.942  12.032 -2.3800  0.0728 -0.2352
 4187TIP3   OH233975   2.945   3.115  15.202  0.2209  0.1900  0.6036
 4187TIP3    H133976   2.899   3.076  15.276 -0.9758 -0.1504 -0.2802
 4187TIP3    H233977   2.938   3.049  15.132  0.3749  0.9346 -0.1314
 4188TIP3   OH233978   3.241   3.079  15.287 -0.0358 -0.1198 -0.5562
 4188TIP3    H133979   3.163   3.033  15.255 -1.3761  1.6708 -0.0279
 4188TIP3    H233980   3.272   3.027  15.360 -1.5629 -0.1613  0.0868
 4189TIP3   OH233981   1.218   4.556   2.616  0.2028 -0.1853  0.0247
 4189TIP3    H133982   1.205   4.558   2.711  1.3111  0.9580  0.1857
 4189TIP3    H233983   1.289   4.493   2.603 -0.7277 -1.2203 -0.1804
 4190TIP3   OH233984   3.504   6.279   4.457  0.0298  0.1049 -0.2575
 4190TIP3    H133985   3.432   6.319   4.506 -0.0861 -1.5018  0.9768
 4190TIP3    H233986   3.580   6.333   4.479 -0.1542 -0.1657  1.1827
 4191TIP3   OH233987   0.998   1.374   4.261  0.1645 -0.3777  0.0529
 4191TIP3    H133988   1.013   1.306   4.195  0.4730  0.8071 -1.1226
 4191TIP3    H233989   1.084   1.414   4.273 -0.1228  0.1467  0.3621
 4192TIP3   OH233990   3.618   3.455   5.459  0.3521 -0.0788 -0.2445
 4192TIP3    H133991   3.524   3.460   5.474  0.4813  0.7216  0.3642
 4192TIP3    H233992   3.654   3.425   5.542  0.6897  0.2361 -0.2737
 4193TIP3   OH233993   2.944   5.803   3.960 -0.1715 -0.1903 -0.4530
 4193TIP3    H133994   3.016   5.804   3.896  1.2520 -1.1579  1.0719
 4193TIP3    H233995   2.865   5.805   3.906  0.9619  0.8970 -2.2003
 4194TIP3   OH233996   2.878   3.388   5.739 -0.3408  0.2418  0.4311
 4194TIP3    H133997   2.876   3.433   5.823 -2.1793  0.1724  0.4547
 4194TIP3    H233998   2.925   3.307   5.757  0.3899  0.7950  1.0804
 4195TIP3   OH233999   2.512   6.181  15.350 -0.1337 -0.6421 -0.8934
 4195TIP3    H134000   2.460   6.255  15.319  0.8003 -0.2930 -1.6586
 4195TIP3    H234001   2.592   6.184  15.297  0.6018 -1.2630  0.1569
 4196TIP3   OH234002   1.835   0.153  13.846 -0.0795 -0.3494  0.7508
 4196TIP3    H134003   1.762   0.132  13.904  0.0558 -0.3618  0.9165
 4196TIP3    H234004   1.808   0.120  13.760 -0.2866 -0.3139  0.8020
 4197TIP3   OH234005   6.640   4.861   4.994  0.1269  0.0296 -0.8247
 4197TIP3    H134006   6.712   4.801   4.977 -0.3811 -1.4492  1.7414
 4197TIP3    H234007   6.562   4.814   4.964 -0.2748 -0.7114  1.2096
 4198TIP3   OH234008   5.465   5.587  16.657  0.0007 -0.2402 -0.3586
 4198TIP3    H134009   5.512   5.670  16.666  0.2101 -0.1130 -2.1827
 4198TIP3    H234010   5.373   5.612  16.644 -0.0033 -0.3102 -0.4704
 4199TIP3   OH234011   0.923   2.154   0.797 -0.0769  0.0113  0.3462
 4199TIP3    H134012   0.941   2.145   0.890  2.2452 -0.9587 -0.1201
 4199TIP3    H234013   1.001   2.119   0.754 -1.6031 -0.7780 -1.9882
 4200TIP3   OH234014   1.034   3.825   2.041  0.0343  0.1562  0.4471
 4200TIP3    H134015   0.938   3.824   2.048  0.0889 -1.0392  1.5056
 4200TIP3    H234016   1.063   3.778   2.119  1.4389 -0.5978 -0.4974
 4201TIP3   OH234017   1.759   1.370  14.722 -0.4824  0.0252 -0.5128
 4201TIP3    H134018   1.781   1.282  14.751  0.2017  0.5056  0.4653
 4201TIP3    H234019   1.689   1.357  14.657 -0.4151 -1.2206 -0.3560
 4202TIP3   OH234020   2.301   5.139  15.164  0.0697  0.4289 -0.8525
 4202TIP3    H134021   2.243   5.200  15.118 -0.0698  0.6792 -0.3487
 4202TIP3    H234022   2.281   5.151  15.257  1.7173  1.3587 -0.5642
 4203TIP3   OH234023   1.215   2.426   0.952 -0.1962 -0.3272  0.2277
 4203TIP3    H134024   1.283   2.421   1.019 -0.6512 -0.2475  0.6958
 4203TIP3    H234025   1.249   2.373   0.879  0.2104 -0.5715  0.5932
 4204TIP3   OH234026   2.531   4.131  12.431  0.1540  0.5547  0.1232
 4204TIP3    H134027   2.582   4.054  12.455  0.7401  0.3808 -1.5630
 4204TIP3    H234028   2.597   4.195  12.402 -0.4679  0.8848 -0.6068
 4205TIP3   OH234029   0.461   2.485  12.661 -0.1104  0.1959  0.1783
 4205TIP3    H134030   0.450   2.465  12.568  3.0098 -1.5959  0.0616
 4205TIP3    H234031   0.441   2.402  12.705  1.9174 -0.0381  0.7388
 4206TIP3   OH234032   5.715   2.427  11.545 -0.2365  0.2294  0.3892
 4206TIP3    H134033   5.730   2.463  11.632  1.9664 -0.2098  0.2600
 4206TIP3    H234034   5.739   2.499  11.485  2.5787 -0.7754  0.1571
 4207TIP3   OH234035   1.447   5.215   0.433  0.4918 -0.3962 -0.2538
 4207TIP3    H134036   1.497   5.162   0.495 -0.1260 -1.4227 -0.6097
 4207TIP3    H234037   1.483   5.193   0.347  0.4354 -0.0011 -0.3816
 4208TIP3   OH234038   2.470   2.256   2.879  0.1708  0.2357  0.3442
 4208TIP3    H134039   2.556   2.258   2.837 -0.8684  2.2498 -1.9366
 4208TIP3    H234040   2.445   2.164   2.877  1.2201 -0.0688 -1.3004
 4209TIP3   OH234041   1.821   1.987  14.972  0.3453  0.9127 -0.1034
 4209TIP3    H134042   1.760   1.929  14.928  0.7665 -0.0552  0.5615
 4209TIP3    H234043   1.837   1.946  15.057  0.4389  2.1399  0.4974
 4210TIP3   OH234044   3.313   2.180   4.901 -0.5313 -0.4240  0.5234
 4210TIP3    H134045   3.270   2.198   4.985 -0.4859 -1.2974  0.7442
 4210TIP3    H234046   3.313   2.084   4.894 -0.2449 -0.3698 -0.3253
 4211TIP3   OH234047   4.605   5.489  11.904 -0.0108  0.3076 -0.5084
 4211TIP3    H134048   4.626   5.420  11.841 -0.1416 -0.1926 -0.0103
 4211TIP3    H234049   4.534   5.453  11.956 -0.1670  0.8745 -0.3221
 4212TIP3   OH234050   3.924   5.995  15.847  0.5558  0.0838  0.2961
 4212TIP3    H134051   3.828   5.994  15.854  0.4675 -0.1898 -0.7642
 4212TIP3    H234052   3.954   5.969  15.934 -0.3257  0.3312  0.6948
 4213TIP3   OH234053   6.706   4.245  12.339 -0.1283 -0.1625 -0.3369
 4213TIP3    H134054   6.703   4.281  12.427 -0.7137 -2.1847  0.5300
 4213TIP3    H234055   6.800   4.231  12.322  0.1505  2.0368 -0.8718
 4214TIP3   OH234056   6.286   1.580  15.493 -0.3380 -0.2383 -0.2930
 4214TIP3    H134057   6.331   1.579  15.409  1.2077 -2.3227  0.4713
 4214TIP3    H234058   6.357   1.577  15.558 -1.5184 -0.8604  1.0217
 4215TIP3   OH234059   6.450   5.462   0.580 -0.8877  0.5894 -0.2679
 4215TIP3    H134060   6.544   5.453   0.596 -0.2890  2.2874 -2.4232
 4215TIP3    H234061   6.427   5.386   0.527 -0.8294  0.0089  0.5162
 4216TIP3   OH234062   6.403   3.821  12.789  0.0510  0.7436  0.4744
 4216TIP3    H134063   6.411   3.901  12.736  1.0379  0.4831  0.2110
 4216TIP3    H234064   6.476   3.767  12.762 -1.2933 -0.8045 -0.2384
 4217TIP3   OH234065   4.715   4.536  12.374  0.3729 -0.1227  0.3454
 4217TIP3    H134066   4.771   4.604  12.411  0.3281 -1.2611  2.7359
 4217TIP3    H234067   4.669   4.500  12.450 -0.1103 -2.3464 -0.9187
 4218TIP3   OH234068   3.715   0.647   6.255  0.5558 -0.1460 -0.3911
 4218TIP3    H134069   3.639   0.706   6.246  1.7176  1.4513 -0.1950
 4218TIP3    H234070   3.687   0.582   6.319  0.0179  1.6051  1.2402
 4219TIP3   OH234071   2.806   3.540  11.160 -0.5671 -0.1168 -0.1020
 4219TIP3    H134072   2.900   3.539  11.176 -0.6393 -0.1007  0.3276
 4219TIP3    H234073   2.796   3.495  11.076  0.0018  1.6238 -1.1707
 4220TIP3   OH234074   6.319   2.878   0.416  0.6304  0.2001 -0.5059
 4220TIP3    H134075   6.292   2.804   0.362  0.5611 -1.7621  1.9941
 4220TIP3    H234076   6.248   2.887   0.480  2.0812  0.3161  1.1520
 4221TIP3   OH234077   2.870   3.780  15.700 -0.4130  1.0480 -0.3693
 4221TIP3    H134078   2.786   3.740  15.726  0.2581 -0.1938 -0.0229
 4221TIP3    H234079   2.931   3.706  15.694  0.1028  1.5777 -3.0517
 4222TIP3   OH234080   1.630   4.420  11.281 -0.4168 -0.0009 -0.3826
 4222TIP3    H134081   1.598   4.429  11.191  0.6691  0.6587 -0.7273
 4222TIP3    H234082   1.640   4.325  11.293 -0.8782 -0.1147 -0.8432
 4223TIP3   OH234083   3.068   1.204   4.436  0.5747  0.1914  0.0850
 4223TIP3    H134084   3.013   1.200   4.514 -0.5375  1.3169 -0.5949
 4223TIP3    H234085   3.094   1.114   4.420 -2.5522 -0.7473 -0.5322
 4224TIP3   OH234086   6.228   3.512   2.745  0.2216 -0.0099  0.3216
 4224TIP3    H134087   6.143   3.488   2.782 -0.7583  1.5482 -0.7770
 4224TIP3    H234088   6.208   3.535   2.654  1.7983  0.5910  0.1005
 4225TIP3   OH234089   4.854   3.871   3.818  0.7193 -0.2791  0.1296
 4225TIP3    H134090   4.903   3.834   3.891  0.9543  0.1071  0.1712
 4225TIP3    H234091   4.773   3.904   3.858  1.4111  1.1068  0.4539
 4226TIP3   OH234092   5.243   4.158   2.355 -0.1547  0.5262 -0.6812
 4226TIP3    H134093   5.229   4.190   2.266  0.3160  0.7082 -0.6923
 4226TIP3    H234094   5.319   4.208   2.387 -0.2727  0.4061 -0.2075
 4227TIP3   OH234095   3.605   3.801   3.227 -0.3087  0.1485  0.0187
 4227TIP3    H134096   3.565   3.866   3.284 -0.4892 -0.0214  0.0874
 4227TIP3    H234097   3.569   3.819   3.140 -0.2516  0.2278  0.0113
 4228TIP3   OH234098   3.101   0.535  15.433 -0.1240 -0.3554 -0.4790
 4228TIP3    H134099   3.009   0.531  15.457  0.3487 -1.1143  1.3894
 4228TIP3    H234100   3.114   0.625  15.404 -1.3214 -0.0650 -0.1703
 4229TIP3   OH234101   5.660   4.211   2.753  0.0122 -0.2864  0.1409
 4229TIP3    H134102   5.739   4.160   2.735 -0.0538 -0.4424  0.2884
 4229TIP3    H234103   5.689   4.302   2.752  0.1383 -0.3276 -0.0915
 4230TIP3   OH234104   6.567   2.486  14.066 -0.7307  1.1020 -0.0819
 4230TIP3    H134105   6.584   2.559  14.006  1.7975  0.1649 -0.6286
 4230TIP3    H234106   6.529   2.418  14.010 -0.8652  1.1500 -0.0505
 4231TIP3   OH234107   5.780   2.087  16.604 -0.2111  0.4109 -0.2945
 4231TIP3    H134108   5.804   2.052  16.689  0.2017  1.2084 -0.0738
 4231TIP3    H234109   5.847   2.153  16.585  0.0765 -0.1971 -1.5234
 4232TIP3   OH234110   1.338   1.081  13.219 -0.2946 -0.1895 -0.5249
 4232TIP3    H134111   1.293   1.160  13.190 -1.0285  0.0752  1.1652
 4232TIP3    H234112   1.431   1.103  13.218 -0.5471  1.1663  1.0483
 4233TIP3   OH234113   6.705   5.923  11.750  0.0850  0.2285 -0.3136
 4233TIP3    H134114   6.768   5.944  11.819  0.7064  2.8357 -1.5538
 4233TIP3    H234115   6.620   5.948  11.788 -0.2169 -2.3467  0.9766
 4234TIP3   OH234116   5.964   3.750  12.941 -0.2599  0.2368  0.3034
 4234TIP3    H134117   5.915   3.710  13.012  0.9284 -1.6542  0.1675
 4234TIP3    H234118   5.928   3.710  12.862  1.5645 -1.4232  0.2208
 4235TIP3   OH234119   3.175   5.757  16.749  0.8675  0.2485 -0.4734
 4235TIP3    H134120   3.242   5.800  16.801  0.1550  0.2320  0.4798
 4235TIP3    H234121   3.182   5.664  16.772  1.5909 -0.0120 -1.6159
 4236TIP3   OH234122   0.923   0.975   6.163  0.0613 -0.1994  0.0005
 4236TIP3    H134123   0.950   1.020   6.083  0.0732 -1.3851 -0.6912
 4236TIP3    H234124   1.002   0.973   6.217  0.3900 -0.4567 -0.4786
 4237TIP3   OH234125   6.648   6.259  16.118 -0.1378 -0.0776 -0.2726
 4237TIP3    H134126   6.694   6.342  16.104 -0.0090 -0.3113 -1.2970
 4237TIP3    H234127   6.556   6.284  16.128  0.0801  0.3136  0.9382
 4238TIP3   OH234128   2.735   5.953   0.111  0.3016 -0.3837 -0.0805
 4238TIP3    H134129   2.760   5.923   0.024 -0.5302 -3.0497  0.5308
 4238TIP3    H234130   2.644   5.980   0.102  0.0343 -1.2124  0.0611
 4239TIP3   OH234131   6.404   4.451  15.323 -0.1447 -0.3274 -0.4326
 4239TIP3    H134132   6.426   4.434  15.415  0.1964 -1.0831 -0.6495
 4239TIP3    H234133   6.365   4.370  15.292 -1.3513  0.3156 -0.6368
 4240TIP3   OH234134   0.486   5.458  14.477  0.1859 -0.5171 -0.0944
 4240TIP3    H134135   0.393   5.435  14.476  0.1574 -0.3915 -0.5501
 4240TIP3    H234136   0.530   5.380  14.442  0.3076 -0.8103  0.7058
 4241TIP3   OH234137   2.591   5.465   5.130  0.3103 -0.1460 -0.7863
 4241TIP3    H134138   2.661   5.423   5.180 -0.8902 -0.5801  0.5810
 4241TIP3    H234139   2.564   5.398   5.067 -1.0674 -1.2138  0.8666
 4242TIP3   OH234140   3.466   2.534  16.903  0.2862  0.0814 -0.5797
 4242TIP3    H134141   3.507   2.484  16.832 -1.8718 -1.9434 -0.5255
 4242TIP3    H234142   3.473   2.477  16.979  0.2809  1.1118  0.2082
 4243TIP3   OH234143   6.377   4.819   2.734 -0.6863  0.2543 -0.4715
 4243TIP3    H134144   6.324   4.837   2.811 -2.1508 -1.7272 -0.9303
 4243TIP3    H234145   6.463   4.794   2.770 -1.3990 -0.8342  0.5686
 4244TIP3   OH234146   0.380   4.728   3.162 -0.1845  0.0547 -0.1745
 4244TIP3    H134147   0.353   4.714   3.071 -1.2598 -0.8458  0.2675
 4244TIP3    H234148   0.369   4.643   3.204  0.9619  0.2865  0.6525
 4245TIP3   OH234149   6.258   3.018   1.722  0.1755  0.0137 -0.4558
 4245TIP3    H134150   6.214   2.954   1.666 -0.1470  0.5726 -0.8668
 4245TIP3    H234151   6.209   3.099   1.707  0.5561  0.3459  0.0722
 4246TIP3   OH234152   2.877   1.463  16.472  0.1591 -0.1074 -0.3977
 4246TIP3    H134153   2.889   1.370  16.487  0.4859  0.1358  0.9573
 4246TIP3    H234154   2.804   1.468  16.410 -0.4493 -1.2366  0.2048
 4247TIP3   OH234155   0.169   0.488   0.900  0.3221  0.2157 -0.3848
 4247TIP3    H134156   0.121   0.466   0.820 -0.3151 -1.6985  0.4619
 4247TIP3    H234157   0.253   0.442   0.890  1.3989  2.1986 -1.1162
 4248TIP3   OH234158   5.957   5.837   4.501  0.1151  0.0224 -0.2657
 4248TIP3    H134159   5.925   5.755   4.465  0.1845 -0.5570  0.9537
 4248TIP3    H234160   5.957   5.897   4.427  0.4443 -1.1744 -1.2659
 4249TIP3   OH234161   6.492   3.383  14.181 -0.0171  0.3940  0.5281
 4249TIP3    H134162   6.490   3.459  14.123 -0.2730 -1.1507 -1.6168
 4249TIP3    H234163   6.584   3.375  14.206  0.4600  0.0940 -1.1627
 4250TIP3   OH234164   2.023   5.342  15.173 -0.6884  0.0270  0.0618
 4250TIP3    H134165   1.975   5.406  15.224  0.7360  0.4673  0.8935
 4250TIP3    H234166   1.955   5.284  15.137 -1.8256  0.6969  1.0729
 4251TIP3   OH234167   1.988   1.456  13.948 -0.5336  0.7685  0.5792
 4251TIP3    H134168   1.973   1.522  14.016 -2.6688 -0.0708  0.9935
 4251TIP3    H234169   1.915   1.468  13.887 -0.7749 -0.9888  0.4903
 4252TIP3   OH234170   1.325   2.450  15.685  0.0095  0.1456 -0.2331
 4252TIP3    H134171   1.391   2.397  15.640  0.2770  1.0466 -0.9255
 4252TIP3    H234172   1.261   2.470  15.617 -0.5860 -0.0795  0.2534
 4253TIP3   OH234173   6.683   6.717  11.207 -0.2471  0.2147 -0.1660
 4253TIP3    H134174   6.771   6.739  11.178  0.0059 -0.2896  0.1953
 4253TIP3    H234175   6.659   6.640  11.155  0.5434 -1.2224  1.4872
 4254TIP3   OH234176   3.878   2.375   1.902 -0.2176  0.1202 -0.0278
 4254TIP3    H134177   3.898   2.460   1.861 -0.5342  0.1910 -0.0373
 4254TIP3    H234178   3.789   2.355   1.873 -0.7257  0.5198  1.2046
 4255TIP3   OH234179   5.462   3.779   5.873 -0.1680  0.3435 -0.0267
 4255TIP3    H134180   5.533   3.730   5.915  0.8611  1.0379 -0.8988
 4255TIP3    H234181   5.409   3.811   5.945 -1.0672 -2.2691  0.5768
 4256TIP3   OH234182   2.139   4.382   6.437  0.4055  0.8715 -0.6925
 4256TIP3    H134183   2.149   4.336   6.521  2.4095  1.7299 -0.3863
 4256TIP3    H234184   2.101   4.466   6.460 -1.5031  0.1342 -1.0162
 4257TIP3   OH234185   1.887   6.692  12.117 -0.3593  0.5112  0.3455
 4257TIP3    H134186   1.822   6.665  12.052  1.5593 -0.2398 -1.3582
 4257TIP3    H234187   1.945   6.752  12.070  0.7453  0.4219  1.5299
 4258TIP3   OH234188   0.620   0.179  14.942 -0.3301 -0.7717  0.5797
 4258TIP3    H134189   0.532   0.206  14.915  0.9805  1.6568 -1.6632
 4258TIP3    H234190   0.649   0.120  14.873  0.5646  0.1674  0.1259
 4259TIP3   OH234191   4.604   2.889   4.286 -0.5660 -0.2480  0.2579
 4259TIP3    H134192   4.606   2.892   4.190 -0.0188 -0.0574  0.2754
 4259TIP3    H234193   4.567   2.974   4.311  0.4238  0.2020  0.2469
 4260TIP3   OH234194   1.755   2.192   6.002  0.9304 -0.9817 -0.6312
 4260TIP3    H134195   1.704   2.115   6.027  1.4518 -1.2961 -0.5192
 4260TIP3    H234196   1.820   2.202   6.072  1.2626 -0.8108 -0.9569
 4261TIP3   OH234197   4.389   4.463   0.301  0.1391  0.2221 -0.2138
 4261TIP3    H134198   4.447   4.390   0.278 -0.1307 -0.1399  0.2490
 4261TIP3    H234199   4.323   4.463   0.231  1.5382  1.5989 -1.5979
 4262TIP3   OH234200   2.907   2.392  12.705  0.0738  0.2212 -0.8086
 4262TIP3    H134201   2.891   2.299  12.686 -1.5161  0.2403  0.2256
 4262TIP3    H234202   2.974   2.392  12.773 -1.3568 -0.2996  0.6570
 4263TIP3   OH234203   5.634   1.518  14.171 -0.2161  0.1917  0.6993
 4263TIP3    H134204   5.640   1.548  14.262 -1.1467 -1.5766  1.3807
 4263TIP3    H234205   5.710   1.558  14.128  0.4202  0.8138  2.3164
 4264TIP3   OH234206   3.241   1.987   1.593 -0.3451  0.2850 -0.0429
 4264TIP3    H134207   3.240   2.066   1.540 -0.9369  0.4587  0.2143
 4264TIP3    H234208   3.180   1.928   1.550 -1.6324  0.8153  0.9978
 4265TIP3   OH234209   1.608   3.320   6.057  0.3457  0.7518  0.4788
 4265TIP3    H134210   1.625   3.413   6.074  0.0916  0.5769  1.7758
 4265TIP3    H234211   1.682   3.275   6.097  1.1457  0.4394 -1.2717
 4266TIP3   OH234212   2.980   2.160  16.499 -0.4215 -0.5269  0.2296
 4266TIP3    H134213   3.004   2.087  16.555 -0.9785 -0.1364  0.9898
 4266TIP3    H234214   2.887   2.148  16.482 -0.0222 -1.3415 -1.6808
 4267TIP3   OH234215   6.746   4.782   1.831 -0.1800  0.3687  0.1203
 4267TIP3    H134216   6.767   4.805   1.922  0.3858 -0.8322  0.3202
 4267TIP3    H234217   6.825   4.737   1.799 -0.4763  0.5371 -0.8781
 4268TIP3   OH234218   1.574   1.652  14.529  0.2022 -0.1975  0.1810
 4268TIP3    H134219   1.511   1.650  14.457 -0.2655  1.3761  0.5002
 4268TIP3    H234220   1.659   1.663  14.486 -0.0015  0.0419 -0.1665
 4269TIP3   OH234221   5.374   0.082   3.316  0.5705  0.1441 -0.2398
 4269TIP3    H134222   5.408   0.093   3.228  0.5313  0.5142 -0.2093
 4269TIP3    H234223   5.283   0.111   3.310  0.7381  0.7458  0.0570
 4270TIP3   OH234224   0.287   1.732   0.405  0.0640  0.2737  0.2418
 4270TIP3    H134225   0.329   1.646   0.396  0.5482  0.5438 -0.1881
 4270TIP3    H234226   0.320   1.766   0.487  0.4268  0.3394  0.0719
 4271TIP3   OH234227   4.473   3.453  12.237  0.3629 -0.2480  0.5710
 4271TIP3    H134228   4.473   3.361  12.211  0.8662  0.2190 -1.2412
 4271TIP3    H234229   4.550   3.462  12.293 -0.6738 -1.2696  2.2529
 4272TIP3   OH234230   6.409   3.893  11.151  0.6349 -0.5851  0.8844
 4272TIP3    H134231   6.372   3.930  11.231 -0.1943  1.1354 -0.2403
 4272TIP3    H234232   6.405   3.964  11.087  0.2539 -2.1952 -0.9968
 4273TIP3   OH234233   6.429   6.195  12.207 -0.1749  0.0190  0.6514
 4273TIP3    H134234   6.487   6.231  12.275  1.1535  1.1536 -1.0127
 4273TIP3    H234235   6.390   6.272  12.166 -2.4626 -0.7019  1.3053
 4274TIP3   OH234236   4.881   1.191   1.990  0.4257  0.0850 -0.5137
 4274TIP3    H134237   4.909   1.182   2.081 -1.1717 -0.9731 -0.0768
 4274TIP3    H234238   4.926   1.121   1.944 -0.2423 -0.6149 -0.1305
 4275TIP3   OH234239   6.355   0.389   4.759  0.1619  0.1170 -0.3460
 4275TIP3    H134240   6.298   0.427   4.692  0.4716  2.1214  0.4726
 4275TIP3    H234241   6.370   0.460   4.821  0.4511 -1.4809  1.5064
 4276TIP3   OH234242   5.877   1.110   6.643  0.2866  0.3344  0.7465
 4276TIP3    H134243   5.959   1.137   6.603 -0.7935  2.7791 -0.0464
 4276TIP3    H234244   5.873   1.016   6.628  1.2960  0.6789 -2.4713
 4277TIP3   OH234245   6.191   2.273   6.393 -0.3856 -0.2689 -0.0598
 4277TIP3    H134246   6.198   2.242   6.483 -3.1041  1.0562  0.7109
 4277TIP3    H234247   6.274   2.316   6.376  1.1225 -2.5732  0.9044
 4278TIP3   OH234248   2.048   5.750   3.747 -0.2435 -0.0305  0.2701
 4278TIP3    H134249   1.971   5.759   3.692  0.5348 -2.5375 -1.3757
 4278TIP3    H234250   2.039   5.665   3.789  1.9185 -0.7124 -0.5193
 4279TIP3   OH234251   1.020   6.104   4.644 -0.1952  0.7493  0.2109
 4279TIP3    H134252   0.972   6.162   4.585 -1.2807  0.3511  0.6557
 4279TIP3    H234253   1.066   6.162   4.704  2.0024  1.1859 -1.7976
 4280TIP3   OH234254   2.853   2.977  16.775  0.3301  0.1387  0.6684
 4280TIP3    H134255   2.887   2.946  16.691 -1.6903  1.7251 -0.8353
 4280TIP3    H234256   2.841   2.897  16.827  1.5202 -0.8768 -0.5545
 4281TIP3   OH234257   5.705   1.610  11.921 -0.0112 -0.2513  0.6287
 4281TIP3    H134258   5.787   1.562  11.914 -0.6619 -1.1528 -2.2763
 4281TIP3    H234259   5.729   1.701  11.902  0.2489 -0.6962 -1.4733
 4282TIP3   OH234260   3.245   6.162  16.013 -0.1948 -0.1207 -0.1183
 4282TIP3    H134261   3.339   6.158  15.996  0.2292  2.2631  1.1594
 4282TIP3    H234262   3.238   6.181  16.107 -1.8873  1.1711 -0.4561
 4283TIP3   OH234263   6.541   0.904   4.876 -0.1708 -0.0444  0.1122
 4283TIP3    H134264   6.566   0.997   4.875 -0.3754  0.0255 -1.5890
 4283TIP3    H234265   6.467   0.900   4.936 -1.1559  1.1996 -0.9529
 4284TIP3   OH234266   2.512   4.412  13.730  0.2953 -0.0777 -0.3638
 4284TIP3    H134267   2.576   4.364  13.784 -1.1289 -2.1915 -0.4292
 4284TIP3    H234268   2.448   4.445  13.794  0.6705  0.8084 -0.4321
 4285TIP3   OH234269   3.773   5.215  16.100  0.2122  0.3882 -0.1923
 4285TIP3    H134270   3.861   5.248  16.116  0.4110 -0.7841  1.3406
 4285TIP3    H234271   3.716   5.275  16.148  0.2354  0.7377 -0.6006
 4286TIP3   OH234272   5.036   1.742  12.431  0.1363  0.0857 -0.4225
 4286TIP3    H134273   5.035   1.764  12.337 -2.6937 -0.9214 -0.7145
 4286TIP3    H234274   5.065   1.650  12.433 -1.2761 -0.3898 -0.5119
 4287TIP3   OH234275   1.641   5.694   1.726 -0.0078 -0.5986  0.1057
 4287TIP3    H134276   1.630   5.604   1.696  1.6454 -0.8747  0.1903
 4287TIP3    H234277   1.578   5.703   1.797 -2.0642 -0.7964 -1.6173
 4288TIP3   OH234278   1.473   4.069  14.891  0.0015 -0.0906 -0.4705
 4288TIP3    H134279   1.520   3.994  14.927  0.1343 -0.4137 -1.2990
 4288TIP3    H234280   1.491   4.066  14.797  1.4125  1.9459 -0.3382
 4289TIP3   OH234281   0.594   2.119  16.084  0.0218 -0.9883 -0.4228
 4289TIP3    H134282   0.661   2.168  16.132 -0.7705  0.2253 -0.5139
 4289TIP3    H234283   0.615   2.134  15.992 -1.3572  0.9178 -0.4981
 4290TIP3   OH234284   2.275   3.875  12.420 -0.0669 -0.0512  0.2940
 4290TIP3    H134285   2.272   3.940  12.350 -1.6442 -1.9687 -1.5495
 4290TIP3    H234286   2.366   3.878  12.451  0.2701  1.9745 -0.7002
 4291TIP3   OH234287   3.556   6.107  11.384 -0.2175 -0.1574  0.0303
 4291TIP3    H134288   3.584   6.019  11.357  0.8861 -0.0752  0.8446
 4291TIP3    H234289   3.631   6.163  11.367 -1.1952  0.8203 -1.2692
 4292TIP3   OH234290   6.211   2.932   1.982 -0.6330  0.9312 -0.0039
 4292TIP3    H134291   6.256   2.962   1.904 -0.6401  0.4061 -0.2109
 4292TIP3    H234292   6.244   2.844   1.997 -1.9193  0.3440 -0.4309
 4293TIP3   OH234293   4.436   6.660  15.165 -0.3662  0.2078  0.2099
 4293TIP3    H134294   4.345   6.648  15.191  0.1163  0.2099  2.0225
 4293TIP3    H234295   4.456   6.751  15.186  0.0864  0.1686 -0.0419
 4294TIP3   OH234296   0.109   2.871   6.071  0.4761  0.8776 -0.3715
 4294TIP3    H134297   0.084   2.813   6.000 -1.7669  1.6685 -0.2955
 4294TIP3    H234298   0.084   2.959   6.041 -0.4707  1.2375  1.3077
 4295TIP3   OH234299   6.237   2.121   1.531  0.2204  0.1287  0.0204
 4295TIP3    H134300   6.207   2.030   1.536  2.3308 -0.5654  1.1383
 4295TIP3    H234301   6.180   2.169   1.591 -0.1758 -0.6682  0.2906
 4296TIP3   OH234302   2.680   3.492   4.605 -0.3653  0.3100 -0.1105
 4296TIP3    H134303   2.730   3.488   4.686 -0.0234 -2.2092 -0.3856
 4296TIP3    H234304   2.733   3.445   4.541 -1.1046  1.3573 -1.5522
 4297TIP3   OH234305   3.420   1.789  10.580 -0.2224  0.5939 -0.2716
 4297TIP3    H134306   3.503   1.742  10.584 -0.2671  0.4734 -0.6492
 4297TIP3    H234307   3.374   1.764  10.660  0.1417  0.7355 -0.0161
 4298TIP3   OH234308   2.975   5.574  14.602 -0.3284 -0.3199 -0.1263
 4298TIP3    H134309   2.990   5.484  14.629 -0.5573 -0.2694  0.1804
 4298TIP3    H234310   2.882   5.578  14.579  0.0699 -0.5989 -1.8884
 4299TIP3   OH234311   2.255   6.603  13.051  0.1630  0.0256 -0.1524
 4299TIP3    H134312   2.190   6.673  13.061  1.6858  1.5262 -0.1227
 4299TIP3    H234313   2.338   6.650  13.041  1.2898 -1.8129  0.1563
 4300TIP3   OH234314   3.566   6.569  17.056  0.4796 -0.4383 -0.0479
 4300TIP3    H134315   3.515   6.584  17.135  0.1801 -1.1851 -0.0853
 4300TIP3    H234316   3.508   6.595  16.984  0.0569 -1.4429 -0.0985
 4301TIP3   OH234317   1.984   5.804  16.280 -0.0972  0.2121 -0.1387
 4301TIP3    H134318   2.056   5.801  16.342 -0.8355  0.2949  0.7423
 4301TIP3    H234319   1.969   5.897  16.264  1.2789  0.1932 -1.8984
 4302TIP3   OH234320   3.846   0.629   3.851  0.0567 -0.3438 -0.6286
 4302TIP3    H134321   3.814   0.569   3.784 -1.3895  0.9095 -1.1075
 4302TIP3    H234322   3.872   0.707   3.802  0.5285 -0.0228  0.1233
 4303TIP3   OH234323   6.535   5.991  10.790  0.1455  0.2895 -0.5490
 4303TIP3    H134324   6.458   5.965  10.739 -0.2354  0.9104 -0.2908
 4303TIP3    H234325   6.607   5.992  10.726  0.2898 -1.8361 -0.5032
 4304TIP3   OH234326   5.533   6.171  16.915  0.3264  0.1417  0.4638
 4304TIP3    H134327   5.586   6.249  16.929  0.3841  0.4046 -1.0501
 4304TIP3    H234328   5.452   6.188  16.962  0.8766  0.5042  1.3011
 4305TIP3   OH234329   3.002   3.320  16.346  0.3015 -0.2111  0.1047
 4305TIP3    H134330   3.033   3.241  16.390 -2.1486 -1.7687 -0.7271
 4305TIP3    H234331   2.908   3.322  16.365 -0.4077  0.3752 -2.9975
 4306TIP3   OH234332   0.281   6.669  11.340 -0.1046 -0.0077 -0.2245
 4306TIP3    H134333   0.263   6.576  11.323 -0.5625 -0.3130  1.7038
 4306TIP3    H234334   0.354   6.690  11.283  1.2956 -2.0951  0.6777
 4307TIP3   OH234335   6.271   0.580  13.341  0.5049 -0.7429  0.0348
 4307TIP3    H134336   6.201   0.554  13.401  0.0914 -3.9521 -1.6564
 4307TIP3    H234337   6.352   0.566  13.391  0.0927  0.7385  1.1992
 4308TIP3   OH234338   6.469   6.697  14.947  0.0682 -0.2508 -0.2870
 4308TIP3    H134339   6.480   6.678  15.041  1.2621  1.3585 -0.0572
 4308TIP3    H234340   6.387   6.744  14.941 -0.8359 -1.7579 -0.3097
 4309TIP3   OH234341   3.229   5.883   4.125 -0.0583 -0.1674  0.6086
 4309TIP3    H134342   3.234   5.835   4.208 -1.3499 -1.5109 -0.0634
 4309TIP3    H234343   3.225   5.816   4.058 -1.1023  0.8706 -0.4217
 4310TIP3   OH234344   3.133   5.639  13.289  0.1809 -0.0394  0.6443
 4310TIP3    H134345   3.063   5.588  13.330 -0.1776  0.1205  0.2344
 4310TIP3    H234346   3.213   5.608  13.332 -0.2296  0.4956  1.8604
 4311TIP3   OH234347   1.710   1.473  15.845  0.1417 -0.4344 -0.3896
 4311TIP3    H134348   1.801   1.488  15.872 -0.4869  0.6656  1.2143
 4311TIP3    H234349   1.703   1.515  15.759  0.6708  1.1360  0.3080
 4312TIP3   OH234350   0.511   3.235  14.146 -0.4836 -0.4656  0.0360
 4312TIP3    H134351   0.492   3.312  14.092 -0.5145 -0.2358  0.3718
 4312TIP3    H234352   0.431   3.184  14.144 -0.5965 -0.2921  0.1383
 4313TIP3   OH234353   5.595   5.787  11.649  0.3827 -0.2487  0.1356
 4313TIP3    H134354   5.613   5.881  11.650  1.4259 -0.4420  0.7475
 4313TIP3    H234355   5.581   5.767  11.556 -1.1954  0.7322  0.1220
 4314TIP3   OH234356   0.019   3.731   5.291 -0.0199  0.3208  0.0187
 4314TIP3    H134357   0.097   3.736   5.236 -0.2423 -0.5956 -0.4121
 4314TIP3    H234358   0.037   3.788   5.365  0.2363  1.6832 -1.0647
 4315TIP3   OH234359   1.325   0.261   0.955 -0.0475  0.4004 -0.4805
 4315TIP3    H134360   1.310   0.169   0.933  2.1191  0.3800 -2.2400
 4315TIP3    H234361   1.382   0.258   1.032 -0.1205  0.2537 -0.4325
 4316TIP3   OH234362   1.404   5.951   1.412  0.0579  0.0863 -0.0554
 4316TIP3    H134363   1.491   5.913   1.394 -0.3652 -0.1535 -1.7772
 4316TIP3    H234364   1.343   5.886   1.378 -0.7568  0.9577 -0.2929
 4317TIP3   OH234365   4.912   0.873   0.147 -0.2321  0.2049  0.3107
 4317TIP3    H134366   4.888   0.963   0.170 -0.6381  0.4198 -0.8963
 4317TIP3    H234367   4.831   0.836   0.111  0.3882 -0.0957 -0.7924
 4318TIP3   OH234368   1.485   5.902   3.383 -0.1139  0.0815  0.6187
 4318TIP3    H134369   1.415   5.864   3.329 -1.2806  0.0040  2.1211
 4318TIP3    H234370   1.439   5.959   3.445  1.1342 -0.1961  1.8380
 4319TIP3   OH234371   1.424   5.436  13.126 -0.2314 -0.2555 -0.2392
 4319TIP3    H134372   1.408   5.522  13.087  1.6825  0.3241  0.1010
 4319TIP3    H234373   1.352   5.423  13.187 -0.6310  1.0592 -0.3934
 4320TIP3   OH234374   6.099   4.782   0.490  0.5582  0.4769  0.2226
 4320TIP3    H134375   6.146   4.729   0.554 -0.5953  0.0549  0.7486
 4320TIP3    H234376   6.068   4.858   0.540 -3.2366 -1.4344  1.1254
 4321TIP3   OH234377   5.309   3.207   5.176  0.1838 -0.0479  0.0218
 4321TIP3    H134378   5.238   3.238   5.233 -0.1238 -0.2181 -0.2637
 4321TIP3    H234379   5.270   3.134   5.128  0.2873  0.4114 -0.7760
 4322TIP3   OH234380   0.626   0.855   1.128  0.5084 -0.3732 -0.0818
 4322TIP3    H134381   0.544   0.867   1.081  1.3958  0.3121 -1.5253
 4322TIP3    H234382   0.661   0.772   1.095  0.3752 -0.6936  0.5714
 4323TIP3   OH234383   1.641   5.029   0.974 -0.5330  0.2279  0.2668
 4323TIP3    H134384   1.657   5.071   0.890 -1.2453  0.0072  0.0156
 4323TIP3    H234385   1.722   4.980   0.992 -0.2991  0.4419 -0.1831
 4324TIP3   OH234386   2.850   4.257   4.913 -0.4243 -0.4494  0.3032
 4324TIP3    H134387   2.850   4.166   4.945 -0.0812 -1.0099 -1.1960
 4324TIP3    H234388   2.918   4.258   4.845 -1.6267  0.4643 -0.9351
 4325TIP3   OH234389   6.509   6.037   0.191 -0.2004 -0.3079  0.1171
 4325TIP3    H134390   6.506   6.016   0.285  0.4746 -0.9103  0.0122
 4325TIP3    H234391   6.577   6.104   0.184  0.2838 -0.8103 -0.0356
 4326TIP3   OH234392   0.771   0.648   1.003  0.2510  0.2214  0.0506
 4326TIP3    H134393   0.817   0.678   0.925 -0.0086  0.6374  0.0513
 4326TIP3    H234394   0.821   0.684   1.076  0.4229 -0.0639  0.0759
 4327TIP3   OH234395   3.476   5.147  16.785  0.3276  0.0974 -0.1744
 4327TIP3    H134396   3.568   5.150  16.809  0.1560 -1.6439  0.8713
 4327TIP3    H234397   3.472   5.087  16.711 -0.0801 -0.7360  0.5082
 4328TIP3   OH234398   5.315   3.779  14.912 -0.0164  0.0877  0.5543
 4328TIP3    H134399   5.297   3.870  14.937 -3.5623  0.4210 -2.2786
 4328TIP3    H234400   5.380   3.786  14.842  1.8906  0.0807  2.2460
 4329TIP3   OH234401   0.972   3.764   3.956 -0.3027 -0.1481 -0.1542
 4329TIP3    H134402   0.953   3.846   4.002 -1.0881 -0.2340 -0.3155
 4329TIP3    H234403   1.050   3.783   3.904  0.0126  0.2428  0.4552
 4330TIP3   OH234404   2.294   5.376   1.044  0.7170  0.3257 -0.3045
 4330TIP3    H134405   2.377   5.329   1.050  0.1800 -0.6474 -0.3327
 4330TIP3    H234406   2.239   5.337   1.112  0.2145  0.8110 -0.4256
 4331TIP3   OH234407   4.869   1.816   5.234  0.5142  0.0819  0.0623
 4331TIP3    H134408   4.900   1.899   5.270  0.3147 -0.8456  2.5705
 4331TIP3    H234409   4.937   1.753   5.256  1.2653 -0.2973 -2.9047
 4332TIP3   OH234410   6.667   1.954   4.778 -0.0616 -0.1119  0.3483
 4332TIP3    H134411   6.703   2.007   4.849  0.2194  1.6653 -1.0325
 4332TIP3    H234412   6.693   2.000   4.699 -0.0130 -2.2451 -0.9540
 4333TIP3   OH234413   1.290   2.848  12.734  0.0964 -0.0657  0.0512
 4333TIP3    H134414   1.328   2.928  12.768  0.1024 -0.0280 -0.0441
 4333TIP3    H234415   1.364   2.788  12.724 -0.0106 -0.3512  0.8651
 4334TIP3   OH234416   3.547   0.459  14.879 -0.1438 -1.2916  0.3285
 4334TIP3    H134417   3.614   0.493  14.820 -1.4200 -0.6856 -0.8337
 4334TIP3    H234418   3.468   0.508  14.856 -0.8406 -1.4770  2.1329
 4335TIP3   OH234419   0.356   6.721  14.505  0.0664  0.3854 -0.6431
 4335TIP3    H134420   0.406   6.800  14.526  0.1319  0.0245  0.6811
 4335TIP3    H234421   0.411   6.673  14.443  1.1097  0.2832  0.3219
 4336TIP3   OH234422   2.787   6.196   3.192  0.1631  0.4196 -0.3543
 4336TIP3    H134423   2.834   6.219   3.272 -0.1857 -0.9997  0.2967
 4336TIP3    H234424   2.696   6.191   3.219  0.0195  0.1427 -0.8902
 4337TIP3   OH234425   0.049   3.902  12.049  0.5517 -0.4622  0.3616
 4337TIP3    H134426   0.025   3.817  12.084  1.0818 -0.3333  1.0630
 4337TIP3    H234427   0.039   3.893  11.954 -0.6080 -0.9097  0.5093
 4338TIP3   OH234428   2.802   2.943  14.013  0.4611 -0.2401 -0.2106
 4338TIP3    H134429   2.866   2.977  13.951 -0.7706  1.8316 -0.4540
 4338TIP3    H234430   2.728   2.916  13.959 -0.1214  0.3957  0.2500
 4339TIP3   OH234431   3.931   0.549   2.932 -0.7718 -0.1578 -0.7225
 4339TIP3    H134432   3.901   0.518   3.018  0.8612 -1.8075 -0.6840
 4339TIP3    H234433   4.007   0.603   2.951  0.4951 -1.7180 -1.1591
 4340TIP3   OH234434   6.602   3.273   3.825  0.0433 -0.6598  0.0029
 4340TIP3    H134435   6.513   3.298   3.852  0.3607  1.1019 -0.4698
 4340TIP3    H234436   6.644   3.243   3.906 -0.7437 -0.8250  0.3601
 4341TIP3   OH234437   1.649   2.911   2.801 -0.2485  0.0504 -0.8339
 4341TIP3    H134438   1.591   2.899   2.726  1.0948 -1.6982 -1.6638
 4341TIP3    H234439   1.604   2.866   2.873 -0.6663  0.1086 -1.0565
 4342TIP3   OH234440   6.740   6.696   4.325  0.6406  0.1668  0.4079
 4342TIP3    H134441   6.716   6.787   4.309 -1.3049 -0.0453  1.7022
 4342TIP3    H234442   6.834   6.691   4.306  0.3378  1.8654 -1.9304
 4343TIP3   OH234443   3.550   2.761  12.229 -0.1466 -0.1376 -0.6457
 4343TIP3    H134444   3.473   2.749  12.174 -1.5506  0.5170  1.0631
 4343TIP3    H234445   3.516   2.802  12.309  1.8025 -0.8938  0.6506
 4344TIP3   OH234446   4.645   0.441  13.506  0.0510 -0.6823 -0.1997
 4344TIP3    H134447   4.718   0.381  13.492 -0.6384 -1.5650 -0.0932
 4344TIP3    H234448   4.587   0.425  13.431 -0.8761 -1.2763  0.6162
 4345TIP3   OH234449   6.500   3.688  16.635  0.1020 -0.3658  0.2922
 4345TIP3    H134450   6.576   3.631  16.633  0.8743  0.6257 -2.1887
 4345TIP3    H234451   6.533   3.774  16.663 -0.6473 -0.5343  1.8349
 4346TIP3   OH234452   0.991   4.358   1.320  0.3290 -0.1280  0.1016
 4346TIP3    H134453   0.994   4.282   1.262 -1.4644 -0.6771  0.6688
 4346TIP3    H234454   0.961   4.324   1.404  0.4500  1.0570  0.6451
 4347TIP3   OH234455   6.279   0.709  16.536  0.1406 -0.6013 -0.1213
 4347TIP3    H134456   6.274   0.676  16.626 -0.9981 -0.0044  0.0453
 4347TIP3    H234457   6.326   0.791  16.543 -1.3613  0.2661  0.1881
 4348TIP3   OH234458   2.564   4.329  11.235  0.2034 -0.3040  0.3585
 4348TIP3    H134459   2.590   4.420  11.248 -0.7867  0.1454 -0.6733
 4348TIP3    H234460   2.561   4.317  11.140  1.7778 -1.8651  0.4563
 4349TIP3   OH234461   2.332   4.589  11.063  0.5085 -0.3146  0.2692
 4349TIP3    H134462   2.356   4.517  11.005  2.0524 -0.6804  1.2942
 4349TIP3    H234463   2.236   4.591  11.061  0.4799 -1.6647 -0.6403
 4350TIP3   OH234464   4.921   4.283   6.737 -0.1674 -0.5060  0.3205
 4350TIP3    H134465   4.893   4.223   6.806  0.7147 -0.0499  1.0946
 4350TIP3    H234466   4.978   4.346   6.781 -0.1614  0.2208 -0.6919
 4351TIP3   OH234467   5.318   5.403  10.759  0.4793  0.0306  0.9231
 4351TIP3    H134468   5.407   5.372  10.777  1.3258  1.2027 -0.8855
 4351TIP3    H234469   5.331   5.478  10.701 -1.7533 -1.1209 -1.2364
 4352TIP3   OH234470   6.234   3.148   6.144 -0.2434  0.3689 -0.6777
 4352TIP3    H134471   6.218   3.236   6.179 -0.7640  0.1928 -0.4522
 4352TIP3    H234472   6.163   3.134   6.082 -1.5947 -0.7862  1.0134
 4353TIP3   OH234473   1.614   1.518  11.311 -0.4016 -0.5244 -0.1687
 4353TIP3    H134474   1.666   1.440  11.290  0.2025  0.1116 -1.1428
 4353TIP3    H234475   1.623   1.528  11.406 -0.0647 -1.3394 -0.1052
 4354TIP3   OH234476   4.848   0.792   4.755 -0.0431 -0.4179 -0.4464
 4354TIP3    H134477   4.762   0.823   4.728  0.0682  0.1136 -0.2242
 4354TIP3    H234478   4.851   0.700   4.730  0.5594  0.3230 -3.5272
 4355TIP3   OH234479   0.827   6.340  10.986  0.2069  0.1864  0.8847
 4355TIP3    H134480   0.755   6.367  10.928 -0.8490 -0.8144  1.6736
 4355TIP3    H234481   0.901   6.325  10.927 -0.7303 -0.4124 -0.1801
 4356TIP3   OH234482   3.524   0.435  10.886 -0.0913  0.3745  0.6486
 4356TIP3    H134483   3.488   0.355  10.850  0.4976  1.0150 -1.5857
 4356TIP3    H234484   3.448   0.486  10.914 -0.6334 -0.0012 -0.1084
 4357TIP3   OH234485   4.596   6.187   5.556 -0.2867  0.4740 -0.3323
 4357TIP3    H134486   4.661   6.167   5.489 -0.2537  0.0176 -0.1704
 4357TIP3    H234487   4.514   6.152   5.521 -1.2223  3.9710 -2.0956
 4358TIP3   OH234488   1.194   1.982  12.010 -0.2834 -1.1435 -0.6873
 4358TIP3    H134489   1.277   1.945  11.979 -0.2600 -0.7219 -1.1319
 4358TIP3    H234490   1.136   1.906  12.016  0.2250 -1.4915 -0.0581
 4359TIP3   OH234491   5.196   2.564   2.913  0.1564  0.2908 -0.3402
 4359TIP3    H134492   5.217   2.473   2.935 -0.0561  0.2474 -0.3147
 4359TIP3    H234493   5.104   2.573   2.936 -0.3087  0.0011 -1.9802
 4360TIP3   OH234494   0.160   0.871  12.986 -0.4954 -0.7283 -0.1802
 4360TIP3    H134495   0.155   0.967  12.988 -0.3783 -0.6671 -1.7305
 4360TIP3    H234496   0.254   0.852  12.992 -0.3781 -0.6550 -1.4161
 4361TIP3   OH234497   5.835   5.191  17.142  0.2013  0.2801 -0.0381
 4361TIP3    H134498   5.913   5.218  17.191  0.0829  0.6477 -0.0499
 4361TIP3    H234499   5.868   5.130  17.076  0.2304 -1.0875  1.1772
 4362TIP3   OH234500   2.970   5.342   6.321  0.2022 -0.2445  0.1683
 4362TIP3    H134501   3.003   5.359   6.410  0.2946 -1.4079  0.3791
 4362TIP3    H234502   3.006   5.256   6.299  1.2897  0.5866 -1.5339
 4363TIP3   OH234503   3.675   6.478  13.965  0.3953 -0.3052  0.5574
 4363TIP3    H134504   3.592   6.487  14.012  0.4070  0.5117  0.4396
 4363TIP3    H234505   3.742   6.494  14.031  0.3952  2.3715  0.0217
 4364TIP3   OH234506   0.433   5.039   5.717 -0.2494 -0.2661  0.4704
 4364TIP3    H134507   0.396   5.067   5.801 -2.3402  2.1391 -1.0912
 4364TIP3    H234508   0.409   4.947   5.709 -0.5078 -0.3858  2.2322
 4365TIP3   OH234509   2.491   5.217  12.175  0.0129 -0.0150 -0.4506
 4365TIP3    H134510   2.478   5.138  12.123 -1.2273  0.1439 -0.4157
 4365TIP3    H234511   2.506   5.286  12.110  0.8376 -0.2306 -0.4914
 4366TIP3   OH234512   4.143   4.019  12.213 -0.0507  0.2522 -0.0168
 4366TIP3    H134513   4.200   4.075  12.160 -2.1033  2.0537 -0.4761
 4366TIP3    H234514   4.193   4.002  12.293  1.7474  0.3357 -1.0612
 4367TIP3   OH234515   6.512   1.608   3.508 -0.2318 -0.2652  0.0628
 4367TIP3    H134516   6.472   1.692   3.482  1.8558  0.3544 -1.4273
 4367TIP3    H234517   6.604   1.617   3.483  0.4593 -2.3234  1.6156
 4368TIP3   OH234518   4.973   5.637  16.409 -0.0081 -0.3258 -0.0694
 4368TIP3    H134519   5.003   5.563  16.461 -0.3853 -0.4304  0.0049
 4368TIP3    H234520   5.053   5.679  16.377  0.2247 -0.2794  0.5678
 4369TIP3   OH234521   1.577   5.619  16.084 -0.8377  0.0590  0.4641
 4369TIP3    H134522   1.635   5.601  16.159 -2.1692 -2.1014  1.0745
 4369TIP3    H234523   1.636   5.622  16.009  0.3568  0.6649  1.3807
 4370TIP3   OH234524   3.058   0.942  16.117  0.4451 -0.4670  0.1506
 4370TIP3    H134525   3.108   0.910  16.192 -2.2711 -2.0491  1.4244
 4370TIP3    H234526   3.017   1.023  16.148  0.7803 -0.1340 -0.2683
 4371TIP3   OH234527   5.163   6.047  17.283 -0.3913 -0.1790  0.0690
 4371TIP3    H134528   5.121   6.109  17.223 -0.9392  1.5472  2.1130
 4371TIP3    H234529   5.256   6.051  17.262 -0.2663  2.1780  0.7762
 4372TIP3   OH234530   2.672   1.197   1.632 -0.0893  0.2609 -0.0026
 4372TIP3    H134531   2.766   1.179   1.627  0.2355  1.7292  0.1661
 4372TIP3    H234532   2.663   1.257   1.706 -1.2849 -0.4826  0.4889
 4373TIP3   OH234533   5.364   0.227   4.828 -0.2972  0.0385 -0.3735
 4373TIP3    H134534   5.312   0.147   4.828  0.3742 -0.4105  0.5525
 4373TIP3    H234535   5.392   0.237   4.737 -0.8387 -0.4721 -0.6014
 4374TIP3   OH234536   6.022   6.759  10.917 -0.4077 -0.5874 -0.2806
 4374TIP3    H134537   5.950   6.798  10.868  0.7829 -0.0563 -1.6999
 4374TIP3    H234538   6.084   6.730  10.849  2.7429  2.8864  0.7408
 4375TIP3   OH234539   6.578   4.922  11.983 -0.0646 -0.4426 -0.3378
 4375TIP3    H134540   6.577   5.009  11.944 -1.0673  0.3268  1.2870
 4375TIP3    H234541   6.555   4.863  11.911 -0.3155  0.7311 -1.2470
 4376TIP3   OH234542   6.529   4.643   1.764  0.1093  0.4845  0.4406
 4376TIP3    H134543   6.624   4.645   1.777  0.4666  3.1583 -1.6896
 4376TIP3    H234544   6.496   4.713   1.821 -0.3954  0.5470  0.0722
 4377TIP3   OH234545   0.280   6.595  12.576 -0.5109  0.1173  0.3886
 4377TIP3    H134546   0.277   6.642  12.492 -0.5893  2.7405  1.7396
 4377TIP3    H234547   0.372   6.571  12.586 -0.3561  0.4768 -0.1003
 4378TIP3   OH234548   1.211   4.347  10.446  0.4814 -0.3007 -0.1666
 4378TIP3    H134549   1.183   4.362  10.536 -1.3006 -1.4870 -0.4720
 4378TIP3    H234550   1.130   4.330  10.398  1.5756 -2.0952 -1.5056
 4379TIP3   OH234551   5.887   1.568   2.668 -0.1146  0.4111  0.2147
 4379TIP3    H134552   5.820   1.554   2.602  0.9246 -1.4023 -0.5242
 4379TIP3    H234553   5.850   1.531   2.748 -0.8759  1.4982  0.3943
 4380TIP3   OH234554   5.658   0.588  12.240  0.0631  0.6060  0.3653
 4380TIP3    H134555   5.737   0.535  12.252 -0.6447 -0.9293 -1.4434
 4380TIP3    H234556   5.686   0.676  12.266  2.6817  0.3178 -1.0497
 4381TIP3   OH234557   4.449   6.262   4.109 -0.3317 -0.2520 -0.6433
 4381TIP3    H134558   4.486   6.176   4.092 -1.3391 -0.8003 -0.0994
 4381TIP3    H234559   4.514   6.306   4.163  0.5217 -0.3819 -1.5294
 4382TIP3   OH234560   4.495   0.038   3.098 -0.2121 -0.3104  0.7428
 4382TIP3    H134561   4.586   0.040   3.128 -0.6130  0.3542  1.9848
 4382TIP3    H234562   4.452   0.109   3.146 -1.1222  0.1695 -0.7334
 4383TIP3   OH234563   2.872   3.236  16.657  0.3983  0.1356 -0.4925
 4383TIP3    H134564   2.828   3.156  16.686 -0.4480  0.8579  0.2967
 4383TIP3    H234565   2.946   3.205  16.604 -0.4773 -1.1417 -1.0323
 4384TIP3   OH234566   1.750   3.351  11.303  0.2326  0.0237 -0.4510
 4384TIP3    H134567   1.729   3.369  11.211  1.0751 -0.5641 -0.7627
 4384TIP3    H234568   1.715   3.263  11.319 -0.3468  0.3195 -0.0620
 4385TIP3   OH234569   5.347   5.612  11.897 -0.1010  0.3111 -0.2391
 4385TIP3    H134570   5.351   5.518  11.876 -0.7645  0.5349 -1.4719
 4385TIP3    H234571   5.363   5.616  11.991 -0.4661 -1.0759 -0.0919
 4386TIP3   OH234572   0.288   3.798  14.409 -0.2693  0.5735  0.4040
 4386TIP3    H134573   0.346   3.860  14.451 -0.6668 -0.0507  1.9306
 4386TIP3    H234574   0.208   3.799  14.462 -1.1452  0.4022 -0.8428
 4387TIP3   OH234575   6.450   4.876  15.852 -0.1527 -0.6350 -0.0610
 4387TIP3    H134576   6.359   4.891  15.878 -0.8524 -2.6797 -1.1501
 4387TIP3    H234577   6.451   4.892  15.758  0.6246 -0.6099 -0.0556
 4388TIP3   OH234578   2.071   1.334  16.628 -0.4478 -0.2189 -0.1380
 4388TIP3    H134579   2.042   1.425  16.620  0.2581  0.2607  2.0408
 4388TIP3    H234580   2.149   1.329  16.574 -0.0743  0.7052  0.2834
 4389TIP3   OH234581   3.941   3.935   3.905  0.0790  0.4886  0.0312
 4389TIP3    H134582   3.947   3.972   3.817 -0.5831  0.3339 -0.0802
 4389TIP3    H234583   3.880   3.992   3.951 -0.4797 -0.1158  0.0408
 4390TIP3   OH234584   3.927   0.162  16.344  0.2650 -0.3295 -0.1140
 4390TIP3    H134585   3.902   0.139  16.254  1.3093  1.3467 -0.8766
 4390TIP3    H234586   3.874   0.239  16.365  1.1834  0.2636  0.0915
 4391TIP3   OH234587   3.414   0.627  13.350 -0.0166 -0.0495 -0.5527
 4391TIP3    H134588   3.470   0.620  13.427  0.2466 -0.8074 -0.8049
 4391TIP3    H234589   3.355   0.552  13.356 -0.7843  0.5465 -0.4735
 4392TIP3   OH234590   4.162   3.892  15.829  0.1211 -0.0446  0.3245
 4392TIP3    H134591   4.119   3.883  15.744 -0.0633  0.8548  0.3135
 4392TIP3    H234592   4.224   3.819  15.833 -0.6380 -0.7227 -0.1190
 4393TIP3   OH234593   4.751   5.225   5.347 -0.3259 -0.3643 -0.1606
 4393TIP3    H134594   4.762   5.301   5.290 -1.4865  0.9291  1.2589
 4393TIP3    H234595   4.840   5.199   5.369  0.0996  0.3187 -0.9812
 4394TIP3   OH234596   1.935   3.052   4.093 -0.1672  0.0841 -0.0013
 4394TIP3    H134597   1.953   3.107   4.170  0.3431  0.3746 -0.3241
 4394TIP3    H234598   1.982   3.095   4.022 -2.4241  1.0697 -0.9751
 4395TIP3   OH234599   1.911   6.024  11.081  0.2176 -0.7151  0.5248
 4395TIP3    H134600   1.917   6.116  11.105  0.1733 -0.9343  1.4207
 4395TIP3    H234601   1.851   6.023  11.007  0.9205  0.0638 -0.0799
 4396TIP3   OH234602   3.933   1.697  17.241  0.0674 -0.1466  0.0112
 4396TIP3    H134603   3.844   1.730  17.255  0.1613  0.1293 -0.0405
 4396TIP3    H234604   3.963   1.743  17.162  0.7960  0.8696  0.8448
 4397TIP3   OH234605   0.288   6.333  16.996 -0.1866 -1.0228 -0.0210
 4397TIP3    H134606   0.215   6.292  16.949  0.8151 -1.2283 -1.4545
 4397TIP3    H234607   0.364   6.317  16.941  1.3966 -2.6411  2.4329
 4398TIP3   OH234608   1.839   0.862  16.842 -0.0146 -0.5463 -0.0990
 4398TIP3    H134609   1.791   0.782  16.861 -0.4080 -0.1493  0.6481
 4398TIP3    H234610   1.912   0.834  16.787  0.1255 -1.4867  0.5378
 4399TIP3   OH234611   0.064   1.450  16.468  0.1245 -0.4851  0.0747
 4399TIP3    H134612   0.120   1.510  16.517 -0.6247 -0.7018  1.2208
 4399TIP3    H234613   0.015   1.507  16.408 -0.0463 -0.0334  0.6353
 4400TIP3   OH234614   4.322   0.003   3.775 -0.6764 -0.2470 -0.0669
 4400TIP3    H134615   4.237  -0.027   3.743 -0.8172 -0.0171  0.0883
 4400TIP3    H234616   4.312   0.007   3.871 -0.8040  0.7024 -0.1051
 4401TIP3   OH234617   5.913   3.408  15.022 -0.5282  0.1605 -0.3771
 4401TIP3    H134618   5.852   3.416  15.095 -0.2760  0.3234 -0.1819
 4401TIP3    H234619   5.884   3.330  14.975 -1.6119  0.9132 -0.9721
 4402TIP3   OH234620   3.630   5.479  11.047  0.1663  0.6511 -0.0483
 4402TIP3    H134621   3.538   5.504  11.042 -0.4858 -1.6833 -1.4318
 4402TIP3    H234622   3.630   5.394  11.091  1.3282 -0.5041 -2.0771
 4403TIP3   OH234623   5.169   1.821  15.492  0.2344 -0.4149 -0.1883
 4403TIP3    H134624   5.094   1.877  15.511 -0.9697 -2.0414 -0.0032
 4403TIP3    H234625   5.235   1.881  15.456 -0.7671  1.2076  0.5659
 4404TIP3   OH234626   4.304   2.281   5.448 -0.3015  0.0375  0.5282
 4404TIP3    H134627   4.251   2.335   5.507  0.0445  1.3564 -0.3033
 4404TIP3    H234628   4.392   2.285   5.485  0.1384  1.7424 -0.5756
 4405TIP3   OH234629   0.794   5.776   0.728 -0.3208 -0.1752 -0.4032
 4405TIP3    H134630   0.859   5.845   0.740  0.0185 -0.6792  0.7454
 4405TIP3    H234631   0.759   5.791   0.639  1.3288  0.1101 -1.0310
 4406TIP3   OH234632   1.278   1.430   1.327  0.0642 -0.4165  0.5494
 4406TIP3    H134633   1.198   1.472   1.359 -1.2162 -2.5313  0.2765
 4406TIP3    H234634   1.248   1.357   1.273  2.2000 -0.1311 -1.1570
 4407TIP3   OH234635   0.928   0.283  13.866  0.3605  0.0420 -0.6131
 4407TIP3    H134636   0.941   0.243  13.780 -0.8375 -1.3309 -0.1855
 4407TIP3    H234637   0.988   0.235  13.924  0.6326  0.4683 -0.5362
 4408TIP3   OH234638   2.604   3.836   4.922  0.6033 -0.4672  0.0415
 4408TIP3    H134639   2.591   3.846   5.016 -2.6421 -0.0971 -0.3335
 4408TIP3    H234640   2.556   3.756   4.899 -1.0454  0.9032 -1.6257
 4409TIP3   OH234641   2.845   1.155  12.068 -0.7329 -0.1844  0.2620
 4409TIP3    H134642   2.879   1.243  12.052 -1.6902 -0.1479 -1.9310
 4409TIP3    H234643   2.836   1.117  11.981  2.1004 -3.4859  1.1945
 4410TIP3   OH234644   0.452   0.031   0.917  0.1563  0.0668  0.1644
 4410TIP3    H134645   0.497  -0.024   0.981 -1.6993 -1.6210  0.0924
 4410TIP3    H234646   0.359   0.010   0.927 -0.2715  0.2605 -2.5832
 4411TIP3   OH234647   1.466   5.075  13.512  0.2479 -0.3285  0.5348
 4411TIP3    H134648   1.445   5.169  13.512 -2.5582 -0.8552 -0.0962
 4411TIP3    H234649   1.487   5.055  13.421  1.3261 -0.2552  0.7543
 4412TIP3   OH234650   5.408   2.669   0.623  0.3920  0.3191  0.1027
 4412TIP3    H134651   5.414   2.657   0.718  0.3285  0.6117  0.1436
 4412TIP3    H234652   5.414   2.763   0.610 -0.6599  0.3632 -0.1112
 4413TIP3   OH234653   4.830   3.233  13.938 -0.2539 -0.8009  0.1536
 4413TIP3    H134654   4.905   3.254  13.992 -1.4927  0.8187  1.3554
 4413TIP3    H234655   4.817   3.139  13.949  1.9768 -1.2583 -0.6756
 4414TIP3   OH234656   0.419   4.941  14.802 -0.5731 -0.2956 -0.0187
 4414TIP3    H134657   0.483   4.959  14.871  0.3763 -0.8118 -0.7296
 4414TIP3    H234658   0.445   4.856  14.767  0.4282  0.9530 -2.5574
 4415TIP3   OH234659   1.025   4.237  11.183  0.1639  0.1478  0.3665
 4415TIP3    H134660   1.084   4.164  11.200  0.0939  0.0294  0.1125
 4415TIP3    H234661   1.044   4.263  11.093  0.2265  0.4792  0.4744
 4416TIP3   OH234662   6.530   0.984  12.044 -0.1938  0.3879  0.5186
 4416TIP3    H134663   6.607   0.934  12.070 -0.7468 -0.5022  0.4694
 4416TIP3    H234664   6.543   1.070  12.085  0.9240  0.3294  0.3208
 4417TIP3   OH234665   0.726   1.189   5.022  0.1334 -0.7066  0.2251
 4417TIP3    H134666   0.657   1.198   4.957 -0.6785 -0.6029  1.0825
 4417TIP3    H234667   0.721   1.097   5.049 -1.4326 -0.1209  2.1571
 4418TIP3   OH234668   3.795   3.751   6.065 -0.2944  0.0091 -0.6567
 4418TIP3    H134669   3.803   3.823   6.002 -1.5673 -0.6996 -1.6900
 4418TIP3    H234670   3.873   3.698   6.051 -1.0839 -0.7725 -2.5398
 4419TIP3   OH234671   1.483   0.115  14.360  0.7844 -0.0102 -0.0003
 4419TIP3    H134672   1.570   0.088  14.332  0.7701  0.7355 -0.7750
 4419TIP3    H234673   1.461   0.054  14.431  2.0195 -0.0563  0.3531
 4420TIP3   OH234674   6.146   6.620  14.027 -0.2518  0.3667  0.1155
 4420TIP3    H134675   6.071   6.665  14.065 -1.0107  1.3358 -2.3513
 4420TIP3    H234676   6.159   6.543  14.083 -1.7612  1.2587  1.7859
 4421TIP3   OH234677   3.173   0.086   3.287 -0.1065 -0.4568  0.0491
 4421TIP3    H134678   3.164   0.132   3.204  1.4664 -1.3451 -0.6545
 4421TIP3    H234679   3.187   0.155   3.352  3.8445  0.1556 -1.2052
 4422TIP3   OH234680   1.398   6.567  11.654  0.3034  0.7738 -0.0111
 4422TIP3    H134681   1.417   6.481  11.617  0.0881  1.1676 -1.0680
 4422TIP3    H234682   1.335   6.550  11.724  0.3988  0.0523 -0.1018
 4423TIP3   OH234683   1.931   2.544  14.722  0.1177  0.2577 -0.1762
 4423TIP3    H134684   1.905   2.456  14.697 -0.7492  1.0860 -2.4434
 4423TIP3    H234685   1.852   2.597  14.712  0.8496  1.4716  0.2086
 4424TIP3   OH234686   2.455   6.604   1.846 -0.5046 -0.1670 -0.4987
 4424TIP3    H134687   2.491   6.557   1.922 -0.1200 -1.4444 -1.4389
 4424TIP3    H234688   2.442   6.693   1.878  1.5407 -0.1579  0.4900
 4425TIP3   OH234689   5.245   1.230   5.654 -0.0055 -0.1928 -0.3434
 4425TIP3    H134690   5.253   1.134   5.651  1.7700 -0.0970  0.4500
 4425TIP3    H234691   5.254   1.252   5.746  0.8350  0.8227 -0.6508
 4426TIP3   OH234692   1.165   0.627   0.753 -1.0912 -0.3933 -0.4561
 4426TIP3    H134693   1.254   0.594   0.740 -0.0143  2.5585 -1.4984
 4426TIP3    H234694   1.111   0.576   0.692  0.1374 -1.2186 -0.8889
 4427TIP3   OH234695   1.720   4.514  15.379  0.4271 -0.4912 -0.5932
 4427TIP3    H134696   1.732   4.423  15.405  1.4902 -0.2013 -0.0397
 4427TIP3    H234697   1.800   4.536  15.332  0.5755  0.4236  0.0663
 4428TIP3   OH234698   4.531   3.104   1.217 -0.8277  0.2625  0.0576
 4428TIP3    H134699   4.537   3.167   1.290 -1.5686 -0.7618  1.0317
 4428TIP3    H234700   4.438   3.082   1.212 -0.8333  0.5456 -1.4247
 4429TIP3   OH234701   1.787   0.050   1.550  0.0316 -0.1523 -0.2795
 4429TIP3    H134702   1.757  -0.039   1.570  0.8710 -0.1242  1.2627
 4429TIP3    H234703   1.853   0.069   1.617  1.5488  0.7932 -1.9531
 4430TIP3   OH234704   6.458   2.281   5.389  0.4480 -0.0513 -0.8513
 4430TIP3    H134705   6.546   2.245   5.376  0.8351 -0.4465  2.2086
 4430TIP3    H234706   6.433   2.313   5.302  4.3692  1.8372 -1.5460
 4431TIP3   OH234707   1.154   1.821  14.618  0.2771  0.4163 -0.7908
 4431TIP3    H134708   1.194   1.903  14.589 -1.3415  1.4422 -0.2911
 4431TIP3    H234709   1.095   1.847  14.689 -2.8249 -0.6013 -2.7918
 4432TIP3   OH234710   4.849   1.631   0.244 -0.1744  0.1597 -0.0783
 4432TIP3    H134711   4.912   1.703   0.238 -0.2178  0.1055 -1.3199
 4432TIP3    H234712   4.903   1.552   0.235 -0.2300  0.0488  0.4927
 4433TIP3   OH234713   4.598   6.555  14.960 -0.1901  0.1088 -0.0717
 4433TIP3    H134714   4.544   6.583  15.035 -0.1668  0.3067 -0.1276
 4433TIP3    H234715   4.603   6.633  14.905 -1.3547 -0.4180 -0.9620
 4434TIP3   OH234716   2.882   4.971  17.372  0.4905  0.5389  0.3476
 4434TIP3    H134717   2.934   4.898  17.337  0.2171  0.8388 -0.7265
 4434TIP3    H234718   2.938   5.008  17.441  2.3814  1.6924 -1.6604
 4435TIP3   OH234719   0.467   6.162  11.959 -0.5910 -0.0152 -0.0634
 4435TIP3    H134720   0.454   6.198  11.871  1.0706  0.3971 -0.1789
 4435TIP3    H234721   0.437   6.072  11.953 -2.2954  0.5457 -0.5164
 4436TIP3   OH234722   5.191   3.106   2.336 -0.1927 -0.3673 -0.2482
 4436TIP3    H134723   5.155   3.054   2.264 -1.5077 -0.9983  0.8389
 4436TIP3    H234724   5.224   3.042   2.399 -2.3379  0.0343  1.3722
 4437TIP3   OH234725   4.988   4.382   4.443 -0.0088 -0.1335  0.4102
 4437TIP3    H134726   4.985   4.382   4.539 -1.2446  0.6731  0.3884
 4437TIP3    H234727   4.969   4.472   4.419 -3.7637 -1.0479 -0.6574
 4438TIP3   OH234728   4.510   2.508  15.843 -0.2576 -0.0837 -0.2347
 4438TIP3    H134729   4.434   2.559  15.870  0.0346 -1.1583  3.1010
 4438TIP3    H234730   4.484   2.468  15.760 -2.9223  0.4188  0.2642
 4439TIP3   OH234731   4.200   2.876   4.641  0.1124 -0.2564 -0.1705
 4439TIP3    H134732   4.170   2.893   4.731 -0.2410  0.4603 -0.4166
 4439TIP3    H234733   4.125   2.836   4.598 -0.4117  1.2241 -0.6902
 4440TIP3   OH234734   0.362   2.716  12.780  0.5637 -0.3990 -0.1545
 4440TIP3    H134735   0.356   2.623  12.757 -0.4075 -0.1826 -0.8399
 4440TIP3    H234736   0.321   2.761  12.707  0.0671  0.5070  0.6691
 4441TIP3   OH234737   5.883   0.898   1.531  0.2074  0.1176  0.4357
 4441TIP3    H134738   5.902   0.862   1.618 -0.1463 -1.6918 -0.1898
 4441TIP3    H234739   5.957   0.870   1.477  0.2797  0.9795  0.0804
 4442TIP3   OH234740   0.041   3.089   5.900 -0.4137  0.3376 -0.8461
 4442TIP3    H134741  -0.050   3.079   5.871 -0.3156 -1.4990 -0.6330
 4442TIP3    H234742   0.045   3.178   5.935 -1.8986  0.7602 -1.6418
 4443TIP3   OH234743   3.669   6.605   2.628 -0.1933 -0.0863  0.2284
 4443TIP3    H134744   3.751   6.622   2.675 -0.4638  0.1904  0.6023
 4443TIP3    H234745   3.602   6.646   2.682 -0.4947  0.3501 -0.4660
 4444TIP3   OH234746   1.021   4.741   5.191  0.0684 -0.0261 -0.0780
 4444TIP3    H134747   0.988   4.655   5.163  0.0028  0.5104 -1.7683
 4444TIP3    H234748   1.107   4.721   5.229 -0.6080 -1.0053  1.0086
 4445TIP3   OH234749   2.535   0.550   2.432 -0.1532 -0.4216  0.5730
 4445TIP3    H134750   2.510   0.500   2.354 -2.3570 -0.8594  1.4981
 4445TIP3    H234751   2.578   0.628   2.397 -0.0950 -1.1404 -1.0409
 4446TIP3   OH234752   4.822   0.356  14.342  0.1403  0.4280  0.1299
 4446TIP3    H134753   4.805   0.390  14.430  0.8256  0.0453  0.4179
 4446TIP3    H234754   4.785   0.268  14.343  1.4783 -0.1541  0.5423
 4447TIP3   OH234755   6.712   0.852   3.839  0.6714 -0.0922  0.3101
 4447TIP3    H134756   6.735   0.759   3.843  1.4403  0.0373 -0.7153
 4447TIP3    H234757   6.718   0.881   3.930  0.4470 -1.0336  0.6454
 4448TIP3   OH234758   2.192   5.593   6.385 -0.0378 -0.4412 -0.1430
 4448TIP3    H134759   2.284   5.576   6.410 -0.0816  0.3532  0.6082
 4448TIP3    H234760   2.161   5.655   6.451 -1.6497 -2.0009  0.6631
 4449TIP3   OH234761   6.146   6.677   6.581 -0.1012 -0.1343  0.1897
 4449TIP3    H134762   6.096   6.743   6.630  0.5611  0.5718 -0.0664
 4449TIP3    H234763   6.237   6.689   6.609  0.0828 -0.6895 -0.1410
 4450TIP3   OH234764   0.835   5.689   3.302 -0.3307 -0.0227 -0.2766
 4450TIP3    H134765   0.754   5.739   3.313 -1.6727 -2.0582 -0.3332
 4450TIP3    H234766   0.834   5.626   3.374  2.3604  1.2998  1.0383
 4451TIP3   OH234767   2.240   2.379   2.792 -0.1951  0.7774 -0.4193
 4451TIP3    H134768   2.295   2.307   2.821 -1.1377 -0.5465 -1.7893
 4451TIP3    H234769   2.303   2.446   2.764  0.6937  0.3723  0.5349
 4452TIP3   OH234770   6.452   0.444  16.935  0.5559  0.0938 -0.4143
 4452TIP3    H134771   6.359   0.446  16.911  0.5655 -0.3347 -0.4904
 4452TIP3    H234772   6.497   0.452  16.851  0.6039  2.2604 -0.2259
 4453TIP3   OH234773   5.741   5.620   3.288  0.0073 -0.0725  0.3209
 4453TIP3    H134774   5.759   5.607   3.381  0.2551  2.1679  0.6401
 4453TIP3    H234775   5.648   5.643   3.284  0.2842  1.0912  0.1944
 4454TIP3   OH234776   2.823   0.679   1.850  0.0196  0.0022 -0.4661
 4454TIP3    H134777   2.813   0.768   1.816 -1.1311 -0.3040 -0.9670
 4454TIP3    H234778   2.737   0.656   1.884  0.3720 -0.8277 -0.1078
 4455TIP3   OH234779   3.568   0.899  13.785 -0.5392 -0.1847  0.2836
 4455TIP3    H134780   3.540   0.979  13.741 -0.4349  0.6594  1.7066
 4455TIP3    H234781   3.602   0.928  13.869 -2.3869 -1.8913  1.7076
 4456TIP3   OH234782   1.647   6.737  13.686  0.1760  0.2367 -0.2600
 4456TIP3    H134783   1.602   6.653  13.685 -2.8925  1.6850  1.2286
 4456TIP3    H234784   1.639   6.770  13.597  1.1092 -0.8295 -0.7714
 4457TIP3   OH234785   1.939   5.187  12.850  0.3171  0.2461 -0.5767
 4457TIP3    H134786   1.923   5.093  12.857 -0.3877  0.4715  3.3102
 4457TIP3    H234787   1.859   5.222  12.813  0.3729 -0.6051 -1.5560
 4458TIP3   OH234788   0.055   5.430   1.472 -0.1139  0.5253  0.0490
 4458TIP3    H134789   0.080   5.508   1.523 -0.4983  0.8323 -0.2261
 4458TIP3    H234790   0.137   5.381   1.463  0.5981  1.8665 -1.4539
 4459TIP3   OH234791   5.728   3.292   1.255 -0.5661  0.4851 -0.2938
 4459TIP3    H134792   5.637   3.291   1.284 -0.8502 -1.0989 -1.1017
 4459TIP3    H234793   5.724   3.271   1.162  0.5754  1.3196 -0.5549
 4460TIP3   OH234794   3.733   1.579   3.083  0.0976 -0.1102 -0.1606
 4460TIP3    H134795   3.813   1.630   3.069  1.0598 -1.1982  1.1690
 4460TIP3    H234796   3.662   1.643   3.073  1.1126  0.8969 -1.2590
 4461TIP3   OH234797   4.364   1.630  11.238 -0.4244 -0.0159  0.0218
 4461TIP3    H134798   4.455   1.602  11.251  0.5668  2.7331 -0.3657
 4461TIP3    H234799   4.340   1.592  11.154  0.9164  0.4241 -0.5893
 4462TIP3   OH234800   0.156   1.817   4.607  0.4051  0.0052  0.5387
 4462TIP3    H134801   0.094   1.889   4.599  1.9734  1.1936 -1.7713
 4462TIP3    H234802   0.154   1.773   4.522  1.1534 -1.2870  1.1521
 4463TIP3   OH234803   2.817   4.619  11.653  0.3247 -0.1296  0.5016
 4463TIP3    H134804   2.842   4.528  11.639 -3.2652 -1.2471  0.2271
 4463TIP3    H234805   2.832   4.661  11.569  3.6145  0.0929  1.0844
 4464TIP3   OH234806   5.511   0.635   1.239  0.0114 -0.0882 -0.2425
 4464TIP3    H134807   5.441   0.634   1.305  0.4971  0.1763  0.2905
 4464TIP3    H234808   5.518   0.545   1.209 -1.0769  0.0160 -0.8681
 4465TIP3   OH234809   2.003   4.961  17.060  0.0991  0.0033 -0.3509
 4465TIP3    H134810   1.939   4.919  17.003 -0.2799  2.4803 -1.9098
 4465TIP3    H234811   1.962   4.963  17.146 -0.0422 -2.2902 -0.3060
 4466TIP3   OH234812   6.038   4.964   3.142 -0.4183 -0.1540  0.0266
 4466TIP3    H134813   6.058   4.901   3.211 -1.2972  0.4504  0.8537
 4466TIP3    H234814   5.949   4.942   3.115 -1.1990  1.4597  1.1566
 4467TIP3   OH234815   0.017   1.717  12.793  0.0921 -0.9307  0.3225
 4467TIP3    H134816   0.017   1.662  12.872 -1.0337 -0.5263  0.6138
 4467TIP3    H234817   0.030   1.806  12.826 -3.7021 -0.2814  0.4562
 4468TIP3   OH234818   5.375   3.377  16.405 -0.3816  0.0155  0.1315
 4468TIP3    H134819   5.308   3.438  16.434  0.8990  0.1357  3.1412
 4468TIP3    H234820   5.334   3.291  16.411 -1.0221  0.2674 -0.5164
 4469TIP3   OH234821   3.740   4.319   3.142  0.2089 -0.3669 -0.2284
 4469TIP3    H134822   3.827   4.334   3.105 -0.2593 -1.4896 -1.8617
 4469TIP3    H234823   3.688   4.285   3.070 -1.7623  0.7527  0.5674
 4470TIP3   OH234824   1.416   0.717  12.118 -0.0815  0.2800  0.2317
 4470TIP3    H134825   1.380   0.731  12.206 -0.5248 -0.4164  0.1697
 4470TIP3    H234826   1.491   0.659  12.133 -0.3683 -0.1256  0.1195
 4471TIP3   OH234827   5.314   4.319  17.187  0.1883  0.2393  0.2253
 4471TIP3    H134828   5.346   4.242  17.232  0.8248 -1.3028 -2.5956
 4471TIP3    H234829   5.361   4.392  17.226  0.5876 -0.9382  2.0432
 4472TIP3   OH234830   5.767   5.360   6.841 -0.4486  0.2692  0.3159
 4472TIP3    H134831   5.730   5.332   6.925 -0.0824  0.9413  0.7186
 4472TIP3    H234832   5.716   5.313   6.775 -0.3999 -0.6660  0.9274
 4473TIP3   OH234833   1.412   5.477   0.372 -0.1055  1.0335 -0.1523
 4473TIP3    H134834   1.413   5.387   0.404  1.8781  0.9565 -0.2766
 4473TIP3    H234835   1.435   5.530   0.448  0.7856  1.2175 -0.5373
 4474TIP3   OH234836   6.106   4.594   2.400  0.0393 -0.0734  0.1285
 4474TIP3    H134837   6.157   4.633   2.328 -0.3412 -2.1432 -1.3606
 4474TIP3    H234838   6.171   4.578   2.469  0.5590  1.2839 -0.0188
 4475TIP3   OH234839   5.644   3.112  13.647  0.1542  0.6776  0.4531
 4475TIP3    H134840   5.699   3.039  13.620  1.2824  2.0394 -1.1019
 4475TIP3    H234841   5.599   3.139  13.567  1.9738  3.4841  0.2485
 4476TIP3   OH234842   6.604   4.709   2.856  0.1116 -0.4125  0.3108
 4476TIP3    H134843   6.678   4.698   2.796  0.1039 -2.9355  0.6588
 4476TIP3    H234844   6.588   4.622   2.892 -2.1788  0.3182  1.3017
 4477TIP3   OH234845   4.288   3.476  15.996 -0.1796 -0.2963  0.9016
 4477TIP3    H134846   4.253   3.394  16.031 -0.3910 -0.7127 -0.2570
 4477TIP3    H234847   4.221   3.541  16.016 -0.6609 -0.6831  0.5532
 4478TIP3   OH234848   3.149   1.818  16.906  0.2760 -0.1421 -0.0486
 4478TIP3    H134849   3.156   1.892  16.847  1.3348 -0.2017 -0.0244
 4478TIP3    H234850   3.162   1.856  16.993 -1.4322 -0.0283  0.1994
 4479TIP3   OH234851   2.629   1.841  12.897  0.2433  0.5437  0.3572
 4479TIP3    H134852   2.607   1.869  12.809 -0.3551 -0.1193  0.2807
 4479TIP3    H234853   2.554   1.788  12.925  0.3851  0.8060  1.2924
 4480TIP3   OH234854   6.644   6.455   2.860  0.2475 -0.1667  0.3311
 4480TIP3    H134855   6.592   6.474   2.782 -0.2271  1.9371  1.1108
 4480TIP3    H234856   6.689   6.373   2.839 -1.3189 -0.6475 -1.4030
 4481TIP3   OH234857   3.308   3.356  15.237  0.2942  0.6153 -0.3978
 4481TIP3    H134858   3.226   3.397  15.211 -0.0614  0.6688  0.7813
 4481TIP3    H234859   3.285   3.264  15.251 -0.2376  1.1330  2.6724
 4482TIP3   OH234860   5.449   0.025   5.833  0.4954  0.0645  0.1843
 4482TIP3    H134861   5.505   0.067   5.767  0.3733  1.0655  0.6981
 4482TIP3    H234862   5.438   0.092   5.901 -0.5679 -0.4450  0.5319
 4483TIP3   OH234863   0.621   5.572   5.795 -0.0139 -0.5015  0.0172
 4483TIP3    H134864   0.589   5.482   5.802  0.3293 -0.6609 -0.4266
 4483TIP3    H234865   0.711   5.563   5.765 -0.6503  0.0669 -2.2195
 4484TIP3   OH234866   4.260   6.274   5.717 -0.5179  0.1469 -0.3098
 4484TIP3    H134867   4.175   6.304   5.747 -0.0374  0.5260  0.7275
 4484TIP3    H234868   4.242   6.224   5.637 -2.0000 -1.9616  1.2586
 4485TIP3   OH234869   0.120   1.698   2.483  0.2335 -0.2100  0.0127
 4485TIP3    H134870   0.082   1.710   2.570 -0.3173 -0.4360 -0.1949
 4485TIP3    H234871   0.206   1.739   2.489 -0.4878  1.3282  0.1385
 4486TIP3   OH234872   6.506   3.920   1.049  0.3942 -0.3684  0.5556
 4486TIP3    H134873   6.475   3.842   1.095 -1.0128 -0.0298  0.2310
 4486TIP3    H234874   6.598   3.927   1.073  0.1882 -1.3251  1.7201
 4487TIP3   OH234875   6.379   4.611   6.260  0.1301  0.2085  0.2752
 4487TIP3    H134876   6.399   4.671   6.331 -0.6906 -0.1548  0.8263
 4487TIP3    H234877   6.289   4.582   6.277  0.4595 -1.0627 -0.0528
 4488TIP3   OH234878   3.160   2.968   3.850 -0.0387 -0.3677 -0.3029
 4488TIP3    H134879   3.111   2.886   3.842 -1.3067  0.3778 -0.4441
 4488TIP3    H234880   3.216   2.955   3.926 -0.9716 -1.0075  0.2989
 4489TIP3   OH234881   0.310   3.333   0.909  0.6158  0.5818  0.3358
 4489TIP3    H134882   0.348   3.367   0.989  2.3746  2.1342 -1.0713
 4489TIP3    H234883   0.240   3.274   0.938  1.8785  0.2779  2.9826
 4490TIP3   OH234884   3.805   0.421   3.658  0.3602 -0.7115 -1.1355
 4490TIP3    H134885   3.756   0.344   3.688 -1.0984  0.1737 -1.1703
 4490TIP3    H234886   3.788   0.425   3.564  0.3965 -0.3127 -1.1266
 4491TIP3   OH234887   1.466   6.697  16.426 -0.5429 -0.4747 -0.1034
 4491TIP3    H134888   1.502   6.667  16.509  0.5405 -0.0489 -0.3945
 4491TIP3    H234889   1.388   6.747  16.450  0.6125  0.9624  0.8137
 4492TIP3   OH234890   4.525   1.157   5.473  0.1958 -0.0857 -0.8003
 4492TIP3    H134891   4.475   1.190   5.548  0.4927 -2.4986  0.5707
 4492TIP3    H234892   4.607   1.206   5.476  0.6047 -0.8016  1.1166
 4493TIP3   OH234893   2.000   2.217   1.274  0.5203  0.2587  1.0498
 4493TIP3    H134894   2.060   2.233   1.201 -0.2399 -0.1919  0.3230
 4493TIP3    H234895   1.956   2.301   1.287  0.1357  0.1458  0.5085
 4494TIP3   OH234896   4.427   1.148  12.115  0.3683  0.5917  0.8305
 4494TIP3    H134897   4.397   1.118  12.030  0.8348  0.0306  0.8556
 4494TIP3    H234898   4.356   1.124  12.175  2.0180 -3.7791  1.4790
 4495TIP3   OH234899   6.421   0.029  14.438  0.7383 -0.1829  0.1027
 4495TIP3    H134900   6.412  -0.010  14.525  0.5775  0.4636  0.3864
 4495TIP3    H234901   6.421  -0.045  14.378 -2.0450 -0.5488  0.4139
 4496TIP3   OH234902   0.536   2.627   5.391 -0.6116  0.1997 -0.2816
 4496TIP3    H134903   0.463   2.564   5.385  0.9603 -1.8603  1.1110
 4496TIP3    H234904   0.615   2.573   5.385  0.8301  2.1067  0.6158
 4497TIP3   OH234905   3.295   3.651  11.573  0.2104 -0.4116  0.2254
 4497TIP3    H134906   3.310   3.680  11.483  0.4491 -2.2904 -0.3819
 4497TIP3    H234907   3.374   3.677  11.620  0.3165  0.1020 -0.2174
 4498TIP3   OH234908   3.269   1.482  16.183  0.1080 -0.0624  0.3025
 4498TIP3    H134909   3.345   1.426  16.197  1.3737  1.7447  0.9656
 4498TIP3    H234910   3.261   1.532  16.264 -2.3948 -0.8493  0.6365
 4499TIP3   OH234911   0.518   1.007  14.181 -0.2777 -0.4242  0.1319
 4499TIP3    H134912   0.499   0.933  14.123  1.0288 -2.8452  2.5317
 4499TIP3    H234913   0.567   1.068  14.127  2.4652 -3.3561 -1.0255
 4500TIP3   OH234914   5.283   5.238   1.193 -0.3959 -0.1332 -0.1961
 4500TIP3    H134915   5.328   5.161   1.160  0.3377  0.2340 -0.0762
 4500TIP3    H234916   5.341   5.311   1.171 -0.9088  0.3435  0.0082
 4501TIP3   OH234917   3.331   2.187   4.045  0.0876  0.2542  0.5064
 4501TIP3    H134918   3.406   2.237   4.014 -0.5872 -0.4753 -2.7435
 4501TIP3    H234919   3.264   2.254   4.064  0.5487  0.7722  0.3358
 4502TIP3   OH234920   2.028   1.199   0.193 -0.1266  0.2066 -0.1608
 4502TIP3    H134921   2.046   1.112   0.157 -0.8786 -0.2944  0.6333
 4502TIP3    H234922   2.046   1.191   0.286 -0.6913  0.7552  0.0061
 4503TIP3   OH234923   1.252   0.866   0.023  0.5919 -0.0193 -0.0722
 4503TIP3    H134924   1.243   0.951  -0.020  0.5337  0.0844  0.1466
 4503TIP3    H234925   1.232   0.883   0.115 -1.1904 -0.5949 -0.3071
 4504TIP3   OH234926   3.235   3.271  12.907 -0.3785 -0.1954  0.0879
 4504TIP3    H134927   3.265   3.345  12.960 -0.2220 -0.4692  0.3837
 4504TIP3    H234928   3.145   3.255  12.937 -0.1676 -0.5813  0.5342
 4505TIP3   OH234929   6.308   5.931  12.565  0.0721  0.0429  0.0105
 4505TIP3    H134930   6.252   5.926  12.643 -0.2061 -1.6900 -0.2720
 4505TIP3    H234931   6.388   5.973  12.597 -0.5683  0.6389  0.8970
 4506TIP3   OH234932   1.682   0.319  17.013 -0.5929  0.1559  0.0226
 4506TIP3    H134933   1.669   0.226  17.029 -0.5254  0.1783  0.2179
 4506TIP3    H234934   1.749   0.323  16.944  0.3181  0.0695  0.8788
 4507TIP3   OH234935   5.295   0.720  12.711  0.4112 -0.0414 -0.3709
 4507TIP3    H134936   5.274   0.807  12.747  0.6695 -1.2675  3.1940
 4507TIP3    H234937   5.388   0.724  12.690  0.9676  0.0181  1.8438
 4508TIP3   OH234938   2.397   0.879  11.048  0.1937  0.0987 -0.2381
 4508TIP3    H134939   2.316   0.924  11.023 -0.2977 -0.3179  0.5683
 4508TIP3    H234940   2.368   0.807  11.104  1.0614 -0.5915 -0.6549
 4509TIP3   OH234941   5.069   0.348   5.497  0.4118 -0.8042 -0.1074
 4509TIP3    H134942   5.098   0.398   5.420 -0.2792 -0.3830 -0.1058
 4509TIP3    H234943   5.124   0.270   5.497  0.7190 -0.5976 -0.7804
 4510TIP3   OH234944   2.063   1.088   3.852 -0.2281  0.3200 -0.8236
 4510TIP3    H134945   2.048   1.066   3.760  1.5136  1.0235 -1.3136
 4510TIP3    H234946   2.085   1.005   3.894  0.1108  0.1700 -1.2984
 4511TIP3   OH234947   4.867   2.995  11.562  0.0166  0.3280  0.3578
 4511TIP3    H134948   4.935   2.933  11.590  0.1094 -0.2114 -1.0214
 4511TIP3    H234949   4.902   3.034  11.482 -0.1298  2.0438  1.0901
 4512TIP3   OH234950   6.563   1.914   5.397  0.4422  0.2327 -0.0017
 4512TIP3    H134951   6.589   2.006   5.389  1.1888  0.0053 -0.2848
 4512TIP3    H234952   6.646   1.866   5.397  0.0461 -0.4608 -0.1497
 4513TIP3   OH234953   0.242   2.140   6.908 -0.2697 -0.2397 -0.5107
 4513TIP3    H134954   0.280   2.227   6.925 -0.4034  0.2880 -2.5861
 4513TIP3    H234955   0.302   2.079   6.951  1.8497  0.7043 -1.9224
 4514TIP3   OH234956   1.977   3.325   0.974 -0.1953  0.9142  0.3392
 4514TIP3    H134957   1.939   3.383   0.909  0.3245  0.4717 -0.3769
 4514TIP3    H234958   2.051   3.374   1.010 -0.2473  1.0045  0.3224
 4515TIP3   OH234959   3.544   4.607  12.995  0.0258 -0.4637 -0.3634
 4515TIP3    H134960   3.607   4.644  12.933 -0.1533  0.8180  0.1690
 4515TIP3    H234961   3.581   4.523  13.021  1.0325 -0.1633 -0.7890
 4516TIP3   OH234962   4.642   5.634   5.929 -0.1777 -0.1274 -0.0145
 4516TIP3    H134963   4.687   5.664   6.007 -2.0555  1.0749  0.6652
 4516TIP3    H234964   4.587   5.561   5.959 -3.0189  2.0571  0.5167
 4517TIP3   OH234965   4.899   6.005  14.424 -0.3305  0.0102  0.5342
 4517TIP3    H134966   4.945   6.083  14.456  0.1280 -0.2905  0.6189
 4517TIP3    H234967   4.949   5.977  14.348 -0.8920  0.1915  0.0924
 4518TIP3   OH234968   0.259   6.334   0.390  0.1000 -0.2613 -0.0074
 4518TIP3    H134969   0.298   6.368   0.310  0.8172 -0.2848  0.3226
 4518TIP3    H234970   0.187   6.394   0.409  0.5578  0.3355 -0.1244
 4519TIP3   OH234971   1.876   4.284   3.985 -0.1780 -0.0040  0.2630
 4519TIP3    H134972   1.830   4.368   3.981 -0.3000 -0.0971 -0.6024
 4519TIP3    H234973   1.921   4.285   4.069 -0.1767  0.9303  0.2635
 4520TIP3   OH234974   5.972   5.589   0.301 -0.1628  0.3173  0.0703
 4520TIP3    H134975   5.886   5.624   0.324 -0.6057  0.7973 -2.1216
 4520TIP3    H234976   6.018   5.664   0.262  1.2846  0.0719  1.2369
 4521TIP3   OH234977   0.097   4.744   4.828 -0.1224  0.4048 -0.0596
 4521TIP3    H134978   0.146   4.751   4.910 -2.1305 -1.2929  1.3977
 4521TIP3    H234979   0.091   4.650   4.812 -3.9165  0.3553  0.6406
 4522TIP3   OH234980   0.221   6.684   1.652  0.9191 -0.1574  0.0382
 4522TIP3    H134981   0.274   6.705   1.575  3.0670  1.4447  1.8276
 4522TIP3    H234982   0.252   6.598   1.680  1.4878  0.1080  0.2184
 4523TIP3   OH234983   0.048   0.816  14.621  0.1053  0.0203 -0.2091
 4523TIP3    H134984   0.135   0.856  14.619  0.9164 -1.6900 -1.2622
 4523TIP3    H234985   0.064   0.723  14.608 -1.9674 -0.2131 -1.4951
 4524TIP3   OH234986   2.257   2.639   2.987  0.2239  0.2449  0.3148
 4524TIP3    H134987   2.212   2.609   3.066 -1.5865  1.2385 -0.2721
 4524TIP3    H234988   2.338   2.589   2.985 -0.2677 -0.7245  2.1154
 4525TIP3   OH234989   3.094   3.984   1.846 -0.4369 -0.2629 -0.2619
 4525TIP3    H134990   3.159   3.974   1.915 -0.8053  0.4582  0.1962
 4525TIP3    H234991   3.088   3.897   1.807  1.0294 -0.2775 -0.5361
 4526TIP3   OH234992   6.379   3.619   3.416 -1.0534  0.1671 -0.2798
 4526TIP3    H134993   6.458   3.580   3.379 -0.5418  1.1260 -0.2082
 4526TIP3    H234994   6.333   3.656   3.341  0.0722  2.2713 -0.0157
 4527TIP3   OH234995   3.659   6.500  15.959 -0.1334 -0.7067 -0.4384
 4527TIP3    H134996   3.567   6.488  15.933 -0.6614 -1.2619  1.5268
 4527TIP3    H234997   3.690   6.571  15.902 -1.9413 -0.1132 -0.7771
 4528TIP3   OH234998   1.252   1.363  17.070  0.2629 -0.0276  0.2038
 4528TIP3    H134999   1.195   1.360  17.147 -0.5726  1.6786 -0.2871
 4528TIP3    H235000   1.339   1.382  17.105  0.0369 -0.0513  0.7915
 4529TIP3   OH235001   4.911   4.984   2.053 -0.2933  0.2312  0.2995
 4529TIP3    H135002   4.835   4.957   2.104  0.1157  0.0563  0.8345
 4529TIP3    H235003   4.905   5.080   2.049 -0.6210  0.2066  0.2056
 4530TIP3   OH235004   0.738   0.208  15.972 -0.1748  0.3268  0.3102
 4530TIP3    H135005   0.746   0.291  16.018 -1.2947  0.0024  1.1566
 4530TIP3    H235006   0.669   0.223  15.907  1.2069  0.7018 -1.1475
 4531TIP3   OH235007   1.746   1.644  13.495 -0.2350 -0.4382 -0.1988
 4531TIP3    H135008   1.792   1.576  13.445 -0.3313 -2.0484  1.8181
 4531TIP3    H235009   1.654   1.623  13.486 -0.4966  1.1087 -1.8308
 4532TIP3   OH235010   5.385   1.579  10.717  0.2169  0.3004  0.5490
 4532TIP3    H135011   5.355   1.667  10.740  1.3573  0.7946  0.2231
 4532TIP3    H235012   5.314   1.543  10.664 -1.6228 -0.1533  3.1281
 4533TIP3   OH235013   2.503   1.452  13.900 -0.8239 -0.3265 -0.1435
 4533TIP3    H135014   2.412   1.480  13.893 -0.6318  1.7576  3.6771
 4533TIP3    H235015   2.555   1.529  13.877 -0.0893 -0.5430  0.7204
 4534TIP3   OH235016   6.553   5.119   4.481  0.5769 -0.0148  0.4433
 4534TIP3    H135017   6.459   5.123   4.464  0.3536 -0.2828  1.5274
 4534TIP3    H235018   6.594   5.146   4.398 -0.4597  0.9431  0.2136
 4535TIP3   OH235019   0.659   6.362  16.502 -0.1617 -0.0823  0.2758
 4535TIP3    H135020   0.694   6.364  16.591 -0.8677 -0.3523  0.5625
 4535TIP3    H235021   0.734   6.385  16.447  0.0951  0.8442  0.9896
 4536TIP3   OH235022   2.207   6.350   1.301  0.2894  0.3677  0.4970
 4536TIP3    H135023   2.224   6.403   1.223  0.6850  1.2779  1.1840
 4536TIP3    H235024   2.278   6.372   1.362  1.1069 -1.7693  0.4204
 4537TIP3   OH235025   2.518   6.294   5.892 -0.0334  0.1520 -0.0210
 4537TIP3    H135026   2.484   6.231   5.829  1.9411  0.1336 -1.1366
 4537TIP3    H235027   2.603   6.258   5.918  1.6596  2.7994 -1.4982
 4538TIP3   OH235028   5.712   6.291   5.436 -0.7523  0.1751  0.0634
 4538TIP3    H135029   5.640   6.229   5.422 -1.2578 -0.6409  4.7343
 4538TIP3    H235030   5.791   6.240   5.424 -0.9382  0.2219 -1.7273
 4539TIP3   OH235031   1.776   0.661   1.942 -0.1979  0.1743 -0.0768
 4539TIP3    H135032   1.812   0.670   1.854  2.3400 -2.2541  0.5728
 4539TIP3    H235033   1.806   0.739   1.988 -1.0292  1.1611 -1.1443
 4540TIP3   OH235034   3.553   2.504   1.002 -0.1126  0.2233  0.0987
 4540TIP3    H135035   3.531   2.456   1.081  0.7030  1.9422  1.4398
 4540TIP3    H235036   3.556   2.596   1.030 -0.0933  0.9063 -1.9901
 4541TIP3   OH235037   6.641   0.559   5.199  0.3197  0.3311  0.5337
 4541TIP3    H135038   6.597   0.484   5.239  0.2792  0.0094 -0.0986
 4541TIP3    H235039   6.611   0.634   5.250 -1.0226  0.1288  0.0844
 4542TIP3   OH235040   1.830   4.438   0.253  0.4076  0.1740 -0.3260
 4542TIP3    H135041   1.791   4.491   0.323  0.3903 -0.2465 -0.0102
 4542TIP3    H235042   1.816   4.489   0.174 -4.3372 -1.6044 -0.9396
 4543TIP3   OH235043   4.760   4.741   3.635 -0.2540 -0.1696  0.5029
 4543TIP3    H135044   4.672   4.708   3.652 -0.4704  1.2229  2.4053
 4543TIP3    H235045   4.766   4.821   3.687  2.0537 -0.0792  0.2014
 4544TIP3   OH235046   6.332   2.418  17.016 -0.0102  0.3906  0.2605
 4544TIP3    H135047   6.342   2.503  16.973  2.1999  0.3675  0.6178
 4544TIP3    H235048   6.341   2.354  16.946 -1.2080  0.4143  0.0648
 4545TIP3   OH235049   4.759   4.637   4.398  0.1810 -0.0575 -0.2735
 4545TIP3    H135050   4.718   4.551   4.408  2.9366 -1.7964 -2.4975
 4545TIP3    H235051   4.793   4.658   4.485 -0.7872 -1.0652  0.3753
 4546TIP3   OH235052   6.343   1.148   2.880  0.3302  0.2242 -0.0177
 4546TIP3    H135053   6.298   1.064   2.867  0.7481  0.1663 -1.2257
 4546TIP3    H235054   6.436   1.127   2.871  0.4282  0.8489 -0.5272
 4547TIP3   OH235055   5.030   3.957   2.374  0.1831 -0.0926  0.6977
 4547TIP3    H135056   5.097   4.025   2.382  0.0835  0.0698  0.1510
 4547TIP3    H235057   5.078   3.875   2.383  0.3542  0.0368  0.9902
 4548TIP3   OH235058   0.689   2.693  11.832 -0.1939 -0.2500 -0.2757
 4548TIP3    H135059   0.761   2.680  11.893  0.6274  2.2957 -0.5524
 4548TIP3    H235060   0.610   2.688  11.886  0.4946  1.7444  1.0241
 4549TIP3   OH235061   0.427   2.847   6.334 -0.2221 -0.1811  0.6855
 4549TIP3    H135062   0.416   2.797   6.253  1.8195 -1.0153  0.8474
 4549TIP3    H235063   0.475   2.788   6.392 -1.8160  0.3120  2.6272
 4550TIP3   OH235064   6.359   2.705   1.563 -0.3651 -0.2896  0.8686
 4550TIP3    H135065   6.437   2.756   1.544 -0.5748 -0.2341  0.1166
 4550TIP3    H235066   6.380   2.657   1.643 -0.0038  0.6255  1.3389
 4551TIP3   OH235067   4.382   0.042  16.849  0.7195  0.1864  0.2941
 4551TIP3    H135068   4.449   0.086  16.902  0.7877  2.9549 -1.8741
 4551TIP3    H235069   4.305   0.098  16.855  0.2622 -0.2101 -1.3210
 4552TIP3   OH235070   0.160   3.915  14.767  0.1983  1.0802 -0.3276
 4552TIP3    H135071   0.120   3.999  14.792 -1.1752  0.9295 -1.8650
 4552TIP3    H235072   0.227   3.939  14.703  0.2488  1.0449 -0.2881
 4553TIP3   OH235073   4.007   3.034   2.330 -0.0946 -0.2817  0.7672
 4553TIP3    H135074   4.069   3.103   2.307  0.6691 -1.1743  0.0562
 4553TIP3    H235075   3.977   2.999   2.246 -1.4405  0.0009  1.0991
 4554TIP3   OH235076   2.758   1.046   2.523  0.0183 -0.2384  0.2060
 4554TIP3    H135077   2.663   1.052   2.533 -0.0253  0.8419 -0.6327
 4554TIP3    H235078   2.783   1.130   2.485  1.1423 -1.0280 -0.8615
 4555TIP3   OH235079   4.112   3.424   3.259  0.2654 -0.6846 -0.2377
 4555TIP3    H135080   4.051   3.459   3.194  0.0106 -1.3954 -0.3948
 4555TIP3    H235081   4.172   3.496   3.278  0.9781 -0.7551 -2.0281
 4556TIP3   OH235082   0.416   2.410   0.864  0.1036 -0.0483  0.2884
 4556TIP3    H135083   0.379   2.462   0.793 -0.6653 -1.3709 -0.3286
 4556TIP3    H235084   0.348   2.346   0.885  1.2522 -1.2432  0.5272
 4557TIP3   OH235085   3.001   6.127   5.684  0.0994  0.3468 -0.5788
 4557TIP3    H135086   2.928   6.071   5.658 -0.4012 -0.5162  2.2762
 4557TIP3    H235087   3.079   6.074   5.666 -0.2150 -0.1960 -0.3729
 4558TIP3   OH235088   2.162   6.459   0.263  0.0950  0.1700  0.3119
 4558TIP3    H135089   2.125   6.543   0.292 -1.2609 -0.3639  0.1773
 4558TIP3    H235090   2.188   6.416   0.344 -0.5778  0.1057  0.5039
 4559TIP3   OH235091   4.077   4.782  16.689  0.4289 -1.1719 -0.7888
 4559TIP3    H135092   4.145   4.750  16.748 -0.8819 -1.1163  0.8289
 4559TIP3    H235093   4.124   4.826  16.619  2.0500 -1.1381  0.2827
 4560TIP3   OH235094   6.732   0.362   0.710  0.3525 -0.1717  0.0367
 4560TIP3    H135095   6.673   0.382   0.637 -0.5003  1.7952  1.1766
 4560TIP3    H235096   6.681   0.305   0.767  0.1201  0.2715  0.2730
 4561TIP3   OH235097   6.550   2.829   1.365 -0.4113  0.0698 -0.0053
 4561TIP3    H135098   6.605   2.762   1.325  1.2329  1.7038 -0.6491
 4561TIP3    H235099   6.605   2.866   1.434 -1.7292 -0.0109  1.1245
 4562TIP3   OH235100   4.830   4.962   3.791  0.4074 -0.1155  0.2948
 4562TIP3    H135101   4.924   4.949   3.799  0.2101 -2.7050 -0.7883
 4562TIP3    H235102   4.791   4.894   3.845 -0.8185 -0.4728 -0.9891
 4563TIP3   OH235103   3.929   2.929   5.374  0.5081 -0.4958  1.0038
 4563TIP3    H135104   3.913   2.950   5.466 -0.7814 -2.1426  1.1861
 4563TIP3    H235105   3.884   2.999   5.325 -0.4543 -0.6854  1.6060
 4564TIP3   OH235106   0.835   1.041   2.253  0.1940 -0.3653  0.2802
 4564TIP3    H135107   0.837   1.079   2.341 -0.3664 -0.1950  0.2245
 4564TIP3    H235108   0.914   0.988   2.248 -0.0096 -0.7519  1.0586
 4565TIP3   OH235109   2.120   4.316   5.713  0.1311  0.8868 -0.0963
 4565TIP3    H135110   2.118   4.411   5.700  1.5719  1.0923  0.9847
 4565TIP3    H235111   2.192   4.286   5.658 -1.7226  0.0589 -2.2280
 4566TIP3   OH235112   4.109   6.667   5.060  0.1445 -0.0319  0.1265
 4566TIP3    H135113   4.200   6.644   5.079  0.2349  0.4555  0.2952
 4566TIP3    H235114   4.110   6.762   5.048 -0.0247 -0.2132 -1.6552
 4567TIP3   OH235115   5.157   2.407  13.357 -0.1287  0.2614 -0.1496
 4567TIP3    H135116   5.091   2.476  13.366 -0.8665 -0.5368  0.8414
 4567TIP3    H235117   5.137   2.365  13.274 -0.1137  0.7832 -0.4224
 4568TIP3   OH235118   2.634   0.821  13.119 -0.5643 -0.7788  0.0238
 4568TIP3    H135119   2.612   0.782  13.034  1.1605 -0.0841 -0.7802
 4568TIP3    H235120   2.717   0.779  13.144  1.5005  2.4142 -0.9834
 4569TIP3   OH235121   5.382   6.404   2.994 -0.4029 -0.1978 -0.2625
 4569TIP3    H135122   5.292   6.407   3.024 -0.3334 -0.7784  0.0184
 4569TIP3    H235123   5.404   6.495   2.973 -1.8850 -0.3627 -2.8663
 4570TIP3   OH235124   4.826   2.186   1.472 -0.6639  0.1518 -0.5124
 4570TIP3    H135125   4.888   2.124   1.433 -2.4852 -1.8618 -0.3482
 4570TIP3    H235126   4.870   2.271   1.464  1.9629 -1.1085 -0.7152
 4571TIP3   OH235127   3.314   5.928   4.541 -0.4183 -0.5491  0.3231
 4571TIP3    H135128   3.403   5.963   4.544 -0.0451 -1.2804 -1.2788
 4571TIP3    H235129   3.323   5.837   4.569 -0.5961 -0.7183 -0.1604
 4572TIP3   OH235130   0.836   0.527   4.038  0.1641  0.0518 -0.3012
 4572TIP3    H135131   0.862   0.467   4.107 -1.8023 -0.5799 -0.0511
 4572TIP3    H235132   0.869   0.487   3.957  1.3016  0.1136  0.1152
 4573TIP3   OH235133   1.407   4.301   1.995  0.0808 -0.3430  0.1138
 4573TIP3    H135134   1.313   4.281   2.000 -0.2335  1.0815  0.2951
 4573TIP3    H235135   1.413   4.375   1.934  0.8194  0.9929  1.7054
 4574TIP3   OH235136   0.163   0.997  15.290  1.0024 -0.0328 -0.8710
 4574TIP3    H135137   0.128   0.995  15.201  0.5908 -0.1372 -0.7097
 4574TIP3    H235138   0.111   1.064  15.335  0.0920 -1.0994 -0.2610
 4575TIP3   OH235139   6.275   1.436  12.757 -0.1338 -0.1291  0.4994
 4575TIP3    H135140   6.324   1.498  12.812  1.6313  0.3007 -1.4103
 4575TIP3    H235141   6.224   1.492  12.699 -1.7698 -0.5782  1.4396
 4576TIP3   OH235142   0.253   5.308  11.692 -0.5016 -0.7618  0.6988
 4576TIP3    H135143   0.294   5.322  11.606 -0.7682  0.1366  0.7067
 4576TIP3    H235144   0.184   5.374  11.696 -0.6357 -0.9478  1.5210
 4577TIP3   OH235145   2.201   2.334  11.166  0.2239  0.2761 -0.3044
 4577TIP3    H135146   2.260   2.283  11.111 -0.3942  1.0370 -1.7283
 4577TIP3    H235147   2.116   2.292  11.155 -0.0462  0.8674 -0.5121
 4578TIP3   OH235148   1.434   3.473   1.490  0.1466 -0.2202  0.1583
 4578TIP3    H135149   1.502   3.526   1.449  0.2441 -0.2530  0.2771
 4578TIP3    H235150   1.474   3.439   1.570  0.7319 -1.9734 -0.8198
 4579TIP3   OH235151   4.582   4.721   1.192 -0.2378 -0.2729 -0.3586
 4579TIP3    H135152   4.634   4.798   1.167 -1.2304  0.6793  0.3987
 4579TIP3    H235153   4.619   4.694   1.277 -0.5834  0.0539 -0.0976
 4580TIP3   OH235154   2.150   4.244  14.669 -0.3753  0.3755  0.2892
 4580TIP3    H135155   2.158   4.294  14.588 -0.8475 -0.6378 -0.3880
 4580TIP3    H235156   2.056   4.227  14.679 -0.1186 -1.5667 -0.2367
 4581TIP3   OH235157   2.656   2.601   1.032 -0.2648  0.2949  0.2164
 4581TIP3    H135158   2.746   2.611   1.000 -0.2477  1.9533  0.6912
 4581TIP3    H235159   2.643   2.507   1.039  0.4240 -0.0799 -2.6634
 4582TIP3   OH235160   6.307   1.097  17.006 -0.5137 -0.0080 -0.5234
 4582TIP3    H135161   6.249   1.035  17.049  0.4469 -0.0597  0.7490
 4582TIP3    H235162   6.324   1.164  17.072 -0.1612  0.6881 -1.3071
 4583TIP3   OH235163   5.086   4.757  12.547 -0.2737  0.6832 -0.3718
 4583TIP3    H135164   5.125   4.671  12.534  0.9312  1.4230 -2.0901
 4583TIP3    H235165   4.996   4.747  12.516 -0.8611 -0.4902  1.5749
 4584TIP3   OH235166   0.034   4.767   0.586 -0.0047 -0.1106  0.3214
 4584TIP3    H135167   0.002   4.737   0.500 -1.0274  1.4042  0.1404
 4584TIP3    H235168  -0.007   4.852   0.599 -0.4570 -0.6199  2.6737
 4585TIP3   OH235169   0.130   5.735   0.494 -0.0815  0.1884  0.2540
 4585TIP3    H135170   0.185   5.685   0.554 -0.2224 -0.4774 -0.1600
 4585TIP3    H235171   0.041   5.708   0.515 -0.1046 -0.4546 -0.5897
 4586TIP3   OH235172   2.732   2.590   0.116  0.3391 -0.1566 -0.0832
 4586TIP3    H135173   2.669   2.518   0.106  0.7186 -0.2334 -2.8860
 4586TIP3    H235174   2.784   2.586   0.035  1.2140  2.4730  0.2772
 4587TIP3   OH235175   0.019   1.674   5.346  0.1991  0.5195  0.1665
 4587TIP3    H135176   0.008   1.590   5.390 -0.0349  1.9636  3.1005
 4587TIP3    H235177   0.112   1.681   5.328  0.8032  0.9286  2.9752
 4588TIP3   OH235178   6.326   3.243   2.002 -0.2309 -0.0296 -0.0512
 4588TIP3    H135179   6.261   3.272   1.937 -1.6320  0.4117  1.4630
 4588TIP3    H235180   6.273   3.218   2.078  1.2621 -1.9724  0.4146
 4589TIP3   OH235181   3.731   3.506  13.088 -0.3315 -0.3980 -0.1251
 4589TIP3    H135182   3.771   3.588  13.118 -1.6787  0.2691 -0.0866
 4589TIP3    H235183   3.804   3.456  13.052  0.3395  1.3100 -1.2443
 4590TIP3   OH235184   0.533   0.500   4.987  0.0355 -0.4324  0.5742
 4590TIP3    H135185   0.450   0.525   5.028  0.6411 -0.2734  1.7546
 4590TIP3    H235186   0.581   0.455   5.056  0.6981 -1.0627 -0.2738
 4591TIP3   OH235187   0.910   4.272   0.535  0.2489 -0.5301 -0.5331
 4591TIP3    H135188   0.944   4.296   0.448 -0.4947  3.0128  0.0130
 4591TIP3    H235189   0.973   4.309   0.596 -0.5704 -0.7837  0.4768
 4592TIP3   OH235190   4.935   6.352   0.932  0.4546 -0.1872 -0.3103
 4592TIP3    H135191   5.019   6.350   0.886  0.4377 -0.1115 -0.3444
 4592TIP3    H235192   4.928   6.265   0.972  0.9723  0.1064  0.4556
 4593TIP3   OH235193   2.248   1.525  13.849  0.2634 -0.3374  0.0971
 4593TIP3    H135194   2.158   1.495  13.864 -0.2719  1.4823  0.9085
 4593TIP3    H235195   2.238   1.604  13.795  1.5864 -1.4982 -1.9795
 4594TIP3   OH235196   6.208   4.528   1.724  0.4272  0.2064 -0.0229
 4594TIP3    H135197   6.304   4.523   1.721  0.3575 -0.8991 -1.4775
 4594TIP3    H235198   6.181   4.444   1.760 -0.0088  0.2454 -0.2510
 4595TIP3   OH235199   3.485   2.689   0.673 -0.1954 -0.6663 -0.1803
 4595TIP3    H135200   3.564   2.635   0.679  0.4068  0.2906  0.7596
 4595TIP3    H235201   3.507   2.770   0.719 -1.7298 -0.3782  0.1099
 4596TIP3   OH235202   2.740   6.307  13.325 -0.2813 -0.4518 -0.3803
 4596TIP3    H135203   2.651   6.312  13.290 -0.5008  0.2067  0.2533
 4596TIP3    H235204   2.750   6.386  13.378  0.1711 -1.2362  0.7398
 4597TIP3   OH235205   2.827   6.595  17.193  0.0947 -0.5145 -0.4226
 4597TIP3    H135206   2.778   6.656  17.137  2.0366  0.3997 -1.2362
 4597TIP3    H235207   2.769   6.520  17.204 -2.0908  1.1374 -0.0193
 4598TIP3   OH235208   0.185   0.913   1.339  0.0628  0.0426  0.3082
 4598TIP3    H135209   0.136   0.866   1.407  0.2926 -1.2705 -0.3954
 4598TIP3    H235210   0.274   0.877   1.345  0.1013 -0.0291 -0.6279
 4599TIP3   OH235211   5.560   2.701  12.229  0.3087 -0.2879  0.5980
 4599TIP3    H135212   5.484   2.702  12.171 -0.0107 -0.1263  1.0112
 4599TIP3    H235213   5.550   2.780  12.283  1.1558  0.1297  0.1649
 4600TIP3   OH235214   5.570   0.310  15.844  0.9306 -0.0740  0.2539
 4600TIP3    H135215   5.508   0.282  15.776 -0.4446 -0.8420  1.7588
 4600TIP3    H235216   5.545   0.259  15.921  3.4657 -0.3785  0.9323
 4601TIP3   OH235217   5.603   2.442  14.001 -0.0792 -0.4513 -0.6593
 4601TIP3    H135218   5.595   2.515  14.063 -1.8128 -1.0181 -0.1650
 4601TIP3    H235219   5.637   2.369  14.054  1.8184 -0.0170 -1.1906
 4602TIP3   OH235220   1.524   2.761  15.399  0.1072  0.1625 -0.0154
 4602TIP3    H135221   1.562   2.732  15.316  1.0174 -0.3423  0.5683
 4602TIP3    H235222   1.429   2.758  15.384  0.2544 -0.2205 -0.9350
 4603TIP3   OH235223   2.313   4.557  14.115 -0.2203 -0.2027  0.1554
 4603TIP3    H135224   2.349   4.644  14.130  1.1767 -0.7665  0.1844
 4603TIP3    H235225   2.321   4.512  14.199  3.1819 -1.7756 -0.8701
 4604TIP3   OH235226   4.927   0.908  16.663 -0.3859 -0.0739  0.1428
 4604TIP3    H135227   4.876   0.947  16.592  0.0681  1.9233  0.8483
 4604TIP3    H235228   4.954   0.823  16.629 -1.5514  0.1465 -1.4392
 4605TIP3   OH235229   6.692   2.816  11.153 -0.0989  0.3568  0.3738
 4605TIP3    H135230   6.728   2.750  11.212 -0.3410  0.0292  0.1541
 4605TIP3    H235231   6.683   2.772  11.069  0.0323  0.7595  0.1473
 4606TIP3   OH235232   3.575   4.322  14.208  0.0348 -0.2477 -0.7138
 4606TIP3    H135233   3.586   4.352  14.118 -0.6756 -0.0898 -0.7542
 4606TIP3    H235234   3.611   4.392  14.262  1.5704 -0.8596 -0.8892
 4607TIP3   OH235235   5.325   4.317  11.641 -0.1583  0.1408  0.0476
 4607TIP3    H135236   5.246   4.273  11.610  0.7607 -0.6532 -1.2777
 4607TIP3    H235237   5.394   4.287  11.582  0.9690  1.5227  0.5939
 4608TIP3   OH235238   4.386   4.603  12.154  0.0806 -0.0040  0.1023
 4608TIP3    H135239   4.405   4.518  12.192 -0.7294  0.5910  1.9575
 4608TIP3    H235240   4.323   4.585  12.085  0.2957 -0.9614  0.1435
 4609TIP3   OH235241   4.200   3.420   3.873 -0.3398  0.2751 -0.2112
 4609TIP3    H135242   4.118   3.394   3.831 -0.1611 -0.7362  0.0472
 4609TIP3    H235243   4.261   3.433   3.800 -0.6580  0.8284 -0.3894
 4610TIP3   OH235244   1.546   5.012  14.979  0.2427  0.7326 -0.1721
 4610TIP3    H135245   1.528   5.023  15.072  1.5061  0.5323  0.1091
 4610TIP3    H235246   1.528   4.920  14.962  0.3635  0.6828 -0.0366
 4611TIP3   OH235247   4.515   5.293   0.044  0.1197  0.0676  0.6778
 4611TIP3    H135248   4.456   5.222   0.066 -0.6600  0.0262 -1.3927
 4611TIP3    H235249   4.602   5.259   0.065 -0.2518 -1.4291 -0.0758
 4612TIP3   OH235250   0.241   6.149  16.704 -0.2399 -0.7850  0.3654
 4612TIP3    H135251   0.248   6.197  16.622  0.1457 -1.5718 -0.0801
 4612TIP3    H235252   0.148   6.127  16.711 -0.0906 -1.7965 -0.5160
 4613TIP3   OH235253   1.110   6.414   5.019 -0.4216  0.4630 -0.8071
 4613TIP3    H135254   1.039   6.384   4.963 -1.0017 -2.4462  1.2590
 4613TIP3    H235255   1.071   6.422   5.106  1.3179  0.8257 -0.0149
 4614TIP3   OH235256   0.782   2.787   2.793  0.0336  0.2438  0.0128
 4614TIP3    H135257   0.857   2.729   2.800  0.0792  0.4266  1.3362
 4614TIP3    H235258   0.748   2.772   2.705  1.1629 -0.3894 -0.3369
 4615TIP3   OH235259   1.111   1.890  12.469  0.2884 -0.2116  0.3016
 4615TIP3    H135260   1.116   1.941  12.551  2.2071 -2.3156  1.6106
 4615TIP3    H235261   1.034   1.924  12.424  0.1182  2.1745  2.1947
 4616TIP3   OH235262   0.086   1.314   4.875 -0.3702 -0.3267 -0.2855
 4616TIP3    H135263   0.136   1.242   4.914 -0.7364 -0.5066 -0.1435
 4616TIP3    H235264   0.036   1.351   4.948 -0.0209  0.2074 -0.3172
 4617TIP3   OH235265   6.749   2.248   5.129  0.1483 -0.1817  0.4571
 4617TIP3    H135266   6.660   2.254   5.095  0.0783 -0.3325  0.6109
 4617TIP3    H235267   6.788   2.174   5.082 -0.1313 -0.7525  1.1058
 4618TIP3   OH235268   1.201   1.225   2.265 -0.3331  0.1950  0.5865
 4618TIP3    H135269   1.217   1.307   2.218  1.4894 -1.2126 -1.4409
 4618TIP3    H235270   1.172   1.164   2.198  0.6720 -1.4671  1.5937
 4619TIP3   OH235271   4.556   4.398  16.942  0.1344  0.2924 -0.4439
 4619TIP3    H135272   4.649   4.414  16.960  0.4608 -0.9659 -0.9054
 4619TIP3    H235273   4.555   4.344  16.863 -0.8589 -1.4322  0.6572
 4620TIP3   OH235274   0.345   1.206   0.605  0.5376  0.2790  0.0457
 4620TIP3    H135275   0.303   1.155   0.674  0.5242  0.5616  0.2478
 4620TIP3    H235276   0.275   1.259   0.568  0.4192 -0.3195 -0.5984
 4621TIP3   OH235277   5.777   0.186   4.034 -0.4346 -0.1025  0.3206
 4621TIP3    H135278   5.787   0.133   3.955 -0.1149  0.0146  0.2813
 4621TIP3    H235279   5.752   0.124   4.102  2.3657 -0.7637  0.8733
 4622TIP3   OH235280   1.892   0.361  15.499 -0.4937  0.6500  0.3154
 4622TIP3    H135281   1.931   0.442  15.466  0.3480  0.3119  0.4563
 4622TIP3    H235282   1.828   0.337  15.432 -2.4520  2.6225  1.3268
 4623TIP3   OH235283   5.189   0.183  17.219 -0.0175 -0.1942 -0.4689
 4623TIP3    H135284   5.194   0.208  17.127  0.3338 -0.5354 -0.5451
 4623TIP3    H235285   5.209   0.090  17.220 -1.9188 -0.6462 -0.2650
 4624TIP3   OH235286   4.415   3.360   2.142  0.1322 -0.2016  0.4321
 4624TIP3    H135287   4.505   3.353   2.110 -0.7245 -0.4999 -2.2158
 4624TIP3    H235288   4.418   3.424   2.212  2.2653  0.5219 -0.2598
 4625TIP3   OH235289   5.994   3.592   6.641 -0.1590 -0.7548  0.3088
 4625TIP3    H135290   6.043   3.647   6.702  0.4402 -0.6555 -0.2474
 4625TIP3    H235291   5.902   3.606   6.664 -0.0542  0.8964 -0.1564
 4626TIP3   OH235292   3.841   3.875  12.778 -0.1889 -0.0182 -0.2579
 4626TIP3    H135293   3.750   3.874  12.807 -0.2187  1.6676 -0.1679
 4626TIP3    H235294   3.881   3.799  12.820 -1.6890 -1.1818 -0.8351
 4627TIP3   OH235295   2.247   1.356  14.521 -0.0099 -0.1806  0.2179
 4627TIP3    H135296   2.185   1.420  14.557  0.7308  0.6750  0.0299
 4627TIP3    H235297   2.237   1.364  14.426  0.4816  0.0653  0.1850
 4628TIP3   OH235298   2.105   4.532   0.160  0.1481 -0.6420 -0.5638
 4628TIP3    H135299   2.132   4.603   0.219  0.1108 -1.2999  0.2565
 4628TIP3    H235300   2.027   4.495   0.200 -1.2233  0.3115 -2.1847
 4629TIP3   OH235301   2.951   0.148   1.055 -0.0006 -0.8365 -0.2714
 4629TIP3    H135302   2.981   0.159   0.964  0.3123 -0.5796 -0.1380
 4629TIP3    H235303   2.858   0.125   1.046 -0.2299  0.1673 -0.6323
 4630TIP3   OH235304   4.009   0.457  11.022 -0.0889 -0.1329 -0.7254
 4630TIP3    H135305   4.043   0.500  11.101 -0.0153 -1.3918 -0.0466
 4630TIP3    H235306   3.976   0.529  10.968 -1.3564  0.6956  1.0217
 4631TIP3   OH235307   1.753   6.031   1.513  0.4061  0.0816  0.0576
 4631TIP3    H135308   1.811   5.954   1.518 -1.2285 -1.3031 -1.3479
 4631TIP3    H235309   1.771   6.069   1.427  1.5740  1.6562  0.9404
 4632TIP3   OH235310   1.502   2.201  14.930  0.3789 -0.2335 -0.7777
 4632TIP3    H135311   1.501   2.113  14.967  0.8542 -0.1467 -0.5590
 4632TIP3    H235312   1.474   2.258  15.002  2.0056  0.0222 -0.3035
 4633TIP3   OH235313   1.665   2.716  16.965 -0.6804 -0.9513  1.1163
 4633TIP3    H135314   1.691   2.637  16.917  0.6073 -0.7861  1.5058
 4633TIP3    H235315   1.740   2.775  16.957 -1.6864  0.3234  0.6841
 4634TIP3   OH235316   1.855   5.046  17.285  0.3649  0.3583 -0.7816
 4634TIP3    H135317   1.825   5.129  17.320  1.7072  0.8006 -0.6460
 4634TIP3    H235318   1.775   4.996  17.270 -0.4812  1.7781 -1.1588
 4635TIP3   OH235319   1.569   0.851  12.926  0.0161 -0.2842  0.5333
 4635TIP3    H135320   1.482   0.837  12.963 -0.0243  1.8992  1.4145
 4635TIP3    H235321   1.622   0.881  13.000  1.2352 -0.5234 -0.2119
 4636TIP3   OH235322   6.275   3.638   4.551  0.2313 -0.2948 -0.4708
 4636TIP3    H135323   6.353   3.656   4.603  1.5000 -0.8998 -2.0739
 4636TIP3    H235324   6.288   3.549   4.518 -1.2621 -0.4947 -0.5844
 4637TIP3   OH235325   6.320   6.187   0.497 -0.4596  0.0527 -0.0931
 4637TIP3    H135326   6.394   6.209   0.553  0.0724 -2.7402  0.4752
 4637TIP3    H235327   6.317   6.257   0.432  2.8221  0.1877 -0.2560
 4638TIP3   OH235328   6.733   2.505   0.491 -0.3023 -0.6340  0.0491
 4638TIP3    H135329   6.680   2.465   0.423  0.1381 -1.8840  0.4074
 4638TIP3    H235330   6.818   2.461   0.484  1.3592  2.5595 -1.7147
 4639TIP3   OH235331   4.938   4.634  11.434  0.2872 -0.2773  0.0159
 4639TIP3    H135332   4.983   4.611  11.352 -1.2542  0.1566 -1.0058
 4639TIP3    H235333   4.927   4.550  11.479  1.9495 -0.4104  0.2493
 4640TIP3   OH235334   5.105   3.670   1.177 -0.2001  0.1822 -0.2308
 4640TIP3    H135335   5.028   3.641   1.128 -0.9536  2.6125 -0.6394
 4640TIP3    H235336   5.071   3.692   1.264  0.0923  0.8583 -0.2804
 4641TIP3   OH235337   0.710   5.972  11.737 -0.1030 -0.1549 -0.1972
 4641TIP3    H135338   0.748   6.011  11.659  2.1092  0.4919  1.1090
 4641TIP3    H235339   0.619   5.955  11.713  0.2326  0.9118 -2.5641
 4642TIP3   OH235340   4.978   2.723   3.681  0.1268  0.3584  0.3052
 4642TIP3    H135341   4.979   2.818   3.671 -0.2223  0.2643 -0.7611
 4642TIP3    H235342   4.885   2.700   3.682  0.1368  0.1859  2.4946
 4643TIP3   OH235343   3.377   3.638   2.012  0.1503  0.2028 -0.7342
 4643TIP3    H135344   3.353   3.566   2.070  1.2603  0.2151 -0.2259
 4643TIP3    H235345   3.349   3.609   1.925 -2.1718  0.4926 -0.1259
 4644TIP3   OH235346   2.248   5.819   5.783  0.0699  0.6839 -0.1250
 4644TIP3    H135347   2.172   5.877   5.788  0.2833  0.9258  0.3020
 4644TIP3    H235348   2.259   5.786   5.872 -0.0803 -0.0556 -0.3735
 4645TIP3   OH235349   0.900   2.553   4.198  0.8710  0.2051 -0.3505
 4645TIP3    H135350   0.992   2.553   4.172  1.5920 -0.9975  1.8895
 4645TIP3    H235351   0.901   2.524   4.290 -1.5663  2.3067  0.4617
 4646TIP3   OH235352   2.603   2.762   2.717 -0.2020 -0.4442 -0.1304
 4646TIP3    H135353   2.531   2.811   2.756  0.1512 -0.1454  0.1578
 4646TIP3    H235354   2.676   2.774   2.778 -0.0195 -1.0754 -0.2132
 4647TIP3   OH235355   4.749   5.475   1.867  0.6722  0.0789  0.0903
 4647TIP3    H135356   4.720   5.529   1.940  3.5846 -0.4856  1.8155
 4647TIP3    H235357   4.769   5.538   1.797  1.0052  0.9599  0.9613
 4648TIP3   OH235358   3.643   4.051  16.919  0.1769  0.1866  0.5199
 4648TIP3    H135359   3.653   3.972  16.973  2.4169  0.2912  0.3647
 4648TIP3    H235360   3.733   4.078  16.900 -0.4915  0.7723 -2.3735
 4649TIP3   OH235361   0.537   0.375  11.848  0.2029  0.0369 -0.3976
 4649TIP3    H135362   0.476   0.444  11.874  0.7728  0.5012 -0.2742
 4649TIP3    H235363   0.617   0.394  11.897  0.5276 -0.4248 -0.7389
 4650TIP3   OH235364   1.249   5.075   5.991 -0.1172 -0.8426  0.7103
 4650TIP3    H135365   1.198   5.087   5.911 -0.2639  1.4827  1.0929
 4650TIP3    H235366   1.331   5.035   5.961  0.2985  0.9959 -0.8082
 4651TIP3   OH235367   3.085   5.383   3.968 -0.0995 -0.1844 -0.3909
 4651TIP3    H135368   3.026   5.308   3.977 -0.2765 -0.4162 -2.7300
 4651TIP3    H235369   3.052   5.447   4.031 -0.1126 -1.9141  1.4565
 4652TIP3   OH235370   2.584   2.997  15.624  0.0152  0.3183  0.0718
 4652TIP3    H135371   2.593   2.915  15.672 -0.3724  0.4021  0.2931
 4652TIP3    H235372   2.490   3.007  15.611  0.1524 -0.2985 -1.7497
 4653TIP3   OH235373   6.162   4.004   3.131 -0.2600  0.5652 -1.3020
 4653TIP3    H135374   6.255   4.026   3.124 -0.5975  1.9669 -1.8854
 4653TIP3    H235375   6.118   4.077   3.088 -1.6067 -0.3851 -1.5896
 4654TIP3   OH235376   3.389   4.200  14.897  0.5310  0.3717 -0.0644
 4654TIP3    H135377   3.420   4.114  14.870 -3.1288 -1.0544 -0.3080
 4654TIP3    H235378   3.379   4.249  14.815  0.7803  0.3304 -0.1195
 4655TIP3   OH235379   2.523   5.040   1.757 -0.0857  0.4900  0.2028
 4655TIP3    H135380   2.606   5.037   1.710  0.1151  1.4340  0.4618
 4655TIP3    H235381   2.547   5.062   1.847 -0.5636  0.0800  0.4364
 4656TIP3   OH235382   5.087   2.562  12.068 -1.0088 -0.1110  0.2939
 4656TIP3    H135383   5.174   2.546  12.105 -1.3456  1.3241  1.8256
 4656TIP3    H235384   5.104   2.602  11.983 -0.1924 -1.0996 -0.0245
 4657TIP3   OH235385   3.273   1.119  14.200  0.8917  0.0918  0.1266
 4657TIP3    H135386   3.329   1.146  14.273  1.2539  2.3551 -0.9073
 4657TIP3    H235387   3.213   1.055  14.239  0.6836  1.6214  2.5829
 4658TIP3   OH235388   5.850   5.923  13.092 -0.2717 -0.2326 -0.3963
 4658TIP3    H135389   5.914   5.993  13.085  0.1987 -0.4646  1.1692
 4658TIP3    H235390   5.896   5.845  13.063 -0.0361 -0.2880  0.1150
 4659TIP3   OH235391   4.947   3.166   4.426  0.5807 -0.3742  0.1701
 4659TIP3    H135392   4.950   3.135   4.516 -0.6706 -2.0849 -0.3375
 4659TIP3    H235393   5.018   3.119   4.382 -0.1300 -1.1297 -0.1858
 4660TIP3   OH235394   2.032   0.734  13.822 -0.1653  0.4702  0.3935
 4660TIP3    H135395   2.019   0.657  13.878  0.4486  1.3992  1.8336
 4660TIP3    H235396   1.964   0.725  13.754 -1.9009  0.0731  2.0986
 4661TIP3   OH235397   6.645   0.733  16.633 -0.2881 -0.6989  0.1012
 4661TIP3    H135398   6.730   0.728  16.676  1.0707  1.4423 -2.0824
 4661TIP3    H235399   6.633   0.648  16.591  0.9786 -0.8722  0.0732
 4662TIP3   OH235400   3.609   0.211   2.551  0.3468  0.1239  0.7223
 4662TIP3    H135401   3.635   0.303   2.556 -2.8640  1.1234  3.9878
 4662TIP3    H235402   3.666   0.167   2.614  1.3551 -0.0287 -0.2649
 4663TIP3   OH235403   5.390   6.112   3.604 -0.2504  1.0712 -0.5444
 4663TIP3    H135404   5.322   6.046   3.608 -0.6725  1.4582 -1.2283
 4663TIP3    H235405   5.399   6.132   3.511  0.5259  1.3029 -0.4274
 4664TIP3   OH235406   5.905   5.267   0.204  0.0220 -0.6818  0.3242
 4664TIP3    H135407   5.820   5.253   0.247 -0.4036  2.1949  0.6313
 4664TIP3    H235408   5.887   5.332   0.136  1.9925  0.1207  0.5009
 4665TIP3   OH235409   5.394   5.240  11.358  0.0266 -0.6868  0.1161
 4665TIP3    H135410   5.362   5.247  11.268  1.3905 -3.0258 -0.6107
 4665TIP3    H235411   5.465   5.304  11.363  0.9349 -1.5751 -0.9663
 4666TIP3   OH235412   4.053   4.365  11.958  0.3554 -0.4951 -0.4998
 4666TIP3    H135413   4.046   4.449  12.004 -0.6149 -0.5221 -0.5811
 4666TIP3    H235414   3.998   4.374  11.881  0.8442 -0.9490 -0.9127
 4667TIP3   OH235415   3.380   3.916   2.774 -0.1674 -0.1389  0.1288
 4667TIP3    H135416   3.436   3.915   2.697  0.5387  0.1522  0.6272
 4667TIP3    H235417   3.394   4.003   2.813 -1.6175  0.2644 -0.2087
 4668TIP3   OH235418   3.528   2.179   4.533 -0.1099 -0.2274 -0.2589
 4668TIP3    H135419   3.581   2.132   4.468 -0.4322 -2.6493  1.1039
 4668TIP3    H235420   3.439   2.146   4.519 -0.6103  1.0220 -0.1049
 4669TIP3   OH235421   1.426   1.210  16.587 -0.0493  0.0674  0.3502
 4669TIP3    H135422   1.394   1.244  16.670 -0.6252  1.5005 -0.4339
 4669TIP3    H235423   1.506   1.162  16.610  1.0630  2.3243  1.4624
 4670TIP3   OH235424   1.209   0.668  12.823  0.2848  0.5725  0.1564
 4670TIP3    H135425   1.251   0.750  12.850  0.4561  0.1563  1.1974
 4670TIP3    H235426   1.189   0.680  12.731  1.0471  1.4830  0.1029
 4671TIP3   OH235427   1.273   2.317   4.979  0.5163 -0.3281 -0.4182
 4671TIP3    H135428   1.301   2.227   4.960  0.7041 -0.5043  0.6054
 4671TIP3    H235429   1.255   2.316   5.073 -0.2380  0.5108 -0.5462
 4672TIP3   OH235430   6.451   3.860   0.793 -0.5741 -0.0588  0.6572
 4672TIP3    H135431   6.496   3.879   0.876 -2.0463 -1.8964  1.9337
 4672TIP3    H235432   6.409   3.775   0.806 -1.7265  0.0734 -1.6291
 4673TIP3   OH235433   5.521   5.857  16.702 -0.1369  0.2094  0.6774
 4673TIP3    H135434   5.432   5.853  16.737 -1.1729  0.5702 -1.7100
 4673TIP3    H235435   5.528   5.943  16.662  1.1286  0.0201  0.4302
 4674TIP3   OH235436   1.845   3.239  12.608  0.2290  0.7050  0.3882
 4674TIP3    H135437   1.774   3.302  12.619  0.6037  1.4167 -0.9926
 4674TIP3    H235438   1.897   3.248  12.688  0.3449  2.2694  0.1673
 4675TIP3   OH235439   3.322   4.094   3.842  0.6044 -0.1301 -0.0645
 4675TIP3    H135440   3.397   4.126   3.792 -0.2358  0.0335 -1.2665
 4675TIP3    H235441   3.361   4.045   3.915  1.8714  0.0955 -0.5593
 4676TIP3   OH235442   2.815   5.783  16.135  0.1274  0.3270 -0.1318
 4676TIP3    H135443   2.869   5.737  16.071 -1.7780 -1.6298 -0.4263
 4676TIP3    H235444   2.875   5.805  16.206  1.5980 -0.4102 -1.0997
 4677TIP3   OH235445   3.311   5.610  17.369 -0.1237 -0.9469  0.2361
 4677TIP3    H135446   3.321   5.601  17.274  1.2027  0.3789  0.2151
 4677TIP3    H235447   3.282   5.700  17.381  1.4042 -0.5539  1.1727
 4678TIP3   OH235448   6.712   1.973  11.605  0.0747 -0.0968 -0.0125
 4678TIP3    H135449   6.753   1.982  11.518  2.4191 -2.0881  0.7588
 4678TIP3    H235450   6.634   2.027  11.600  0.9639  1.1515 -2.8374
 4679TIP3   OH235451   6.661   1.216   1.873  0.0999  0.1675 -0.4764
 4679TIP3    H135452   6.573   1.195   1.905  0.1013  1.3014  0.3145
 4679TIP3    H235453   6.647   1.238   1.780 -0.2379 -0.9339 -0.7048
 4680TIP3   OH235454   4.971   4.236   5.293  0.1881 -0.1103 -0.3524
 4680TIP3    H135455   5.037   4.193   5.348 -0.8714 -2.2685 -0.7090
 4680TIP3    H235456   4.889   4.226   5.342 -0.5965 -1.1949 -1.8246
 4681TIP3   OH235457   2.276   1.422  14.207 -0.5530  0.4601 -0.5269
 4681TIP3    H135458   2.230   1.375  14.138 -1.2270  0.5113 -0.1258
 4681TIP3    H235459   2.358   1.373  14.219  0.2787  1.3148 -2.3626
 4682TIP3   OH235460   4.488   4.752  14.665  0.1472  0.2937  0.0261
 4682TIP3    H135461   4.543   4.674  14.675 -0.3843  0.1193  1.9945
 4682TIP3    H235462   4.401   4.716  14.646  0.2787  0.4924 -0.9843
 4683TIP3   OH235463   3.064   0.481  10.949  0.1705 -0.0796 -0.5774
 4683TIP3    H135464   3.004   0.503  10.878 -1.2892 -0.5229  0.4629
 4683TIP3    H235465   3.027   0.401  10.988  0.4126  0.6219  1.2075
 4684TIP3   OH235466   6.295   1.126   4.295  0.2191 -0.6741  0.0219
 4684TIP3    H135467   6.358   1.094   4.359 -0.3235 -2.0598 -0.1125
 4684TIP3    H235468   6.241   1.189   4.344  0.4926 -0.9139  0.6358
 4685TIP3   OH235469   0.402   1.681   1.234 -0.0491 -0.1140  0.4396
 4685TIP3    H135470   0.427   1.598   1.194 -0.2728 -0.5339  1.1545
 4685TIP3    H235471   0.424   1.671   1.327  0.4034  0.8177  0.4468
 4686TIP3   OH235472   1.944   5.588   4.519  0.3007  0.2596  0.1923
 4686TIP3    H135473   1.957   5.683   4.512 -1.8762  0.5813 -0.4086
 4686TIP3    H235474   1.904   5.576   4.605  1.4585 -0.2657  0.6781
 4687TIP3   OH235475   6.671   3.457   2.958 -0.4126 -0.2910  0.0209
 4687TIP3    H135476   6.601   3.505   2.914 -0.2898 -0.6712 -0.6090
 4687TIP3    H235477   6.626   3.385   3.002 -0.4435 -0.4527 -0.2669
 4688TIP3   OH235478   0.718   0.981   3.937  0.3465 -0.4583 -0.0924
 4688TIP3    H135479   0.808   0.996   3.964  0.8610 -2.5078 -0.5095
 4688TIP3    H235480   0.716   0.890   3.910 -1.5376 -0.0900 -1.3954
 4689TIP3   OH235481   1.614   3.174  12.264 -0.0925  0.0002  0.7532
 4689TIP3    H135482   1.627   3.097  12.210 -0.2737  0.1944  0.4292
 4689TIP3    H235483   1.702   3.208  12.279 -0.1424  1.1282 -1.1637
 4690TIP3   OH235484   2.804   0.930  12.258 -1.1962  0.1259 -0.4674
 4690TIP3    H135485   2.731   0.944  12.318 -0.6933  1.5913 -0.1685
 4690TIP3    H235486   2.798   1.001  12.194  1.5110  1.9958  1.1515
 4691TIP3   OH235487   4.564   5.180   2.542  0.3146  0.1860  0.2589
 4691TIP3    H135488   4.514   5.168   2.622  0.5409 -1.4860  0.1817
 4691TIP3    H235489   4.605   5.094   2.525  0.5316  0.5809 -1.4609
 4692TIP3   OH235490   0.902   1.485   0.138  0.4245  0.2806  0.5403
 4692TIP3    H135491   0.827   1.470   0.195  0.1907  0.4294  0.2764
 4692TIP3    H235492   0.868   1.542   0.068  0.4880 -0.6042 -0.2232
 4693TIP3   OH235493   4.423   2.326   4.746  0.3072 -0.1064  0.3491
 4693TIP3    H135494   4.403   2.336   4.839 -0.2873 -1.2301  0.3727
 4693TIP3    H235495   4.339   2.341   4.702  0.4189 -0.3244  0.0606
 4694TIP3   OH235496   6.407   6.365  16.163  0.0743  0.1451  0.2566
 4694TIP3    H135497   6.339   6.313  16.207 -0.1296  0.3995  0.2443
 4694TIP3    H235498   6.379   6.370  16.072 -0.8931  1.8292  0.6017
 4695TIP3   OH235499   0.187   3.148   3.948 -0.3520  0.0649 -0.4289
 4695TIP3    H135500   0.249   3.195   4.005  0.4190 -2.5092  0.9990
 4695TIP3    H235501   0.221   3.162   3.860  1.7825 -0.5006  0.2348
 4696TIP3   OH235502   4.154   0.961   2.583 -0.0344 -0.5455 -0.0993
 4696TIP3    H135503   4.127   1.043   2.623  1.9176 -0.9234  2.3032
 4696TIP3    H235504   4.110   0.893   2.635  0.2314 -1.0278 -0.4906
 4697TIP3   OH235505   4.047   2.756   1.586 -0.4060 -0.3017 -0.3544
 4697TIP3    H135506   3.981   2.801   1.533 -0.5457 -1.3614 -1.1065
 4697TIP3    H235507   4.121   2.746   1.526  0.3076  0.5280  0.3660
 4698TIP3   OH235508   4.194   6.698  14.785 -0.0140  0.7965  0.4027
 4698TIP3    H135509   4.186   6.724  14.693  0.9182  1.4946  0.5031
 4698TIP3    H235510   4.166   6.607  14.786  1.2520  0.3596 -0.8282
 4699TIP3   OH235511   5.642   5.066   0.861  0.5751  0.1137  0.2876
 4699TIP3    H135512   5.670   5.146   0.817  2.1012 -0.3402  0.3673
 4699TIP3    H235513   5.557   5.045   0.822  0.6345  1.2092 -0.4634
 4700TIP3   OH235514   1.640   3.124  14.136  0.3936  0.3054 -0.0652
 4700TIP3    H135515   1.613   3.210  14.170 -1.1439 -0.1529 -0.0326
 4700TIP3    H235516   1.728   3.112  14.170  0.6314  1.8515 -0.0250
 4701TIP3   OH235517   1.716   5.263   3.353  0.4277  0.2698  0.0362
 4701TIP3    H135518   1.664   5.307   3.420  0.8467  0.2945  0.3494
 4701TIP3    H235519   1.659   5.262   3.276  1.0340  2.9897 -0.5699
 4702TIP3   OH235520   0.441   0.908   0.902  0.1353  0.6551  0.6520
 4702TIP3    H135521   0.366   0.960   0.874  0.4979  0.8920  0.1188
 4702TIP3    H235522   0.441   0.833   0.843 -0.1536  0.2409  1.1678
 4703TIP3   OH235523   4.033   6.677  15.946 -0.0557 -0.2167  0.0968
 4703TIP3    H135524   4.059   6.763  15.980  0.2359  0.0624 -0.7998
 4703TIP3    H235525   4.104   6.652  15.887 -1.9546  0.7945 -2.8316
 4704TIP3   OH235526   5.241   5.358  11.894  0.3017  0.3325 -0.3006
 4704TIP3    H135527   5.203   5.280  11.853 -3.0509  1.0109  1.1634
 4704TIP3    H235528   5.181   5.429  11.870  2.4444  2.2267 -0.3549
 4705TIP3   OH235529   3.361   2.260  13.875 -0.1156 -0.4816  0.2293
 4705TIP3    H135530   3.441   2.311  13.862  0.0219 -0.5135  0.9168
 4705TIP3    H235531   3.298   2.324  13.911 -0.1801 -0.6217  0.3658
 4706TIP3   OH235532   5.489   0.705  16.198  0.1731  0.0880  0.1431
 4706TIP3    H135533   5.466   0.635  16.137  2.6765  0.9478 -1.9572
 4706TIP3    H235534   5.425   0.774  16.180  0.7958  0.2785 -1.4718
 4707TIP3   OH235535   0.878   3.657  16.294  0.4804  0.5480 -0.2819
 4707TIP3    H135536   0.855   3.567  16.270  0.1946  0.0974  1.5254
 4707TIP3    H235537   0.865   3.708  16.214  2.7307 -1.3332 -1.9715
 4708TIP3   OH235538   2.290   0.304  15.987 -0.7601 -0.0561  0.3862
 4708TIP3    H135539   2.225   0.260  16.041 -0.2073 -0.1377  0.9919
 4708TIP3    H235540   2.332   0.367  16.045 -0.2773 -0.0199  0.0077
 4709TIP3   OH235541   6.687   5.836   0.810 -0.0561  0.4411  0.6194
 4709TIP3    H135542   6.655   5.749   0.790 -0.2225  0.9990 -1.8966
 4709TIP3    H235543   6.609   5.885   0.837 -0.1055  0.0236  1.2341
 4710TIP3   OH235544   5.405   4.418   1.513 -0.1576 -0.1839  0.2436
 4710TIP3    H135545   5.461   4.440   1.438  0.4661 -0.0214  0.7544
 4710TIP3    H235546   5.334   4.365   1.475  0.2476 -0.2497 -0.4359
 4711TIP3   OH235547   0.085   5.849   3.025  0.7282  0.1322 -0.0766
 4711TIP3    H135548   0.105   5.921   3.085  2.3632 -0.2017 -0.1964
 4711TIP3    H235549   0.137   5.868   2.946  0.2144 -0.5392 -0.5883
 4712TIP3   OH235550   6.228   0.382  13.936 -0.8123 -0.7323  0.6199
 4712TIP3    H135551   6.287   0.358  13.865  0.8724  0.1533  1.6492
 4712TIP3    H235552   6.233   0.308  13.997 -1.9812 -1.3307  0.0321
 4713TIP3   OH235553   2.787   1.022   1.137 -0.0990  0.1228 -0.1484
 4713TIP3    H135554   2.731   1.089   1.096 -0.4648  0.2623  0.5611
 4713TIP3    H235555   2.770   1.031   1.231 -0.4431 -1.2206 -0.0610
 4714TIP3   OH235556   4.806   3.924  15.585  0.7999 -0.3703  0.2838
 4714TIP3    H135557   4.847   3.838  15.576  0.1860 -0.7750  1.1223
 4714TIP3    H235558   4.792   3.933  15.680  0.5575  0.5044  0.1667
 4715TIP3   OH235559   4.745   3.320   4.332 -0.1158  0.7703  0.6471
 4715TIP3    H135560   4.817   3.276   4.376  0.8232  1.0248 -0.5929
 4715TIP3    H235561   4.668   3.297   4.384  0.6350 -0.6597  1.1846
 4716TIP3   OH235562   5.626   4.063   2.251 -0.6160  0.5901  0.5559
 4716TIP3    H135563   5.689   4.101   2.313  0.6041  1.7193 -1.2919
 4716TIP3    H235564   5.679   4.035   2.177 -1.7726 -2.7565  0.8421
 4717TIP3   OH235565   3.094   2.925  13.069  0.1274  0.5608  0.0681
 4717TIP3    H135566   3.024   2.884  13.121 -1.4117 -0.9608 -2.9356
 4717TIP3    H235567   3.058   3.010  13.044 -0.4817  0.0296 -0.9620
 4718TIP3   OH235568   1.941   1.300   3.460 -0.2729 -0.0852 -0.3380
 4718TIP3    H135569   2.021   1.278   3.508  0.4271  0.7141 -1.0868
 4718TIP3    H235570   1.957   1.266   3.371 -0.7915  0.0181 -0.4703
 4719TIP3   OH235571   2.271   6.052   5.278 -0.3647 -0.0945  0.0406
 4719TIP3    H135572   2.321   6.013   5.349  0.2986  1.6771  0.5947
 4719TIP3    H235573   2.335   6.064   5.208  0.1264  2.2856  0.7938
 4720TIP3   OH235574   5.975   6.525   2.131  0.3038  0.3382 -0.5431
 4720TIP3    H135575   6.011   6.586   2.067  2.5974 -1.2870 -0.9320
 4720TIP3    H235576   6.048   6.507   2.190  0.3050 -3.2640 -1.4342
 4721TIP3   OH235577   6.098   2.838  14.037 -0.0931 -0.1777 -0.3984
 4721TIP3    H135578   6.051   2.805  13.961  0.7439 -0.1366 -0.9517
 4721TIP3    H235579   6.188   2.809  14.024  0.0861 -0.0665  0.5172
 4722TIP3   OH235580   2.612   5.096   6.348  0.1002 -0.4603  0.9696
 4722TIP3    H135581   2.578   5.185   6.345 -0.3161 -0.6363 -1.1377
 4722TIP3    H235582   2.693   5.103   6.398  0.3463  1.2086  0.3972
 4723TIP3   OH235583   4.629   3.581   5.349  0.8459  0.1668 -0.1077
 4723TIP3    H135584   4.658   3.622   5.267  1.9594 -0.2624  0.0444
 4723TIP3    H235585   4.581   3.503   5.321  0.0096  0.7614 -0.3676
 4724TIP3   OH235586   4.937   4.381   2.954 -0.1920  0.1750 -0.0277
 4724TIP3    H135587   4.973   4.453   2.903 -0.0594 -0.0190 -0.2088
 4724TIP3    H235588   5.006   4.316   2.957 -0.8132 -0.5672 -1.1129
 4725TIP3   OH235589   5.921   2.625  16.492  0.4969 -0.5161 -0.1643
 4725TIP3    H135590   5.959   2.685  16.427  0.6785 -0.9346 -0.4526
 4725TIP3    H235591   5.855   2.677  16.537  1.2743  0.1665  0.2038
 4726TIP3   OH235592   0.388   5.615  12.193  0.3533  0.0776 -0.2394
 4726TIP3    H135593   0.367   5.707  12.173  0.9041  0.3432  0.3571
 4726TIP3    H235594   0.378   5.609  12.288 -0.7991 -0.7848 -0.4040
 4727TIP3   OH235595   1.176   4.982   6.427 -0.0316  0.2322 -0.2734
 4727TIP3    H135596   1.194   4.948   6.339 -1.0129  1.5046 -1.0079
 4727TIP3    H235597   1.259   5.019   6.456 -0.2678  2.0974 -1.7711
 4728TIP3   OH235598   5.370   1.342  14.942  0.5222 -0.1289 -0.1794
 4728TIP3    H135599   5.448   1.309  14.898  0.0962  0.1817 -1.1889
 4728TIP3    H235600   5.352   1.278  15.011  0.3494 -1.4467 -1.4012
 4729TIP3   OH235601   3.375   4.007  15.153  0.1889 -0.1589  0.0051
 4729TIP3    H135602   3.415   4.022  15.068  1.7630 -3.1232  0.0926
 4729TIP3    H235603   3.398   4.084  15.205  1.8483  0.3139 -1.3552
 4730TIP3   OH235604   0.423   0.746  12.875 -0.2974 -0.0269 -0.0424
 4730TIP3    H135605   0.424   0.710  12.786 -0.1969  0.8726 -0.4164
 4730TIP3    H235606   0.377   0.680  12.927 -1.2116 -0.1286 -0.9502
 4731TIP3   OH235607   5.749   0.006   1.247 -0.5008 -0.1065 -0.2657
 4731TIP3    H135608   5.743  -0.089   1.256 -0.1195 -0.2263 -1.1164
 4731TIP3    H235609   5.663   0.039   1.273 -0.4195 -0.6178  0.6877
 4732TIP3   OH235610   0.577   1.394   2.629  0.0272 -0.2566 -0.6610
 4732TIP3    H135611   0.512   1.399   2.699  3.6615 -0.4126  3.1309
 4732TIP3    H235612   0.603   1.302   2.627  0.9174 -0.0018 -1.2783
 4733TIP3   OH235613   5.944   1.189  12.923 -0.1417  0.0838 -0.0930
 4733TIP3    H135614   5.870   1.184  12.983 -1.0477  1.4201 -1.0359
 4733TIP3    H235615   5.905   1.209  12.838  1.1145 -1.4992 -1.1211
 4734TIP3   OH235616   6.130   4.886  14.150  0.3364  0.6258 -0.5825
 4734TIP3    H135617   6.114   4.975  14.122  0.9334  1.1161  0.5383
 4734TIP3    H235618   6.110   4.886  14.244 -0.7042 -0.6971 -0.7787
 4735TIP3   OH235619   6.368   3.367   3.949 -0.6434 -1.0254 -0.2111
 4735TIP3    H135620   6.435   3.430   3.975 -0.0040 -1.2331 -1.3218
 4735TIP3    H235621   6.298   3.379   4.014 -1.1798  1.8365 -1.1617
 4736TIP3   OH235622   5.263   3.470   1.653 -0.8573  0.5186 -0.0111
 4736TIP3    H135623   5.245   3.564   1.644  0.8097  0.7103 -1.8780
 4736TIP3    H235624   5.233   3.431   1.571  1.2878 -0.0658 -0.5695
 4737TIP3   OH235625   0.542   0.532  13.399 -0.2687 -0.0225 -0.2144
 4737TIP3    H135626   0.563   0.521  13.492 -0.1813 -1.3482 -0.3707
 4737TIP3    H235627   0.626   0.545  13.356 -0.4004  1.7710  0.0165
 4738TIP3   OH235628   5.100   3.381   2.461 -0.1474 -0.2724  0.4661
 4738TIP3    H135629   5.049   3.327   2.400  1.0081 -0.3265 -0.4918
 4738TIP3    H235630   5.183   3.334   2.471  0.4519  0.7636  0.4916
 4739TIP3   OH235631   6.529   3.074   6.412  0.1685  0.1211 -0.3859
 4739TIP3    H135632   6.552   2.998   6.466 -1.5864 -0.6991 -0.7394
 4739TIP3    H235633   6.520   3.039   6.324  0.0941  0.8984 -0.6942
 4740TIP3   OH235634   2.763   4.632  14.533  0.1459  0.0046 -0.4586
 4740TIP3    H135635   2.851   4.614  14.499 -0.1992  0.2564 -1.5341
 4740TIP3    H235636   2.721   4.547  14.538  0.2998 -0.0670 -0.3843
 4741TIP3   OH235637   6.373   3.664  13.062  0.2895  0.0030 -0.4336
 4741TIP3    H135638   6.387   3.610  12.985 -1.5151  1.4780 -1.8709
 4741TIP3    H235639   6.317   3.736  13.032 -0.0698  0.9021  2.1311
 4742TIP3   OH235640   5.155   3.214   2.910  0.1053 -0.3955 -0.2099
 4742TIP3    H135641   5.166   3.153   2.982 -0.8302 -1.3617 -0.8631
 4742TIP3    H235642   5.114   3.163   2.840  1.7656  0.2858 -1.7585
 4743TIP3   OH235643   1.933   2.705   4.906 -0.9876  0.2835 -0.5720
 4743TIP3    H135644   2.019   2.692   4.866  0.2510  0.8766  1.7019
 4743TIP3    H235645   1.929   2.641   4.977 -1.2677  1.9928  1.0262
 4744TIP3   OH235646   3.678   3.580   1.517 -0.1120  0.5034  0.7992
 4744TIP3    H135647   3.744   3.591   1.448 -1.3383 -0.5739 -0.6117
 4744TIP3    H235648   3.600   3.623   1.483 -0.7246 -0.0022  1.5247
 4745TIP3   OH235649   1.844   1.056   2.271 -0.0190  0.2241  0.1715
 4745TIP3    H135650   1.935   1.081   2.285  0.4799 -0.3338 -1.7525
 4745TIP3    H235651   1.810   1.036   2.359  1.7198  0.3609  0.9041
 4746TIP3   OH235652   5.899   2.266   2.904 -0.1414  0.2406  0.2062
 4746TIP3    H135653   5.992   2.277   2.885 -0.0506 -0.2584  0.3709
 4746TIP3    H235654   5.872   2.192   2.850  0.2332 -1.5519  2.3457
 4747TIP3   OH235655   1.448   1.743  16.556 -0.3075 -0.6698  0.2854
 4747TIP3    H135656   1.473   1.835  16.549  1.6839 -1.0290  1.6895
 4747TIP3    H235657   1.412   1.721  16.471 -1.1701  1.4886  0.0354
 4748TIP3   OH235658   4.131   1.312  17.348  0.0151 -0.4494 -0.3827
 4748TIP3    H135659   4.092   1.341  17.430  0.3616  1.8740 -0.9630
 4748TIP3    H235660   4.172   1.228  17.368 -3.0463 -1.8121  0.8753
 4749TIP3   OH235661   4.376   0.540  13.013  0.2590  0.0939  0.1579
 4749TIP3    H135662   4.413   0.625  13.035  0.8800  0.1129 -0.9097
 4749TIP3    H235663   4.421   0.513  12.933  0.9737 -1.8040  1.1253
 4750TIP3   OH235664   5.669   3.075  14.105  0.8650 -0.0935 -0.1123
 4750TIP3    H135665   5.628   2.997  14.143  0.2017  0.7425  0.9337
 4750TIP3    H235666   5.618   3.148  14.139  1.9644  0.8572 -0.4418
 4751TIP3   OH235667   2.383   5.596   3.295 -0.1928  0.6424  0.0165
 4751TIP3    H135668   2.425   5.573   3.378  0.7626 -0.2538 -0.6982
 4751TIP3    H235669   2.294   5.563   3.303  0.0629  0.0517  0.4586
 4752TIP3   OH235670   5.906   1.829   6.052  0.2190  0.2272  0.2833
 4752TIP3    H135671   5.952   1.913   6.044 -0.9516  0.9826  1.0285
 4752TIP3    H235672   5.933   1.796   6.138  0.5549 -0.0772  0.0593
 4753TIP3   OH235673   2.038   5.512  12.974  0.1367 -0.3562 -0.5522
 4753TIP3    H135674   2.090   5.457  12.915  1.2335  0.0793 -0.0257
 4753TIP3    H235675   1.949   5.478  12.966  0.3687 -0.7022 -1.9854
 4754TIP3   OH235676   0.416   2.725  16.266  0.5466  0.7482  0.3541
 4754TIP3    H135677   0.389   2.634  16.253  0.4996  0.8579 -0.3648
 4754TIP3    H235678   0.344   2.764  16.315  0.8828  0.2297  1.2932
 4755TIP3   OH235679   5.235   6.416  12.667  0.1161 -0.4817  0.2379
 4755TIP3    H135680   5.238   6.510  12.649 -1.6757 -0.4563 -0.0863
 4755TIP3    H235681   5.246   6.375  12.581  1.1735 -0.5967  0.4136
 4756TIP3   OH235682   0.108   2.098  10.394  0.3597 -0.0338 -0.3947
 4756TIP3    H135683   0.143   2.031  10.453 -1.2874 -1.2588 -0.7253
 4756TIP3    H235684   0.181   2.120  10.337  0.5350 -3.0211 -1.5459
 4757TIP3   OH235685   1.991   2.521  10.918 -0.0908 -0.9141 -0.0098
 4757TIP3    H135686   1.916   2.570  10.883 -0.8757 -0.6967  1.8842
 4757TIP3    H235687   2.005   2.450  10.855 -0.9350 -0.0919 -1.1591
 4758TIP3   OH235688   3.972   2.118  11.071  0.2506  0.5269 -0.0118
 4758TIP3    H135689   3.929   2.057  11.012  0.2589  0.3660  0.1481
 4758TIP3    H235690   3.901   2.162  11.117  0.2556 -0.1695  0.6907
 4759TIP3   OH235691   1.264   3.310   4.172 -0.4537  0.6514 -0.0633
 4759TIP3    H135692   1.341   3.341   4.125  0.8694  0.4440  1.8910
 4759TIP3    H235693   1.251   3.221   4.140 -0.5776  1.0618 -1.2040
 4760TIP3   OH235694   5.328   3.976  13.055 -0.0669  0.1778 -0.0769
 4760TIP3    H135695   5.380   4.025  13.119 -0.4954  3.1136 -1.7904
 4760TIP3    H235696   5.385   3.904  13.027  1.0497  0.3044  1.7693
 4761TIP3   OH235697   5.544   6.415  14.317  0.5078  0.0335 -0.0394
 4761TIP3    H135698   5.577   6.326  14.312  0.2644 -0.0582 -0.0298
 4761TIP3    H235699   5.450   6.407  14.302  0.9280  0.6804 -4.1335
 4762TIP3   OH235700   2.834   1.213  14.705 -0.2323 -0.4930  0.3482
 4762TIP3    H135701   2.763   1.269  14.735 -1.4509 -2.1492  0.6763
 4762TIP3    H235702   2.822   1.131  14.752  2.6019 -0.4707  1.3098
 4763TIP3   OH235703   4.773   0.119   5.894  0.0285 -0.0371 -0.3682
 4763TIP3    H135704   4.787   0.027   5.918 -0.6043  0.0386  0.3342
 4763TIP3    H235705   4.846   0.166   5.932  0.9444 -0.3729 -1.6423
 4764TIP3   OH235706   5.289   2.615  16.158 -0.1221  0.5210 -0.3827
 4764TIP3    H135707   5.238   2.670  16.098 -2.2235 -1.7853 -0.9075
 4764TIP3    H235708   5.285   2.661  16.242  0.8471  2.6362 -1.4301
 4765TIP3   OH235709   1.990   0.543   3.293  0.1349  0.1316 -0.2731
 4765TIP3    H135710   1.917   0.541   3.232  0.8743  0.5980 -1.1987
 4765TIP3    H235711   1.950   0.537   3.380 -0.9987  0.5272 -0.7584
 4766TIP3   OH235712   4.041   4.962   3.571 -0.0094 -0.0986 -0.2074
 4766TIP3    H135713   4.089   5.024   3.626 -0.6029  0.2606 -0.0897
 4766TIP3    H235714   3.953   4.960   3.608  0.0002 -1.0118 -0.2168
 4767TIP3   OH235715   5.835   4.886   5.383 -0.2133  0.7534  0.0167
 4767TIP3    H135716   5.825   4.898   5.478  1.6697  0.6705  0.2647
 4767TIP3    H235717   5.913   4.831   5.374 -2.3052 -2.2826 -1.4730
 4768TIP3   OH235718   5.610   2.788   4.237  0.1134  0.1884  0.2932
 4768TIP3    H135719   5.672   2.790   4.164  0.4936 -0.7081  0.5644
 4768TIP3    H235720   5.590   2.695   4.248  0.1593  0.2936  1.4038
 4769TIP3   OH235721   1.220   1.531   0.132 -0.3174  0.1050  0.0267
 4769TIP3    H135722   1.230   1.552   0.039 -2.4969 -2.5306 -0.9418
 4769TIP3    H235723   1.150   1.589   0.162  0.3874  0.9566  0.0622
 4770TIP3   OH235724   3.939   5.140   5.842 -0.7692 -0.9625  0.7502
 4770TIP3    H135725   3.958   5.213   5.783  0.0119 -1.2674  0.6098
 4770TIP3    H235726   3.999   5.071   5.814 -1.6919 -1.7577  0.6994
 4771TIP3   OH235727   6.710   2.761   4.737 -0.2938 -0.3137 -0.1238
 4771TIP3    H135728   6.711   2.838   4.793 -2.7382  0.1755 -0.6490
 4771TIP3    H235729   6.745   2.792   4.653 -1.3918  0.2931 -0.3742
 4772TIP3   OH235730   6.019   5.742  12.968  0.2534  0.5972 -0.5814
 4772TIP3    H135731   5.992   5.727  12.877  0.0838  1.9953 -0.7787
 4772TIP3    H235732   6.114   5.738  12.966  0.2543  0.7453 -0.8420
 4773TIP3   OH235733   5.561   5.243  14.186  0.0705  0.1028  0.2994
 4773TIP3    H135734   5.487   5.217  14.130  0.2289 -1.9993  0.9899
 4773TIP3    H235735   5.639   5.218  14.137  0.2219 -1.2423  1.1870
 4774TIP3   OH235736   2.599   1.073  12.441  0.3907 -0.3427 -0.8682
 4774TIP3    H135737   2.569   0.988  12.473  1.1926 -1.2378 -2.4206
 4774TIP3    H235738   2.663   1.102  12.507  1.1042 -1.5745 -0.9854
 4775TIP3   OH235739   4.005   2.483   0.582 -0.5721 -0.1185  0.1256
 4775TIP3    H135740   4.032   2.574   0.587  0.4199 -0.4103  0.3420
 4775TIP3    H235741   4.028   2.456   0.493  0.8975 -0.6712  0.6499
 4776TIP3   OH235742   4.998   1.422   0.506 -0.0396  0.0218 -0.2540
 4776TIP3    H135743   5.013   1.458   0.419 -0.4737 -0.7987 -0.6844
 4776TIP3    H235744   5.085   1.397   0.538  0.3564  2.0087  0.3290
 4777TIP3   OH235745   1.767   5.762  15.270  0.1609  0.3421 -0.4965
 4777TIP3    H135746   1.727   5.796  15.350  0.6618  2.0232 -0.9133
 4777TIP3    H235747   1.787   5.840  15.218 -0.7660 -0.6977 -2.5751
 4778TIP3   OH235748   4.818   5.420  13.178 -0.3265  1.0765  0.0368
 4778TIP3    H135749   4.849   5.341  13.222 -0.3673  1.6359  1.1038
 4778TIP3    H235750   4.885   5.440  13.113  0.0204  0.5408  0.2252
 4779TIP3   OH235751   3.162   2.876   5.894  0.0139 -0.5086 -0.2286
 4779TIP3    H135752   3.111   2.920   5.961  0.0647 -0.7400 -0.0383
 4779TIP3    H235753   3.233   2.938   5.874 -1.8654  1.0602 -2.5008
 4780TIP3   OH235754   2.816   0.446  13.083 -0.0413 -0.0806  0.1238
 4780TIP3    H135755   2.863   0.529  13.078 -1.5714  0.8038 -0.2080
 4780TIP3    H235756   2.843   0.398  13.004 -0.1075  0.6495 -0.3517
 4781TIP3   OH235757   3.400   1.536   1.247 -0.1663 -0.7894 -0.2431
 4781TIP3    H135758   3.324   1.539   1.188  0.3224  0.5584 -0.8634
 4781TIP3    H235759   3.380   1.466   1.308 -3.5078  1.5387  1.7005
 4782TIP3   OH235760   4.721   4.945   2.247 -0.1383 -0.1120  0.6828
 4782TIP3    H135761   4.719   4.862   2.295 -0.0735  0.2027  1.2272
 4782TIP3    H235762   4.634   4.982   2.258 -0.2603 -0.2450  0.1909
 4783TIP3   OH235763   0.238   6.268  12.861  0.0076 -0.5083  0.2284
 4783TIP3    H135764   0.278   6.351  12.890  0.4219  0.2268 -2.1985
 4783TIP3    H235765   0.310   6.205  12.864 -0.1728 -0.6602  1.5747
 4784TIP3   OH235766   2.038   0.526   1.216  0.0984  0.1718  0.4737
 4784TIP3    H135767   2.110   0.574   1.174 -0.1863 -1.2217 -1.8310
 4784TIP3    H235768   2.072   0.503   1.302  0.7276  3.2554  1.1696
 4785TIP3   OH235769   0.432   1.966  14.563  0.1070 -0.0041 -0.1515
 4785TIP3    H135770   0.479   2.050  14.563  0.1126  0.0966 -2.8560
 4785TIP3    H235771   0.485   1.908  14.616  1.3962  1.0762 -0.2166
 4786TIP3   OH235772   3.006   1.906  15.816  0.3133 -0.2153  0.2577
 4786TIP3    H135773   3.000   1.977  15.880 -0.8051  1.8519 -1.9641
 4786TIP3    H235774   2.925   1.855  15.829 -0.9299  1.4090 -0.7670
 4787TIP3   OH235775   2.929   0.010   1.614  0.0691 -0.0964 -0.7411
 4787TIP3    H135776   2.888  -0.042   1.545  0.9876 -0.4942 -0.9991
 4787TIP3    H235777   2.965   0.086   1.568  0.7327 -0.3901 -0.7156
 4788TIP3   OH235778   5.932   1.880   4.321  0.4881  0.1860  0.1923
 4788TIP3    H135779   5.932   1.942   4.394 -1.8930  0.7732 -0.2277
 4788TIP3    H235780   5.994   1.917   4.258 -1.1206  2.3944 -0.1927
 4789TIP3   OH235781   3.317   2.422   3.080 -0.6206 -0.4057 -0.3330
 4789TIP3    H135782   3.378   2.492   3.103 -2.2525  2.1018 -2.8622
 4789TIP3    H235783   3.323   2.360   3.152  2.5851  1.2112  1.0009
 4790TIP3   OH235784   3.224   1.045   0.474 -0.4156  0.0490 -0.4100
 4790TIP3    H135785   3.303   1.074   0.519 -0.6771  0.4246 -0.1812
 4790TIP3    H235786   3.158   1.040   0.544 -0.6442 -0.0607 -0.6319
 4791TIP3   OH235787   6.149   5.924   1.138  0.5462 -0.4117 -0.1694
 4791TIP3    H135788   6.095   5.961   1.069  0.6737 -0.6215 -0.3803
 4791TIP3    H235789   6.148   5.830   1.123  1.4922 -0.3754 -0.5667
 4792TIP3   OH235790   3.296   2.402   2.772  0.4342 -0.5607  0.1639
 4792TIP3    H135791   3.322   2.416   2.863  1.0086  0.4807 -0.1379
 4792TIP3    H235792   3.374   2.368   2.729  1.1590  1.8447 -0.5776
 4793TIP3   OH235793   2.054   5.004   4.186  0.0430 -0.3742  0.1503
 4793TIP3    H135794   2.013   4.956   4.259 -0.2765 -2.6437 -1.4307
 4793TIP3    H235795   2.128   5.050   4.227 -0.1357 -1.5585  1.9286
 4794TIP3   OH235796   4.924   6.097   1.770  0.7319 -0.2695  0.1866
 4794TIP3    H135797   4.883   6.039   1.705 -0.0750  0.6911 -0.2023
 4794TIP3    H235798   4.857   6.164   1.787  1.0471 -0.3234  1.7881
 4795TIP3   OH235799   5.001   2.238   4.182  0.0891  0.0826  0.1565
 4795TIP3    H135800   5.057   2.303   4.224 -1.3261  2.0272 -0.7980
 4795TIP3    H235801   4.923   2.287   4.155 -1.6562 -2.2899  0.5524
 4796TIP3   OH235802   3.608   5.632  13.531  0.1364  0.0118  0.2080
 4796TIP3    H135803   3.634   5.555  13.581  0.6839  0.3019  0.3807
 4796TIP3    H235804   3.671   5.700  13.558  1.0131 -0.0621 -1.5187
 4797TIP3   OH235805   0.632   6.636  13.883  0.0335 -0.1302 -0.1508
 4797TIP3    H135806   0.714   6.671  13.850  1.2502 -0.9632  1.8381
 4797TIP3    H235807   0.646   6.623  13.977 -1.1911 -3.4100 -0.2615
 4798TIP3   OH235808   3.356   1.988   6.419 -0.0469  0.0224  0.3246
 4798TIP3    H135809   3.418   1.916   6.427  0.3400  0.2857 -0.2659
 4798TIP3    H235810   3.410   2.067   6.418 -0.3298  0.2235 -0.8163
 4799TIP3   OH235811   2.880   4.792  13.323  0.6605  0.5021 -0.3409
 4799TIP3    H135812   2.873   4.713  13.376  1.2814 -0.1347 -1.1809
 4799TIP3    H235813   2.919   4.857  13.382  1.1198 -0.1242  0.0610
 4800TIP3   OH235814   3.883   4.068   5.509 -0.1463 -0.1181  0.2309
 4800TIP3    H135815   3.974   4.093   5.522 -0.2164  0.1897  0.1288
 4800TIP3    H235816   3.832   4.129   5.562 -0.3679  0.4902 -0.6542
 4801TIP3   OH235817   4.004   0.864  10.406  0.3736 -0.0089  0.7963
 4801TIP3    H135818   4.023   0.947  10.361  1.1420 -0.1931  0.7770
 4801TIP3    H235819   3.951   0.889  10.481  0.3641  0.4733  0.6306
 4802TIP3   OH235820   4.032   6.318  15.891 -0.0882  0.1596  0.2571
 4802TIP3    H135821   3.984   6.400  15.899  0.1526  0.3104  0.1680
 4802TIP3    H235822   4.007   6.267  15.968 -3.2280 -1.2533 -1.5097
 4803TIP3   OH235823   3.218   1.142  14.630  0.6138 -0.1621  0.4229
 4803TIP3    H135824   3.220   1.052  14.662 -0.1341  0.0470  1.1102
 4803TIP3    H235825   3.246   1.194  14.706  1.1778  0.1745 -0.0130
 4804TIP3   OH235826   1.773   5.454  12.959  0.4530 -0.1457  0.2823
 4804TIP3    H135827   1.741   5.544  12.952  1.3614  0.2145  0.4849
 4804TIP3    H235828   1.704   5.400  12.923 -0.3141  0.6025  0.5998
 4805TIP3   OH235829   6.558   0.696  15.247 -0.0115 -0.6774  0.5431
 4805TIP3    H135830   6.617   0.629  15.282  0.7601  0.2740  1.1089
 4805TIP3    H235831   6.496   0.711  15.318 -0.0709 -0.6610  0.4870
 4806TIP3   OH235832   1.152   1.748  12.790 -0.3663  0.5207  0.0843
 4806TIP3    H135833   1.131   1.747  12.884  0.4715  0.8974  0.2831
 4806TIP3    H235834   1.157   1.655  12.766 -1.6461  0.4197  0.1584
 4807TIP3   OH235835   0.201   4.325  11.258  0.5225  0.1281 -0.3419
 4807TIP3    H135836   0.158   4.295  11.339  1.3563  0.8609  0.3888
 4807TIP3    H235837   0.151   4.403  11.233  0.0749 -0.2703 -0.7176
 4808TIP3   OH235838   0.745   3.582   1.441  0.5288 -0.2601 -0.4947
 4808TIP3    H135839   0.838   3.600   1.449  0.1789  1.0170  1.1008
 4808TIP3    H235840   0.702   3.666   1.459 -1.0163 -1.4815  2.0538
 4809TIP3   OH235841   5.373   0.147  14.992  0.4139  0.0026 -0.1321
 4809TIP3    H135842   5.418   0.206  14.932  1.4369 -0.2981  0.3039
 4809TIP3    H235843   5.291   0.191  15.013  1.0248  1.1367 -0.0400
 4810TIP3   OH235844   5.250   1.943  11.770  0.2679 -0.3082  0.7960
 4810TIP3    H135845   5.213   1.855  11.772 -0.8144  0.1105  0.0436
 4810TIP3    H235846   5.203   1.991  11.838 -1.9093  0.6809 -1.2266
 4811TIP3   OH235847   1.908   3.146  14.028 -0.4897  0.4769  0.2934
 4811TIP3    H135848   1.925   3.239  14.040 -0.5713  0.3792  1.3132
 4811TIP3    H235849   1.960   3.121  13.952  1.6659  0.8200  1.5551
 4812TIP3   OH235850   3.587   0.113   1.747  0.8821 -0.0255  0.3077
 4812TIP3    H135851   3.538   0.195   1.752  1.0569  0.1813 -1.0305
 4812TIP3    H235852   3.676   0.136   1.773  0.3842 -0.3559  2.5182
 4813TIP3   OH235853   2.020   6.753   1.726 -0.6155 -0.1861 -0.1360
 4813TIP3    H135854   2.094   6.697   1.702  0.0600 -0.1723  1.7570
 4813TIP3    H235855   1.984   6.714   1.805 -0.5204  1.6730  0.8916
 4814TIP3   OH235856   2.415   1.593   0.675 -0.1166  0.0321 -0.0746
 4814TIP3    H135857   2.386   1.563   0.589  1.5439 -0.3433 -0.5360
 4814TIP3    H235858   2.342   1.571   0.734 -0.2677 -2.0565 -0.9357
 4815TIP3   OH235859   1.999   5.324   0.455  0.2035  0.3193  0.3732
 4815TIP3    H135860   2.082   5.333   0.501  0.7178  0.8030 -0.6190
 4815TIP3    H235861   1.994   5.401   0.399 -0.3672 -0.2790 -0.4200
 4816TIP3   OH235862   4.189   2.841  13.183 -0.0368 -0.0680  0.6305
 4816TIP3    H135863   4.270   2.883  13.211  0.1115  0.6111 -0.7531
 4816TIP3    H235864   4.212   2.749  13.171  0.5830  0.1475  0.0930
 4817TIP3   OH235865   0.243   1.361  14.142  0.3510 -0.2552  0.0189
 4817TIP3    H135866   0.203   1.442  14.173 -0.4311 -0.3411 -0.7122
 4817TIP3    H235867   0.317   1.390  14.088 -1.6771  0.1850 -2.7759
 4818TIP3   OH235868   5.143   0.784   2.083 -0.4353 -0.7906 -0.1528
 4818TIP3    H135869   5.153   0.693   2.055 -0.7851 -1.2192  1.0516
 4818TIP3    H235870   5.069   0.782   2.144 -0.0961  0.2082  0.3163
 4819TIP3   OH235871   1.621   0.385  13.883  0.2081 -0.5484  0.0404
 4819TIP3    H135872   1.556   0.451  13.909  0.1908 -0.5630  0.0352
 4819TIP3    H235873   1.592   0.305  13.928 -0.1311 -0.7107 -0.4491
 4820TIP3   OH235874   2.137   4.513  16.184  0.1014  0.3681 -0.3299
 4820TIP3    H135875   2.141   4.584  16.121 -0.8765  0.6570 -0.0869
 4820TIP3    H235876   2.044   4.491  16.190  0.2660 -0.1719  0.4322
 4821TIP3   OH235877   2.276   2.479  14.986  0.0349  0.1697 -0.2272
 4821TIP3    H135878   2.236   2.397  15.017  2.0260 -0.7547  0.0807
 4821TIP3    H235879   2.290   2.530  15.066 -1.6862  1.0865 -0.4728
 4822TIP3   OH235880   6.561   4.759  11.106 -0.0958  0.4712  0.3529
 4822TIP3    H135881   6.507   4.743  11.029  0.4695 -2.1145  0.4061
 4822TIP3    H235882   6.649   4.733  11.080  0.3600  0.8408  1.4716
 4823TIP3   OH235883   5.645   2.344   0.619 -0.2359 -0.3396  0.1770
 4823TIP3    H135884   5.588   2.288   0.566  0.4447 -1.3040  0.4336
 4823TIP3    H235885   5.696   2.394   0.555  0.4045 -1.3150 -0.1028
 4824TIP3   OH235886   2.421   5.207   4.568  0.4288  0.4091  0.1417
 4824TIP3    H135887   2.446   5.282   4.622 -0.4765  0.9256 -0.1301
 4824TIP3    H235888   2.504   5.170   4.538  0.9680  0.0233  1.9730
 4825TIP3   OH235889   4.847   0.973   2.909 -0.1401 -0.1807 -0.0018
 4825TIP3    H135890   4.854   0.923   2.827  1.7200  0.5253 -0.3201
 4825TIP3    H235891   4.780   0.927   2.959 -0.1662 -1.5909 -1.2451
 4826TIP3   OH235892   5.811   4.658   2.391 -0.0982 -0.9001 -0.3467
 4826TIP3    H135893   5.889   4.611   2.360  0.0158 -0.7137 -0.3443
 4826TIP3    H235894   5.739   4.623   2.339  0.3594  0.7447 -2.1975
 4827TIP3   OH235895   0.180   4.651  14.100 -0.0990 -0.5829 -0.1671
 4827TIP3    H135896   0.179   4.691  14.187  0.2159 -1.2590  0.1549
 4827TIP3    H235897   0.103   4.686  14.056 -1.5402 -1.9229  1.1693
 4828TIP3   OH235898   5.635   1.631  15.159 -0.0628  0.0281  0.4496
 4828TIP3    H135899   5.700   1.657  15.224  1.8929 -0.2601 -1.2848
 4828TIP3    H235900   5.567   1.697  15.165 -0.0677 -0.1308  2.9291
 4829TIP3   OH235901   2.275   5.150   4.340  0.5184  0.2405  0.1288
 4829TIP3    H135902   2.365   5.133   4.313  0.7321 -3.9642  2.5362
 4829TIP3    H235903   2.281   5.169   4.434 -1.0816 -1.1959  0.5776
 4830TIP3   OH235904   4.100   3.253   1.843  0.4956  0.0252 -0.4257
 4830TIP3    H135905   4.066   3.249   1.932 -0.1414 -1.0338 -0.6986
 4830TIP3    H235906   4.025   3.230   1.788  0.5113  2.0284 -1.3396
 4831TIP3   OH235907   6.055   3.784  13.475 -0.1663 -0.1068 -0.5791
 4831TIP3    H135908   6.097   3.796  13.390 -1.5285  1.8838 -1.0431
 4831TIP3    H235909   5.962   3.770  13.454  0.0189 -4.0052  0.4219
 4832TIP3   OH235910   0.184   1.952   3.067  0.2600  0.0686 -0.1789
 4832TIP3    H135911   0.211   1.862   3.083  1.2728  0.4268  0.2057
 4832TIP3    H235912   0.203   1.998   3.149 -0.3315  0.6215 -0.3383
 4833TIP3   OH235913   3.391   4.183  13.989 -0.1116  0.3691  0.0870
 4833TIP3    H135914   3.377   4.182  14.083  0.4707  0.5897  0.1796
 4833TIP3    H235915   3.452   4.255  13.974  1.0881 -0.6686 -0.2672
 4834TIP3   OH235916   2.023   5.357  11.784  0.3824  0.7437  0.1555
 4834TIP3    H135917   2.111   5.351  11.822 -0.1299  1.0489  1.4455
 4834TIP3    H235918   2.036   5.397  11.698  1.7036 -0.9059 -0.4694
 4835TIP3   OH235919   3.408   5.394   2.454 -0.8589  0.2018  0.7960
 4835TIP3    H135920   3.348   5.334   2.409 -0.3471  0.5685 -0.4311
 4835TIP3    H235921   3.362   5.479   2.451 -0.0306  0.6421 -0.7872
 4836TIP3   OH235922   6.294   3.431   5.055 -0.5749  0.6733  0.1131
 4836TIP3    H135923   6.315   3.396   5.142 -1.4673  1.1185  0.5130
 4836TIP3    H235924   6.271   3.353   5.004  2.1231  0.1007 -0.4302
 4837TIP3   OH235925   3.295   0.599   1.800 -0.1603  0.2892  0.2867
 4837TIP3    H135926   3.229   0.533   1.817 -0.6736  0.3811 -1.1831
 4837TIP3    H235927   3.340   0.568   1.721  0.3200  1.1380  0.2094
 4838TIP3   OH235928   6.270   2.844  15.554  0.0991  0.5532  0.0562
 4838TIP3    H135929   6.227   2.768  15.592  0.8909  0.5069  0.9214
 4838TIP3    H235930   6.353   2.811  15.521  0.2738  0.9634  0.0744
 4839TIP3   OH235931   3.189   4.122  13.006  0.0594  0.2351 -0.3366
 4839TIP3    H135932   3.125   4.176  12.961  0.1661  0.4764 -0.1974
 4839TIP3    H235933   3.170   4.134  13.099 -1.8455 -2.2545 -0.3007
 4840TIP3   OH235934   4.018   4.519   0.747  0.0384  0.6467  0.1356
 4840TIP3    H135935   4.075   4.582   0.792  0.5521  0.4278 -0.1935
 4840TIP3    H235936   4.074   4.442   0.734  0.9746  1.7456 -3.6050
 4841TIP3   OH235937   4.951   0.968  12.676  0.1315 -0.4042  0.0239
 4841TIP3    H135938   4.921   0.913  12.604 -1.3606  0.7051 -0.2468
 4841TIP3    H235939   4.883   0.959  12.743 -0.0259  0.9370  0.0633
 4842TIP3   OH235940   5.163   1.522  17.055  0.4993  0.5036  0.4850
 4842TIP3    H135941   5.195   1.534  17.144  0.7597  1.9431  0.2133
 4842TIP3    H235942   5.068   1.516  17.064  0.5739 -0.1123  0.9237
 4843TIP3   OH235943   5.048   0.947   4.882 -0.1296 -0.0045 -0.7839
 4843TIP3    H135944   5.044   1.032   4.839 -2.5457 -0.0087 -0.7040
 4843TIP3    H235945   5.010   0.887   4.818  1.6147 -1.0921 -0.8773
 4844TIP3   OH235946   4.672   5.120   0.363 -0.1399 -0.1316  1.2495
 4844TIP3    H135947   4.685   5.106   0.269  0.1671 -1.2252  1.4445
 4844TIP3    H235948   4.596   5.179   0.368  0.5549  0.8962  0.2958
 4845TIP3   OH235949   1.261   2.402  11.995  0.6449  0.2141 -0.3664
 4845TIP3    H135950   1.271   2.488  12.035  0.0802 -1.0319  2.6962
 4845TIP3    H235951   1.185   2.363  12.039  0.7980 -1.8234 -1.7352
 4846TIP3   OH235952   1.534   5.965  13.052 -0.6799 -0.3366 -0.1380
 4846TIP3    H135953   1.459   5.922  13.010 -0.9873  2.1284 -2.4505
 4846TIP3    H235954   1.610   5.935  13.003 -0.6386  0.0206 -0.3007
 4847TIP3   OH235955   3.019   6.148   1.956  0.1452 -0.1175 -0.2384
 4847TIP3    H135956   3.007   6.178   1.866 -0.0568  0.8237  0.0939
 4847TIP3    H235957   3.104   6.185   1.982 -0.2279  0.4030  0.2595
 4848TIP3   OH235958   3.070   1.703   6.134  0.1544  0.7653 -0.2553
 4848TIP3    H135959   3.039   1.781   6.088  1.0469  0.1398 -2.0420
 4848TIP3    H235960   3.015   1.697   6.212  0.1386  3.2235 -0.0030
 4849TIP3   OH235961   1.781   6.021   3.775  0.2523 -0.8905  0.2038
 4849TIP3    H135962   1.731   5.988   3.849 -0.1656 -1.1815 -0.2048
 4849TIP3    H235963   1.716   6.066   3.720  0.3389 -1.6837 -0.5700
 4850TIP3   OH235964   3.501   0.640   4.439 -0.0505  0.6680  0.5747
 4850TIP3    H135965   3.511   0.695   4.517  0.5807  0.9322  0.3099
 4850TIP3    H235966   3.576   0.662   4.384 -0.8075  0.9141 -0.3834
 4851TIP3   OH235967   2.276   1.444  11.418 -0.0020 -0.2392 -0.2815
 4851TIP3    H135968   2.368   1.460  11.401 -0.1483  0.6585 -0.2705
 4851TIP3    H235969   2.273   1.415  11.510  0.1205  1.2122  0.2019
 4852TIP3   OH235970   2.081   2.628  13.062  0.0583 -0.3185  0.0999
 4852TIP3    H135971   2.143   2.603  12.993  1.3778 -0.6770  1.3670
 4852TIP3    H235972   2.067   2.721  13.049  1.7876  0.0335  0.4479
 4853TIP3   OH235973   0.583   3.320  15.191 -0.1390 -1.1190 -0.7051
 4853TIP3    H135974   0.502   3.282  15.158 -0.0017 -1.8898 -0.1861
 4853TIP3    H235975   0.568   3.328  15.285  0.3183 -1.1003 -0.6337
 4854TIP3   OH235976   0.817   5.721   2.810 -0.0004  0.3749 -0.0298
 4854TIP3    H135977   0.858   5.640   2.839  0.1931  0.9720  1.5032
 4854TIP3    H235978   0.758   5.695   2.740  2.9849 -0.5326 -2.4551
 4855TIP3   OH235979   1.117   1.357  14.255 -0.4110  0.5292 -0.1766
 4855TIP3    H135980   1.153   1.360  14.344  1.5735 -1.4134 -0.8141
 4855TIP3    H235981   1.060   1.433  14.250 -0.0031  1.1330  2.5056
 4856TIP3   OH235982   5.979   1.610  11.863  0.2930 -0.3248 -0.2072
 4856TIP3    H135983   6.074   1.620  11.851  0.4745 -1.7129 -0.1499
 4856TIP3    H235984   5.943   1.612  11.774  0.3756  0.1710 -0.2315
 4857TIP3   OH235985   3.231   2.259  11.947 -0.2047  0.4727  0.0935
 4857TIP3    H135986   3.323   2.237  11.934 -0.1672  1.1369 -0.9043
 4857TIP3    H235987   3.230   2.312  12.027 -0.3062 -2.9454  2.5360
 4858TIP3   OH235988   2.463   0.085  16.696 -0.4089  0.3401 -0.6652
 4858TIP3    H135989   2.398   0.075  16.766  0.1406  3.0337  0.3673
 4858TIP3    H235990   2.461   0.178  16.675  0.8256 -0.0833 -2.9357
 4859TIP3   OH235991   5.463   1.197  11.016  0.4637 -0.4601 -0.2240
 4859TIP3    H135992   5.477   1.144  11.094  0.4589 -2.9266 -1.7836
 4859TIP3    H235993   5.539   1.180  10.961  0.0821  0.5502 -1.1010
 4860TIP3   OH235994   0.937   5.973  14.869 -0.1160  0.1224  0.2534
 4860TIP3    H135995   1.015   5.950  14.919  0.3969  1.8245  0.3009
 4860TIP3    H235996   0.936   6.069  14.869 -0.2326  0.2008 -2.8017
 4861TIP3   OH235997   1.855   2.411   1.672 -0.4768 -0.1663 -0.0225
 4861TIP3    H135998   1.853   2.351   1.747  1.9429 -1.4581 -0.8844
 4861TIP3    H235999   1.926   2.473   1.693  0.7676 -1.0130 -1.5090
 4862TIP3   OH236000   6.138   4.218  12.065 -0.2794  0.5955  0.9739
 4862TIP3    H136001   6.142   4.127  12.097 -1.1230  0.4540  0.7019
 4862TIP3    H236002   6.070   4.259  12.118 -1.5885  0.4034 -0.4971
 4863TIP3   OH236003   3.153   2.066   5.395 -0.3772 -0.0632 -0.2567
 4863TIP3    H136004   3.241   2.073   5.357 -0.6394  1.3795 -0.6560
 4863TIP3    H236005   3.112   1.994   5.346  0.8762 -1.4312  0.6174
 4864TIP3   OH236006   1.357   3.435  16.335 -0.1117  0.0171  0.0669
 4864TIP3    H136007   1.304   3.477  16.267  1.0579 -0.1793 -1.0097
 4864TIP3    H236008   1.438   3.410  16.290  0.5807 -0.3818  1.4799
 4865TIP3   OH236009   0.565   3.729   3.879  0.4843  0.5661 -0.3905
 4865TIP3    H136010   0.605   3.806   3.920  1.6260  0.3873 -1.1167
 4865TIP3    H236011   0.629   3.702   3.812  0.5063 -1.5165  0.4153
 4866TIP3   OH236012   0.421   4.497   1.567  0.3153 -0.0673 -0.0243
 4866TIP3    H136013   0.383   4.576   1.528  0.2060 -0.6801 -1.2008
 4866TIP3    H236014   0.346   4.445   1.594  0.2790 -0.9807 -1.7498
 4867TIP3   OH236015   1.389   6.738  11.425  0.8569 -0.4907  0.0174
 4867TIP3    H136016   1.378   6.685  11.504  0.3487 -0.2478  0.1152
 4867TIP3    H236017   1.302   6.775  11.409  0.9146 -0.6722 -0.7537
 4868TIP3   OH236018   1.107   0.235   2.358 -0.2821 -0.2688  0.3439
 4868TIP3    H136019   1.013   0.223   2.371 -0.8528  0.1324 -2.6983
 4868TIP3    H236020   1.119   0.330   2.355  0.1083 -0.3253  0.0314
 4869TIP3   OH236021   0.080   5.159  16.341  0.0030 -0.4023  0.1929
 4869TIP3    H136022   0.136   5.186  16.413 -0.4317  0.3588  0.2593
 4869TIP3    H236023   0.100   5.221  16.270  0.0667 -0.8300 -0.1684
 4870TIP3   OH236024   2.405   1.062   6.398  0.3236 -0.0481  0.1994
 4870TIP3    H136025   2.350   0.996   6.440  0.7103 -0.3994  0.1593
 4870TIP3    H236026   2.473   1.081   6.463 -0.5296  1.2761  0.7344
 4871TIP3   OH236027   5.537   1.695   0.857 -0.0796  0.2811 -0.8167
 4871TIP3    H136028   5.506   1.775   0.816  2.4894  0.5809 -2.3998
 4871TIP3    H236029   5.536   1.630   0.787 -0.5873 -0.6630  0.0351
 4872TIP3   OH236030   3.649   3.182   6.252 -0.2936  0.3399 -0.7750
 4872TIP3    H136031   3.583   3.164   6.319 -0.3017 -0.3115 -0.9475
 4872TIP3    H236032   3.731   3.149   6.289 -0.0307  1.2823 -0.4997
 4873TIP3   OH236033   4.152   2.040  11.743 -0.7757  0.0484 -0.1057
 4873TIP3    H136034   4.131   1.976  11.675 -0.9142  0.8514 -0.8298
 4873TIP3    H236035   4.215   2.100  11.701 -3.3322  2.5468 -0.7082
 4874TIP3   OH236036   4.075   0.651  17.299 -0.7842  0.0634  0.0704
 4874TIP3    H136037   4.039   0.711  17.365  0.1333  1.5531 -0.7380
 4874TIP3    H236038   4.054   0.564  17.332 -3.4637  0.8199  0.5483
 4875TIP3   OH236039   1.748   1.548   4.492 -0.1286  0.0274  0.0679
 4875TIP3    H136040   1.737   1.631   4.446 -1.3981 -0.2557 -0.1855
 4875TIP3    H236041   1.813   1.500   4.440  1.0520  1.0638  0.5416
 4876TIP3   OH236042   4.645   5.561  16.055  0.2734  0.1206 -0.1332
 4876TIP3    H136043   4.575   5.605  16.103  2.0513  1.8712  1.0127
 4876TIP3    H236044   4.611   5.551  15.966 -1.7037  0.1732  0.5769
 4877TIP3   OH236045   3.421   1.764  14.087 -0.7160  0.2956  0.5166
 4877TIP3    H136046   3.466   1.815  14.020 -0.8441  0.5095  0.5928
 4877TIP3    H236047   3.410   1.678  14.048 -1.8874  0.7548 -0.2201
 4878TIP3   OH236048   2.184   4.820  14.722  0.3425  0.0408 -0.1654
 4878TIP3    H136049   2.172   4.915  14.716  0.5500  0.0166 -1.0143
 4878TIP3    H236050   2.176   4.801  14.816 -0.6707  0.7592 -0.0883
 4879TIP3   OH236051   0.076   5.887   1.217 -0.0605  0.4168 -0.2841
 4879TIP3    H136052   0.140   5.888   1.146 -0.4825  1.6049 -0.6637
 4879TIP3    H236053  -0.007   5.869   1.174  0.0073 -1.3080  0.2311
 4880TIP3   OH236054   1.180   2.844   3.940 -0.1884 -0.5421  0.1015
 4880TIP3    H136055   1.119   2.770   3.943 -1.0758  0.0080 -2.3100
 4880TIP3    H236056   1.256   2.812   3.893 -0.6562  0.1035 -1.1281
 4881TIP3   OH236057   4.317   4.214   5.957  0.1130  0.4619 -0.0688
 4881TIP3    H136058   4.406   4.239   5.931 -0.1827 -0.2118 -1.8578
 4881TIP3    H236059   4.316   4.119   5.946 -1.0003  0.5324 -0.6587
 4882TIP3   OH236060   5.794   3.422  14.760 -0.0539 -0.3893 -0.6359
 4882TIP3    H136061   5.748   3.359  14.704 -1.4195  0.5867 -0.6807
 4882TIP3    H236062   5.725   3.458  14.816  0.7801  0.7079 -0.2892
 4883TIP3   OH236063   1.403   6.181   2.961  0.0382 -0.0453 -0.1158
 4883TIP3    H136064   1.389   6.129   2.881  0.3311  1.2077 -1.0048
 4883TIP3    H236065   1.318   6.221   2.978 -0.4679 -1.5681  1.1558
 4884TIP3   OH236066   3.183   0.618  11.457  0.3917 -0.1004 -0.2060
 4884TIP3    H136067   3.116   0.686  11.458  0.9035  0.4178 -0.7612
 4884TIP3    H236068   3.233   0.634  11.377 -0.3135 -1.9642 -1.0592
 4885TIP3   OH236069   0.621   3.874  15.722  0.2282 -0.0044 -0.2163
 4885TIP3    H136070   0.590   3.838  15.639 -0.6525 -0.4437  0.2935
 4885TIP3    H236071   0.690   3.814  15.749  0.9708  0.5040 -0.9410
 4886TIP3   OH236072   1.183   0.571   3.413  0.2264 -0.0097  0.6744
 4886TIP3    H136073   1.275   0.549   3.400  1.1688  4.0526 -0.8481
 4886TIP3    H236074   1.138   0.528   3.340  0.9760 -1.3901  0.9912
 4887TIP3   OH236075   5.158   4.554   3.430 -0.0584 -0.4560  0.1785
 4887TIP3    H136076   5.125   4.594   3.350 -0.0806  1.6544  1.1692
 4887TIP3    H236077   5.143   4.461   3.418 -1.8664 -0.0278 -1.4544
 4888TIP3   OH236078   3.111   5.110  14.213  1.1066 -0.0771  0.6200
 4888TIP3    H136079   3.055   5.038  14.182 -1.8709  2.1460  0.3827
 4888TIP3    H236080   3.098   5.111  14.308  0.1883  0.8322  0.4972
 4889TIP3   OH236081   1.733   1.583  12.703  0.1856  0.1702  0.3395
 4889TIP3    H136082   1.806   1.645  12.706 -0.0045  0.4347 -0.3620
 4889TIP3    H236083   1.665   1.624  12.757  0.2367  0.3441  0.2740
 4890TIP3   OH236084   2.218   6.418   2.546 -0.5233  0.5567  0.0534
 4890TIP3    H136085   2.165   6.343   2.574 -0.3562 -0.1375 -1.3808
 4890TIP3    H236086   2.306   6.382   2.535 -0.1306  1.2915  0.6596
 4891TIP3   OH236087   1.858   5.107   0.375 -0.5415  0.1667  0.2205
 4891TIP3    H136088   1.894   5.189   0.408  2.3713 -1.7481  2.3207
 4891TIP3    H236089   1.914   5.085   0.300 -2.1538  0.6749 -1.1788
 4892TIP3   OH236090   4.380   4.863   5.118  0.0336 -0.0615  0.4082
 4892TIP3    H136091   4.374   4.926   5.046 -1.1920 -1.3135 -0.6397
 4892TIP3    H236092   4.419   4.912   5.190  2.1604  0.9898 -1.3636
 4893TIP3   OH236093   5.480   5.711   3.305  0.1941 -0.1618 -0.4999
 4893TIP3    H136094   5.392   5.747   3.302  0.6187  0.8299 -2.1132
 4893TIP3    H236095   5.526   5.766   3.369 -0.8773 -2.1020  2.1204
 4894TIP3   OH236096   5.949   2.940   5.697 -0.0261  0.1877  0.1410
 4894TIP3    H136097   5.931   2.893   5.778 -1.3471  1.9074  0.9378
 4894TIP3    H236098   6.044   2.937   5.688  0.2382  0.4950  2.1524
 4895TIP3   OH236099   5.847   5.336   3.331 -0.0139  0.0361 -0.3217
 4895TIP3    H136100   5.840   5.403   3.264 -1.9727 -0.5056 -0.6942
 4895TIP3    H236101   5.942   5.325   3.344  0.3579  2.4168 -0.6599
 4896TIP3   OH236102   1.647   3.282  15.632  0.4746 -0.6992 -0.2276
 4896TIP3    H136103   1.726   3.252  15.586  2.6737  2.0447  1.3841
 4896TIP3    H236104   1.602   3.337  15.568  1.4592  0.0300 -0.3266
 4897TIP3   OH236105   6.444   6.405  14.951  0.2708  0.3844 -0.3112
 4897TIP3    H136106   6.531   6.371  14.973  1.3930  3.6817  0.9933
 4897TIP3    H236107   6.459   6.498  14.933 -3.2184  1.4713  1.6217
 4898TIP3   OH236108   1.403   3.065  14.735  0.1731 -0.3933 -0.1369
 4898TIP3    H136109   1.476   3.006  14.753  0.5257 -0.1407 -0.7148
 4898TIP3    H236110   1.399   3.123  14.810  0.0111 -0.9616  0.3016
 4899TIP3   OH236111   1.054   5.689   5.490  0.1953  0.0677 -0.3652
 4899TIP3    H136112   1.120   5.655   5.551 -0.6729 -1.7967 -0.4069
 4899TIP3    H236113   0.978   5.633   5.503 -0.3721  0.2806 -2.4426
 4900TIP3   OH236114   1.011   3.782  11.505  0.1706  0.2952 -0.6870
 4900TIP3    H136115   1.096   3.819  11.530 -0.4739  0.9907  0.5278
 4900TIP3    H236116   0.951   3.856  11.510 -0.8674 -0.5913  0.3574
 4901TIP3   OH236117   5.824   4.249  13.696 -0.0315 -0.1303 -0.3961
 4901TIP3    H136118   5.902   4.194  13.703  0.6470  0.9239  1.0220
 4901TIP3    H236119   5.793   4.258  13.787 -0.1026  1.7881 -0.5520
 4902TIP3   OH236120   1.559   4.993   2.041 -0.1508 -0.8183  0.1192
 4902TIP3    H136121   1.509   5.065   2.001  0.9619  0.3968  0.8172
 4902TIP3    H236122   1.506   4.966   2.115 -0.9655 -1.2830 -0.6184
 4903TIP3   OH236123   4.312   2.588  11.850 -0.5007  0.2749 -0.4975
 4903TIP3    H136124   4.353   2.526  11.910  1.4091  0.1509 -1.8511
 4903TIP3    H236125   4.385   2.638  11.813 -1.8531  2.3068 -0.6180
 4904TIP3   OH236126   1.172   2.069  14.451 -0.0111  0.0966  0.1747
 4904TIP3    H136127   1.148   2.140  14.392 -0.7774 -2.4014 -2.7684
 4904TIP3    H236128   1.266   2.081  14.466 -0.0272  1.4018 -0.6561
 4905TIP3   OH236129   5.427   4.932   2.053 -0.3353 -0.1837 -0.0242
 4905TIP3    H136130   5.357   4.909   2.113  0.3836 -0.3942  0.7421
 4905TIP3    H236131   5.384   4.939   1.967 -1.4494  0.5963  0.5761
 4906TIP3   OH236132   2.768   3.870   6.442 -0.2702 -0.3017  0.0126
 4906TIP3    H136133   2.828   3.874   6.517  0.6078  2.0599 -0.7265
 4906TIP3    H236134   2.681   3.867   6.481  0.1755  0.6459  1.1538
 4907TIP3   OH236135   4.501   3.980  15.070 -0.3427  0.4280  0.4762
 4907TIP3    H136136   4.542   3.894  15.078  1.6947  1.3040  0.0565
 4907TIP3    H236137   4.549   4.035  15.131 -0.5561  1.6293 -0.4092
 4908TIP3   OH236138   4.510   1.112   2.872 -0.3155  0.2084 -0.0231
 4908TIP3    H136139   4.597   1.075   2.857  0.1823  1.1578  0.3943
 4908TIP3    H236140   4.493   1.168   2.796  0.1922  1.3566  0.6814
 4909TIP3   OH236141   0.127   2.991  13.151 -0.0811 -0.0651 -1.1164
 4909TIP3    H136142   0.171   3.003  13.066  0.7795  0.3872 -0.6221
 4909TIP3    H236143   0.111   3.080  13.182  1.6448 -0.1499  0.2023
 4910TIP3   OH236144   6.732   1.869   4.331 -0.0087  0.3228 -0.2668
 4910TIP3    H136145   6.666   1.816   4.377  0.5080 -0.1331 -0.0395
 4910TIP3    H236146   6.810   1.814   4.330  0.3012  0.7665 -0.7458
 4911TIP3   OH236147   1.785   2.662  12.845 -0.0111  0.2232 -0.2676
 4911TIP3    H136148   1.834   2.631  12.769 -2.8542 -0.8093 -1.8406
 4911TIP3    H236149   1.754   2.582  12.888  0.7675  0.8081  1.4717
 4912TIP3   OH236150   2.393   3.793  13.598  0.3169  0.4813 -0.3877
 4912TIP3    H136151   2.320   3.766  13.542  0.0355 -0.5066  0.4140
 4912TIP3    H236152   2.388   3.734  13.673  1.3740  1.0278  0.1327
 4913TIP3   OH236153   2.174   4.694  12.221  0.0036 -0.3820  0.0241
 4913TIP3    H136154   2.110   4.676  12.289 -0.5645 -1.0437 -0.6632
 4913TIP3    H236155   2.238   4.623  12.229 -1.3845 -1.9075 -1.6712
 4914TIP3   OH236156   1.235   1.993  17.287  0.5839  0.3660  0.3733
 4914TIP3    H136157   1.196   2.048  17.355 -0.2094  0.4105 -0.0997
 4914TIP3    H236158   1.189   2.019  17.207  2.3918  1.2716 -0.4464
 4915TIP3   OH236159   1.680   2.979  10.781 -0.0368 -0.3027  0.3578
 4915TIP3    H136160   1.719   3.031  10.851  0.6057 -0.5932  0.2284
 4915TIP3    H236161   1.612   3.035  10.744  0.2999  0.2451  0.5569
 4916TIP3   OH236162   3.382   5.918  13.129  0.0617  0.3983 -0.1074
 4916TIP3    H136163   3.331   5.986  13.084 -2.4889  0.4452  2.5593
 4916TIP3    H236164   3.364   5.838  13.080  0.5131  1.0507 -1.4010
 4917TIP3   OH236165   5.339   3.719  15.165  0.5600 -0.7071 -0.1695
 4917TIP3    H136166   5.409   3.653  15.175  1.7657  0.6641  0.9125
 4917TIP3    H236167   5.335   3.735  15.071 -0.0179 -2.5624 -0.5031
 4918TIP3   OH236168   5.267   3.828  16.990  0.6618  0.3019 -0.4144
 4918TIP3    H136169   5.357   3.859  16.986  1.2090 -1.3162 -1.8529
 4918TIP3    H236170   5.230   3.849  16.904 -0.8497  2.2183  0.6058
 4919TIP3   OH236171   4.086   2.911  17.113  0.0950 -0.1959  0.3839
 4919TIP3    H136172   4.008   2.859  17.091  0.2034  0.3356 -1.4091
 4919TIP3    H236173   4.160   2.852  17.099  0.1076 -0.2387  0.6154
 4920TIP3   OH236174   4.608   2.337  13.878  0.3068  0.5623  0.1136
 4920TIP3    H136175   4.674   2.406  13.887  2.1127 -1.1242  0.5357
 4920TIP3    H236176   4.624   2.279  13.952  0.1051 -1.3040 -1.2337
 4921TIP3   OH236177   3.011   1.803   3.989 -0.5444 -0.2264  0.0062
 4921TIP3    H136178   2.971   1.777   3.906 -0.0534 -1.0935  0.0210
 4921TIP3    H236179   3.073   1.872   3.965 -1.8615  0.9759 -0.0441
 4922TIP3   OH236180   5.797   1.603   3.091 -0.2725 -0.7507  0.0688
 4922TIP3    H136181   5.870   1.551   3.058 -0.6916 -1.3773  0.1161
 4922TIP3    H236182   5.830   1.642   3.172 -0.5903 -2.5686  1.1191
 4923TIP3   OH236183   1.565   6.179   6.641 -0.1468 -0.1433  0.3654
 4923TIP3    H136184   1.537   6.182   6.732 -0.7509  2.7939  0.1953
 4923TIP3    H236185   1.587   6.088   6.625 -1.9434 -1.1187  2.8607
 4924TIP3   OH236186   4.002   0.945  10.808  1.0152 -0.4878  0.3606
 4924TIP3    H136187   4.089   0.968  10.777  0.8984  0.5956  0.8053
 4924TIP3    H236188   3.946   0.952  10.730  1.2350 -0.7342  0.1785
 4925TIP3   OH236189   5.298   5.266  16.412 -0.1241 -0.2395  0.3683
 4925TIP3    H136190   5.318   5.256  16.319  2.1525 -3.1133  1.0274
 4925TIP3    H236191   5.345   5.195  16.455 -1.4356  0.7067  3.7226
 4926TIP3   OH236192   1.597   1.930  16.887  0.3128 -0.2619 -0.1641
 4926TIP3    H136193   1.646   1.985  16.825  1.9472 -2.2497 -0.7450
 4926TIP3    H236194   1.529   1.988  16.920 -0.2221  1.1313 -3.2812
 4927TIP3   OH236195   3.073   6.538   2.064 -0.0395 -0.0522 -0.6580
 4927TIP3    H136196   3.025   6.540   1.980  0.8635  1.0407 -1.1703
 4927TIP3    H236197   3.107   6.627   2.074  0.2564 -0.2979  0.6595
 4928TIP3   OH236198   0.020   6.590   0.736 -0.1896 -0.2604  0.1963
 4928TIP3    H136199   0.024   6.568   0.643  0.3203 -0.9368  0.3717
 4928TIP3    H236200  -0.064   6.556   0.765  0.1583 -1.1289  0.2373
 4929TIP3   OH236201   5.882   2.733   3.019  0.4701  0.2516  0.1745
 4929TIP3    H136202   5.914   2.772   3.100  0.0998  0.3053  0.2998
 4929TIP3    H236203   5.813   2.673   3.048  0.9460 -0.4000 -0.0253
 4930TIP3   OH236204   3.622   4.751   1.969 -0.4127 -0.1312  0.1371
 4930TIP3    H136205   3.612   4.752   2.064  0.3949 -1.4789  0.2699
 4930TIP3    H236206   3.712   4.782   1.954 -1.1263  1.7985 -0.3244
 4931TIP3   OH236207   6.178   1.223  16.139  0.4236  0.1883 -0.9434
 4931TIP3    H136208   6.144   1.264  16.219 -2.7067 -1.6783 -1.1622
 4931TIP3    H236209   6.106   1.228  16.076  0.9239 -2.8127 -1.9398
 4932TIP3   OH236210   3.753   1.559   3.413 -0.0147 -0.3431  0.4365
 4932TIP3    H136211   3.769   1.651   3.432 -1.5494  0.0873 -0.2332
 4932TIP3    H236212   3.733   1.557   3.320 -1.5010 -1.1169  0.7450
 4933TIP3   OH236213   4.589   6.648   5.370  0.1339  0.1513  0.5853
 4933TIP3    H136214   4.649   6.723   5.372  0.1583  0.1184  1.1975
 4933TIP3    H236215   4.582   6.620   5.461  0.4353 -0.8378  0.3243
 4934TIP3   OH236216   6.514   1.840  17.290  0.0522 -0.3656  0.1459
 4934TIP3    H136217   6.452   1.911  17.309 -2.0000 -2.4123  1.6473
 4934TIP3    H236218   6.539   1.807  17.377  0.0704 -2.1618 -0.5050
 4935TIP3   OH236219   5.481   5.701  13.753 -1.0842  0.1241 -0.4578
 4935TIP3    H136220   5.419   5.707  13.825 -2.6874  0.6354 -1.8248
 4935TIP3    H236221   5.441   5.751  13.682  1.6854  1.9828 -0.8839
 4936TIP3   OH236222   2.107   1.811   0.628 -0.1855  0.2198  0.3121
 4936TIP3    H136223   2.052   1.774   0.559  0.3962  2.7675 -1.6616
 4936TIP3    H236224   2.180   1.852   0.582  0.2419  2.0254  2.4209
 4937TIP3   OH236225   1.431   2.242   3.363  0.3531 -0.0546  0.2767
 4937TIP3    H136226   1.434   2.186   3.441  0.1070  0.6994  0.8378
 4937TIP3    H236227   1.353   2.213   3.316  0.9570 -1.0796 -0.1418
 4938TIP3   OH236228   1.397   2.604   0.189 -0.0646  0.7949  0.4201
 4938TIP3    H136229   1.400   2.694   0.157  2.5247  0.5849 -0.0846
 4938TIP3    H236230   1.462   2.557   0.137 -0.4743 -1.0972  1.5252
 4939TIP3   OH236231   2.706   1.261  13.853 -0.0024  0.1155  0.1951
 4939TIP3    H136232   2.678   1.345  13.890  0.9144  0.6353 -0.2490
 4939TIP3    H236233   2.711   1.202  13.928  1.9288  1.1764  0.9823
 4940TIP3   OH236234   0.514   4.011   6.303  0.2471  0.4473 -0.1518
 4940TIP3    H136235   0.504   3.933   6.359  1.4150  1.9339  2.2737
 4940TIP3    H236236   0.444   4.070   6.332  0.7547  1.1844 -0.4129
 4941TIP3   OH236237   3.177   0.000  13.204  0.2742  0.2787 -0.6172
 4941TIP3    H136238   3.127   0.059  13.147 -0.9871  0.7527  0.9078
 4941TIP3    H236239   3.252   0.052  13.233  0.0939  0.5498 -0.6374
 4942TIP3   OH236240   2.370   3.809   2.107 -0.2098 -0.8296 -0.3413
 4942TIP3    H136241   2.456   3.837   2.139 -0.4862  0.6976 -0.8378
 4942TIP3    H236242   2.350   3.872   2.037 -2.3481 -0.2589  0.7185
 4943TIP3   OH236243   2.129   5.236  13.615  0.4899 -0.0277 -0.0898
 4943TIP3    H136244   2.145   5.257  13.523  1.0806 -2.0693 -0.5069
 4943TIP3    H236245   2.043   5.194  13.614 -0.3758  1.6543  0.6138
 4944TIP3   OH236246   1.138   0.490   0.286  0.1358  0.1960  0.4456
 4944TIP3    H136247   1.219   0.448   0.257  0.2490  1.1401 -0.6583
 4944TIP3    H236248   1.076   0.474   0.216  0.1328  1.6814  0.0622
 4945TIP3   OH236249   5.720   4.671   2.792 -0.4958 -0.0551 -0.1052
 4945TIP3    H136250   5.661   4.727   2.841 -0.7374 -0.4784  0.0995
 4945TIP3    H236251   5.744   4.722   2.715 -0.1257  0.6046  0.4434
 4946TIP3   OH236252   1.767   1.247   1.446  0.1121 -0.1979 -0.3135
 4946TIP3    H136253   1.772   1.310   1.518 -4.0484 -0.1020  0.1248
 4946TIP3    H236254   1.828   1.281   1.381 -0.3189  3.0907  0.7896
 4947TIP3   OH236255   5.345   1.258  11.898 -0.1247 -0.0926  0.4968
 4947TIP3    H136256   5.407   1.186  11.887 -0.1738 -0.2391  1.1627
 4947TIP3    H236257   5.379   1.308  11.972  0.2354  0.9143 -0.3400
 4948TIP3   OH236258   1.818   0.031  15.010  0.0791  0.3068  0.2563
 4948TIP3    H136259   1.846  -0.004  15.095 -0.9537  0.2002  0.5681
 4948TIP3    H236260   1.727   0.003  15.001  0.4767 -0.5520 -1.3741
 4949TIP3   OH236261   6.432   3.129  13.323 -0.2203 -0.4441  0.4228
 4949TIP3    H136262   6.490   3.081  13.382 -0.8491 -0.5643  0.9548
 4949TIP3    H236263   6.368   3.064  13.294  0.5861 -0.6049 -1.0927
 4950TIP3   OH236264   3.583   2.445  13.848  0.4900  0.0688 -0.1919
 4950TIP3    H136265   3.595   2.539  13.858  2.9168 -0.0947 -0.9953
 4950TIP3    H236266   3.630   2.406  13.921  0.7558 -0.5456 -0.6761
 4951TIP3   OH236267   5.636   2.830   6.928 -0.0025  0.0756 -0.1369
 4951TIP3    H136268   5.655   2.816   6.835 -0.0064  0.9590 -0.2770
 4951TIP3    H236269   5.721   2.846   6.969  0.0565 -0.7972  0.1142
 4952TIP3   OH236270   3.796   2.708   4.251  0.2723 -0.2539 -0.0723
 4952TIP3    H136271   3.738   2.678   4.322  1.1110 -1.4780  0.1103
 4952TIP3    H236272   3.736   2.745   4.186 -0.7931 -2.0455 -0.1616
 4953TIP3   OH236273   4.496   5.853  12.746 -0.7865  0.1026  0.2849
 4953TIP3    H136274   4.448   5.774  12.772  0.3146 -0.8235 -0.3868
 4953TIP3    H236275   4.505   5.845  12.651  1.1561 -0.0606  0.4444
 4954TIP3   OH236276   1.954   4.351   2.583 -0.7939  0.2467 -0.5716
 4954TIP3    H136277   1.968   4.443   2.602  0.8298 -0.1789  0.5242
 4954TIP3    H236278   1.938   4.347   2.489  1.4197  1.4241 -1.0442
 4955TIP3   OH236279   4.996   0.120   3.950  0.2345 -1.0742  0.8037
 4955TIP3    H136280   5.013   0.105   3.857 -0.7906  0.1085  0.3893
 4955TIP3    H236281   5.083   0.122   3.991  0.7513 -0.7818 -0.2732
 4956TIP3   OH236282   5.156   1.565  13.862  0.2910 -0.5160 -0.7502
 4956TIP3    H136283   5.144   1.630  13.792  1.2831 -1.3698 -1.7518
 4956TIP3    H236284   5.110   1.487  13.831  1.4472 -1.1769 -0.8836
 4957TIP3   OH236285   1.514   3.654  16.418 -0.1934  0.2901  0.1636
 4957TIP3    H136286   1.461   3.577  16.437 -0.0173 -0.0554 -0.7005
 4957TIP3    H236287   1.557   3.633  16.335  2.1813  0.0867  1.3695
 4958TIP3   OH236288   2.617   5.755  12.919  0.0771  0.0554 -0.7496
 4958TIP3    H136289   2.675   5.759  12.995  0.1469 -1.3353 -0.6890
 4958TIP3    H236290   2.676   5.743  12.845  0.0162  1.5397 -1.0545
 4959TIP3   OH236291   1.422   0.452   3.494  0.8042  0.0082  0.4120
 4959TIP3    H136292   1.436   0.484   3.583 -2.2011 -1.1094  1.4389
 4959TIP3    H236293   1.483   0.379   3.485  2.4932  1.3146  0.7761
 4960TIP3   OH236294   0.272   5.665  14.247 -0.0741  0.4986 -0.1435
 4960TIP3    H136295   0.252   5.580  14.208 -0.2596  0.9385 -1.0251
 4960TIP3    H236296   0.353   5.692  14.205 -0.5369  1.2030 -0.6040
 4961TIP3   OH236297   1.974   1.695   1.813  0.3480  0.7287 -0.1126
 4961TIP3    H136298   2.023   1.709   1.894  1.6275 -0.8607 -0.5669
 4961TIP3    H236299   2.013   1.757   1.751 -0.6450  1.9609  0.4502
 4962TIP3   OH236300   1.637   1.244   5.605 -0.6198  0.3521 -0.2321
 4962TIP3    H136301   1.704   1.309   5.627  1.2895 -0.7722 -2.2551
 4962TIP3    H236302   1.567   1.258   5.669  0.5798  3.0419  0.6153
 4963TIP3   OH236303   1.434   4.160   4.520 -0.0685  0.0965  0.5302
 4963TIP3    H136304   1.352   4.199   4.487 -0.2367  0.0650  0.9105
 4963TIP3    H236305   1.429   4.069   4.491 -0.0782  0.1423  0.3852
 4964TIP3   OH236306   2.535   4.251   5.784 -0.1610 -0.3217  0.3759
 4964TIP3    H136307   2.540   4.339   5.821 -0.5620 -0.6171  1.1642
 4964TIP3    H236308   2.531   4.193   5.860 -0.4619 -0.9849 -0.1321
 4965TIP3   OH236309   3.939   3.417   2.790 -0.1928 -0.4238 -0.5996
 4965TIP3    H136310   3.969   3.410   2.700  0.0045 -0.1675 -0.5564
 4965TIP3    H236311   3.844   3.418   2.785 -0.1932 -1.1448 -0.7495
 4966TIP3   OH236312   4.175   1.393  12.006  0.0671 -0.0410  0.2076
 4966TIP3    H136313   4.203   1.302  12.016 -0.6896 -0.2053  0.9466
 4966TIP3    H236314   4.099   1.401  12.064 -1.0532  0.5582 -1.2779
 4967TIP3   OH236315   1.187   3.664   1.545 -0.7250  0.8334 -0.0519
 4967TIP3    H136316   1.214   3.706   1.626  0.1317 -1.0226  0.6765
 4967TIP3    H236317   1.268   3.633   1.505 -1.1525  1.4705 -1.5264
 4968TIP3   OH236318   1.421   3.255  14.944 -0.3903 -0.3775  0.3194
 4968TIP3    H136319   1.379   3.334  14.979  0.0703  0.5680 -1.1565
 4968TIP3    H236320   1.507   3.285  14.915  0.0297 -1.5721  0.3086
 4969TIP3   OH236321   5.698   1.570   0.523  0.2402  0.2098 -0.5101
 4969TIP3    H136322   5.607   1.566   0.554  0.3833  1.4730  0.1151
 4969TIP3    H236323   5.712   1.484   0.482 -0.3849 -1.0634  1.7639
 4970TIP3   OH236324   0.031   1.103  11.382 -0.0647 -0.2626 -0.5331
 4970TIP3    H136325  -0.056   1.116  11.343 -0.2783  0.3116  0.1277
 4970TIP3    H236326   0.082   1.179  11.353 -0.3074  0.3210  0.5178
 4971TIP3   OH236327   4.745   0.924   5.562 -0.1758 -0.0908 -0.1922
 4971TIP3    H136328   4.763   0.869   5.486 -1.9440 -2.5754  1.0542
 4971TIP3    H236329   4.814   0.902   5.624 -0.0948  0.1284 -0.2060
 4972TIP3   OH236330   6.095   2.083   4.447  0.2435 -0.5954  0.6845
 4972TIP3    H136331   6.175   2.077   4.499  0.7540 -3.7836 -0.2486
 4972TIP3    H236332   6.026   2.051   4.506 -0.2705  1.3833  1.2239
 4973TIP3   OH236333   4.448   5.140  12.205  0.2414 -0.0976 -0.1127
 4973TIP3    H136334   4.429   5.067  12.147 -0.0400  0.2912 -0.5202
 4973TIP3    H236335   4.496   5.202  12.151  2.6958 -1.0240  0.8720
 4974TIP3   OH236336   5.764   3.591   4.933 -0.3718 -0.1460  0.3748
 4974TIP3    H136337   5.674   3.619   4.918 -0.3592 -0.4086 -0.2020
 4974TIP3    H236338   5.756   3.521   4.997 -0.4808  0.5376  1.1288
 4975TIP3   OH236339   2.307   6.609   2.355 -0.0472  0.0040 -0.0849
 4975TIP3    H136340   2.383   6.565   2.317  0.8698  0.7402  0.8585
 4975TIP3    H236341   2.263   6.541   2.405 -0.6482 -0.6999 -1.4993
 4976TIP3   OH236342   1.917   2.230   2.193  0.5747 -0.0327  0.2338
 4976TIP3    H136343   1.932   2.240   2.099 -2.0759  0.0031 -0.2902
 4976TIP3    H236344   1.885   2.140   2.202 -1.2661  0.6085  0.6899
 4977TIP3   OH236345   1.769   0.769  12.186 -0.5495  0.1441 -0.3633
 4977TIP3    H136346   1.850   0.766  12.134  1.1547 -0.2001  2.1506
 4977TIP3    H236347   1.754   0.862  12.202  0.1713  0.1573  0.3050
 4978TIP3   OH236348   1.755   2.410  10.501 -0.3446 -0.1277  0.4951
 4978TIP3    H136349   1.720   2.466  10.432  0.2191 -2.2116 -1.6131
 4978TIP3    H236350   1.677   2.377  10.546 -0.6908  2.1719  1.7552
 4979TIP3   OH236351   5.769   1.490  12.232 -0.1779 -0.3095  0.1610
 4979TIP3    H136352   5.856   1.514  12.200 -0.7398  0.2068 -1.0693
 4979TIP3    H236353   5.729   1.574  12.257  0.0740 -0.6636  1.8120
 4980TIP3   OH236354   4.311   3.819   4.263 -0.4374  0.5432  0.0297
 4980TIP3    H136355   4.250   3.746   4.273 -1.3725  1.1288 -1.2449
 4980TIP3    H236356   4.371   3.790   4.194  0.0324  0.4430  0.4733
 4981TIP3   OH236357   2.402   4.674  11.300 -0.2509  0.5139 -0.3085
 4981TIP3    H136358   2.367   4.646  11.216  0.0439  0.5038 -0.4319
 4981TIP3    H236359   2.491   4.636  11.302 -0.9808 -1.2848  0.9046
 4982TIP3   OH236360   2.350   0.039  13.312 -0.6379 -0.0863 -0.4261
 4982TIP3    H136361   2.311   0.100  13.249 -1.1581  0.3457  0.3042
 4982TIP3    H236362   2.420   0.089  13.353 -2.5769  0.9285  1.9137
 4983TIP3   OH236363   5.765   0.701   3.383  0.0997 -0.1585  0.2794
 4983TIP3    H136364   5.726   0.762   3.446  0.1055  0.5775 -0.4052
 4983TIP3    H236365   5.760   0.616   3.425 -1.3874  0.0645  0.5913
 4984TIP3   OH236366   2.118   3.769  13.252 -0.3428  0.9685 -0.8207
 4984TIP3    H136367   2.043   3.785  13.309 -0.0170  1.2287 -0.4564
 4984TIP3    H236368   2.142   3.855  13.219  0.8743  1.1626  0.4525
 4985TIP3   OH236369   3.029   5.221   2.446  0.1197  0.1428  0.0676
 4985TIP3    H136370   3.016   5.133   2.482 -1.4568 -0.4717 -1.8194
 4985TIP3    H236371   2.947   5.267   2.464  0.5186  0.8641  0.0620
 4986TIP3   OH236372   6.420   0.437   3.184  0.3775  0.6847 -0.1210
 4986TIP3    H136373   6.366   0.358   3.184 -0.9292  1.3966  3.3945
 4986TIP3    H236374   6.509   0.405   3.170 -0.1551 -1.3816  0.8679
 4987TIP3   OH236375   5.243   1.439  12.620  0.5700 -0.1768 -0.3487
 4987TIP3    H136376   5.171   1.393  12.575  0.0407  0.0064  0.3056
 4987TIP3    H236377   5.279   1.497  12.553 -0.9956  0.9890 -0.2184
 4988TIP3   OH236378   6.618   1.372  11.617  0.1217 -0.1447  0.1071
 4988TIP3    H136379   6.538   1.321  11.620 -0.8029  1.2862  1.3583
 4988TIP3    H236380   6.682   1.314  11.576 -1.0527 -1.9969  0.7591
 4989TIP3   OH236381   2.092   2.082   5.766 -0.1402 -0.3620 -0.0684
 4989TIP3    H136382   1.996   2.082   5.761 -0.3876  3.2505  1.4162
 4989TIP3    H236383   2.110   2.070   5.859  0.5765  2.0754  0.1849
 4990TIP3   OH236384   2.590   4.477   1.438  0.5633  0.0482 -0.5285
 4990TIP3    H136385   2.524   4.433   1.384  0.0569  1.5361 -1.1859
 4990TIP3    H236386   2.661   4.413   1.446 -1.1974 -1.8642  0.7653
 4991TIP3   OH236387   3.462   3.102   6.056 -0.0823 -0.1506  0.3638
 4991TIP3    H136388   3.438   3.085   6.147 -0.3421  0.9597  0.5157
 4991TIP3    H236389   3.553   3.132   6.060  0.9770 -2.9984 -0.0750
 4992TIP3   OH236390   4.409   1.658   1.120 -0.4265  0.0416  0.3283
 4992TIP3    H136391   4.404   1.719   1.193  1.2544  0.3069  0.2690
 4992TIP3    H236392   4.409   1.572   1.161 -0.1718  0.1708  0.6061
 4993TIP3   OH236393   3.015   6.470   0.596 -0.7233 -0.2106 -0.2592
 4993TIP3    H136394   2.988   6.556   0.564 -0.6975 -0.3287 -0.6057
 4993TIP3    H236395   2.935   6.418   0.598 -0.2692 -1.3373 -3.6871
 4994TIP3   OH236396   3.455   4.396   5.482  0.3590 -0.5282  0.6649
 4994TIP3    H136397   3.479   4.434   5.566 -0.6355  1.6840  0.0288
 4994TIP3    H236398   3.405   4.318   5.504  0.3993 -0.1703  2.1319
 4995TIP3   OH236399   5.963   4.150  14.433 -0.4087  0.3230 -0.5867
 4995TIP3    H136400   5.890   4.182  14.379  0.3552  0.5960 -1.4766
 4995TIP3    H236401   5.935   4.062  14.459 -0.3441 -0.2661 -2.3461
 4996TIP3   OH236402   2.138   5.909   4.259  0.2841  0.4493  0.0290
 4996TIP3    H136403   2.220   5.876   4.297  0.1345  0.0461  0.0033
 4996TIP3    H236404   2.072   5.895   4.327  0.2167  0.6957  0.0168
 4997TIP3   OH236405   1.573   4.492  16.106 -0.3615  0.5015  0.0401
 4997TIP3    H136406   1.590   4.446  16.188  3.0630 -1.5486 -1.5791
 4997TIP3    H236407   1.490   4.457  16.075 -0.5496 -0.4369  1.5225
 4998TIP3   OH236408   6.278   6.312   1.693 -0.5994 -0.4907  0.3230
 4998TIP3    H136409   6.228   6.272   1.764  0.1661 -0.8643  0.6700
 4998TIP3    H236410   6.221   6.380   1.658 -0.6633  0.3091  1.8772
 4999TIP3   OH236411   0.328   0.644   0.374 -0.4254  0.2836 -0.1088
 4999TIP3    H136412   0.376   0.571   0.413  1.2771  0.7199 -1.2566
 4999TIP3    H236413   0.378   0.722   0.400 -1.9716  1.0453  0.7597
 5000TIP3   OH236414   6.545   3.162   4.292 -0.1666 -0.1622 -0.1787
 5000TIP3    H136415   6.479   3.093   4.301 -1.4707  1.0630 -0.0015
 5000TIP3    H236416   6.547   3.206   4.377 -2.0425  2.3010 -1.2845
 5001TIP3   OH236417   2.079   4.915   1.059  0.5422  0.2095  0.6201
 5001TIP3    H136418   2.009   4.853   1.039  1.9439 -1.5937  1.0885
 5001TIP3    H236419   2.057   4.949   1.146  0.2433 -0.3233  0.7531
 5002TIP3   OH236420   6.606   2.610  14.685 -0.1483  0.0131 -0.2287
 5002TIP3    H136421   6.605   2.524  14.727 -1.4730 -1.3485 -2.7679
 5002TIP3    H236422   6.663   2.598  14.609  0.6106  1.7909  0.0195
 5003TIP3   OH236423   4.151   1.212   3.789 -0.3043 -0.4789 -0.2354
 5003TIP3    H136424   4.208   1.136   3.805  1.1748  0.6893  0.2358
 5003TIP3    H236425   4.142   1.253   3.875 -0.8235  0.0800 -0.5504
 5004TIP3   OH236426   2.071   5.820   6.246 -0.1300  0.2285  0.0645
 5004TIP3    H136427   1.987   5.846   6.282 -0.0793 -0.0546  0.3913
 5004TIP3    H236428   2.113   5.770   6.316  0.4202  0.5891  0.0010
 5005TIP3   OH236429   3.362   1.608   0.531  0.1084  0.0151  0.0528
 5005TIP3    H136430   3.289   1.635   0.476  0.6057  1.2814 -0.0078
 5005TIP3    H236431   3.439   1.619   0.477  0.5411  0.6851  0.7733
 5006TIP3   OH236432   4.523   4.229   0.134 -1.2308 -0.3363  0.6934
 5006TIP3    H136433   4.525   4.248   0.040  1.6369  0.1407  0.7791
 5006TIP3    H236434   4.531   4.134   0.139  0.8194 -0.2151  0.4284
 5007TIP3   OH236435   3.245   4.255  13.524 -0.3996 -0.4812  0.4711
 5007TIP3    H136436   3.215   4.244  13.434  0.3414 -1.2049  0.3024
 5007TIP3    H236437   3.278   4.168  13.549  1.3351  0.2100  0.7150
 5008TIP3   OH236438   1.919   1.072  15.519  0.5922  0.2278  0.0591
 5008TIP3    H136439   1.842   1.087  15.573 -0.0846 -0.7476 -0.5846
 5008TIP3    H236440   1.899   1.115  15.436  0.0838 -1.2397 -0.6147
 5009TIP3   OH236441   5.058   3.827   6.042 -0.0119 -0.1306  0.2631
 5009TIP3    H136442   5.126   3.894   6.045 -1.6047  1.5780  0.2685
 5009TIP3    H236443   5.013   3.835   6.127 -0.3966 -1.0306  0.1554
 5010TIP3   OH236444   6.712   0.368   2.583  0.4116 -0.1517 -0.3695
 5010TIP3    H136445   6.774   0.439   2.562 -0.3271  0.6450  0.0694
 5010TIP3    H236446   6.629   0.397   2.546  0.4249 -1.5373 -1.5585
 5011TIP3   OH236447   0.181   2.152  13.577 -0.4599  0.1487 -0.5609
 5011TIP3    H136448   0.087   2.167  13.573 -0.4760  0.1420 -0.2545
 5011TIP3    H236449   0.190   2.075  13.634 -0.1042  2.0187  2.0998
 5012TIP3   OH236450   5.887   4.183   1.484 -0.2197 -0.3847 -0.3536
 5012TIP3    H136451   5.839   4.234   1.419  0.2336  1.2978  0.5717
 5012TIP3    H236452   5.824   4.167   1.554 -0.1209 -0.3683 -0.2613
 5013TIP3   OH236453   0.791   1.317   3.383  0.0745 -0.1310  0.4401
 5013TIP3    H136454   0.802   1.321   3.288 -0.2463 -0.7018  0.3732
 5013TIP3    H236455   0.878   1.297   3.417 -0.0238 -1.0690  0.1760
 5014TIP3   OH236456   4.235   0.051  17.191 -0.6422  0.2328 -0.0517
 5014TIP3    H136457   4.327   0.027  17.198 -1.0670 -1.4873  0.1099
 5014TIP3    H236458   4.234   0.146  17.201  1.2573  0.4738 -1.5614
 5015TIP3   OH236459   0.270   4.360   5.922 -0.2955 -0.3194 -0.5098
 5015TIP3    H136460   0.208   4.338   5.991 -1.0249 -0.4768 -1.1981
 5015TIP3    H236461   0.220   4.350   5.841  0.7148 -0.7376 -1.1018
 5016TIP3   OH236462   0.101   4.045  16.247  0.3618  0.0103 -0.2871
 5016TIP3    H136463   0.145   4.039  16.331  0.6294  1.6319 -0.2916
 5016TIP3    H236464   0.086   3.954  16.222  0.2547 -0.5078  1.5087
 5017TIP3   OH236465   3.640   6.287   3.875 -0.4320 -0.3129 -1.0421
 5017TIP3    H136466   3.620   6.379   3.861  1.7525  0.1670 -1.3088
 5017TIP3    H236467   3.732   6.285   3.898 -0.2038 -2.5094 -1.8557
 5018TIP3   OH236468   0.395   4.865  13.080  0.5377 -0.2871  0.2958
 5018TIP3    H136469   0.355   4.948  13.053 -0.1499 -0.6787  0.0632
 5018TIP3    H236470   0.475   4.859  13.028 -0.6335 -0.8980 -1.5296
 5019TIP3   OH236471   3.248   4.163   2.658 -0.2982 -0.1200 -0.2664
 5019TIP3    H136472   3.295   4.235   2.698  0.1180 -0.0110 -0.9504
 5019TIP3    H236473   3.315   4.099   2.634 -0.5770 -0.3471 -0.4642
 5020TIP3   OH236474   5.907   4.471   1.536 -0.1558 -0.1194  0.0920
 5020TIP3    H136475   5.890   4.377   1.544 -0.3196 -0.2398 -1.5157
 5020TIP3    H236476   5.979   4.477   1.473 -0.3850  0.8535 -0.0901
 5021TIP3   OH236477   0.223   4.071   6.214 -0.7804 -0.0661  0.7738
 5021TIP3    H136478   0.262   4.114   6.290 -1.0970  1.8155 -0.0752
 5021TIP3    H236479   0.180   4.142   6.166 -2.6771 -1.5747  0.1009
 5022TIP3   OH236480   2.769   4.216   6.229  0.0110 -0.1820  0.7915
 5022TIP3    H136481   2.806   4.181   6.147 -0.2084  1.0191  0.1575
 5022TIP3    H236482   2.845   4.246   6.278 -0.0029  1.2782 -0.0320
 5023TIP3   OH236483   2.920   2.155   3.466  0.3293 -0.3295  0.4106
 5023TIP3    H136484   3.015   2.167   3.459  0.4931 -1.6560  0.0075
 5023TIP3    H236485   2.910   2.072   3.512 -0.6488 -0.2071  0.4387
 5024TIP3   OH236486   6.404   6.731   4.695  0.1736  0.1769  0.0732
 5024TIP3    H136487   6.470   6.760   4.632 -0.2066  2.3719  0.5962
 5024TIP3    H236488   6.454   6.707   4.773  0.4236  1.5927  0.3819
 5025TIP3   OH236489   4.381   1.923   2.431 -0.0359  0.4047  0.3522
 5025TIP3    H136490   4.392   1.836   2.393  0.1810  0.0787  1.1220
 5025TIP3    H236491   4.469   1.961   2.430 -0.0805  0.5058  0.2671
 5026TIP3   OH236492   4.280   2.656   0.284 -0.1317 -0.0328  0.1911
 5026TIP3    H136493   4.357   2.675   0.230  0.1881 -0.6650  0.4033
 5026TIP3    H236494   4.284   2.720   0.355  0.3040 -0.1763  0.2998
 5027TIP3   OH236495   2.783   5.452   0.701  0.2128 -0.4267 -0.1050
 5027TIP3    H136496   2.857   5.457   0.762 -0.1522 -1.3121  0.4348
 5027TIP3    H236497   2.821   5.471   0.616  0.7263  0.8941  0.3988
 5028TIP3   OH236498   3.099   4.507  12.019  0.1115 -0.6345 -0.4160
 5028TIP3    H136499   3.134   4.491  12.107  1.7077  0.7902 -0.7289
 5028TIP3    H236500   3.129   4.432  11.967 -2.3663 -2.4075  0.5881
 5029TIP3   OH236501   0.421   5.114   5.989  0.3346  0.2610  0.1497
 5029TIP3    H136502   0.478   5.053   6.036 -1.1467 -4.1418 -3.0719
 5029TIP3    H236503   0.333   5.093   6.020 -0.1603  1.4358 -0.3964
 5030TIP3   OH236504   5.068   5.379  12.369 -0.3025  0.1567 -0.0324
 5030TIP3    H136505   5.003   5.419  12.427  0.3708  0.7252  0.3448
 5030TIP3    H236506   5.044   5.286  12.366 -0.9998  0.3195  0.2683
 5031TIP3   OH236507   6.744   1.551  13.026  0.8344  0.0196 -0.6754
 5031TIP3    H136508   6.745   1.527  13.119 -3.7764  2.8898  0.4706
 5031TIP3    H236509   6.716   1.472  12.981  0.0803 -0.6218  0.8434
 5032TIP3   OH236510   3.423   1.159   4.999 -0.1649  0.0145 -0.0851
 5032TIP3    H136511   3.496   1.187   5.054 -0.4841  2.2743 -0.7053
 5032TIP3    H236512   3.464   1.117   4.924  0.4225 -0.1633  0.3267
 5033TIP3   OH236513   0.862   4.218   2.188  0.2302 -0.3201  0.2228
 5033TIP3    H136514   0.843   4.281   2.258  1.5702  0.3460  0.0262
 5033TIP3    H236515   0.910   4.147   2.231 -0.2828 -0.6627  0.2397
 5034TIP3   OH236516   2.445   0.412   5.843  0.0998 -0.7920  0.4413
 5034TIP3    H136517   2.488   0.436   5.925  0.5485 -1.1745  0.3195
 5034TIP3    H236518   2.367   0.363   5.871  0.7523 -1.7479  0.6258
 5035TIP3   OH236519   4.605   3.512   1.976 -0.0765  0.0219  0.0218
 5035TIP3    H136520   4.697   3.533   1.992 -0.4248  0.0615  2.2736
 5035TIP3    H236521   4.562   3.596   1.966 -0.1931  0.1188  1.1779
 5036TIP3   OH236522   2.767   0.523   0.279  0.0185  0.0628  0.2945
 5036TIP3    H136523   2.722   0.452   0.326 -0.2493  0.2567  0.3328
 5036TIP3    H236524   2.847   0.482   0.246 -0.4922 -0.4563 -0.3266
 5037TIP3   OH236525   2.387   1.801   3.172 -0.5654  0.1078 -0.0767
 5037TIP3    H136526   2.346   1.757   3.099  1.6923  2.0764 -2.7445
 5037TIP3    H236527   2.376   1.894   3.155  2.6518  0.7023  0.3227
 5038TIP3   OH236528   1.906   0.893  13.010  0.4760 -0.2490  0.0260
 5038TIP3    H136529   1.890   0.969  12.955  0.4556 -1.1446 -1.2450
 5038TIP3    H236530   1.932   0.930  13.095  0.9076  1.1554 -0.6842
 5039TIP3   OH236531   2.144   2.938  11.712 -0.4885 -0.6568 -0.2600
 5039TIP3    H136532   2.159   3.002  11.782 -3.2518  1.5635 -1.4958
 5039TIP3    H236533   2.212   2.956  11.648 -0.6181  0.3711 -0.1195
 5040TIP3   OH236534   5.732   6.413   2.219  1.1595  0.3145  0.0863
 5040TIP3    H136535   5.664   6.476   2.243  0.0374 -1.0405  0.6139
 5040TIP3    H236536   5.804   6.466   2.186 -0.7348  1.7509 -1.9961
 5041TIP3   OH236537   3.172   0.305   2.038 -0.2969  0.5419 -1.0398
 5041TIP3    H136538   3.121   0.367   1.987  0.5515  0.6085 -1.8462
 5041TIP3    H236539   3.161   0.333   2.129 -2.3450  0.0467 -1.1004
 5042TIP3   OH236540   4.347   2.449   3.193  0.2039 -0.1180 -0.2882
 5042TIP3    H136541   4.347   2.420   3.284 -1.8737  0.6718  0.0279
 5042TIP3    H236542   4.316   2.540   3.197  0.4171  0.0434 -1.7490
 5043TIP3   OH236543   4.215   0.419  12.610 -0.2980 -0.9321  0.3011
 5043TIP3    H136544   4.300   0.452  12.641 -2.7160  3.9181  2.7769
 5043TIP3    H236545   4.197   0.344  12.667  1.5446 -1.0311  0.8480
 5044TIP3   OH236546   3.513   5.230   1.406  0.5583 -0.1842  0.1672
 5044TIP3    H136547   3.495   5.251   1.314  1.7466  3.2156  0.5743
 5044TIP3    H236548   3.555   5.144   1.403  0.6407 -0.1345 -2.4659
 5045TIP3   OH236549   3.726   4.396  15.337 -0.1341  0.1536 -0.0247
 5045TIP3    H136550   3.768   4.354  15.412 -1.8649 -1.1031  0.3113
 5045TIP3    H236551   3.782   4.374  15.262  0.6721 -0.0756  0.6299
 5046TIP3   OH236552   2.732   3.163  12.552 -0.0144 -0.6117 -0.0880
 5046TIP3    H136553   2.778   3.199  12.476  0.8763 -1.3983  0.0659
 5046TIP3    H236554   2.641   3.154  12.522 -0.2567  1.6036 -0.1615
 5047TIP3   OH236555   4.596   1.060   6.494 -0.4666 -0.7394  0.9116
 5047TIP3    H136556   4.652   1.079   6.569  0.7572 -0.5038 -0.0220
 5047TIP3    H236557   4.516   1.109   6.510  0.9981  1.9650  0.5701
 5048TIP3   OH236558   6.295   0.899   1.056  0.0007 -0.0910 -0.3483
 5048TIP3    H136559   6.291   0.813   1.097  1.8655 -0.2291 -0.3936
 5048TIP3    H236560   6.210   0.909   1.013 -0.0338 -2.1664 -0.8589
 5049TIP3   OH236561   3.799   5.058   2.307 -0.3891 -0.0012 -0.0537
 5049TIP3    H136562   3.835   5.143   2.281 -0.9768  0.0700 -0.6741
 5049TIP3    H236563   3.823   5.049   2.399 -1.1624  1.2939  0.3108
 5050TIP3   OH236564   0.886   3.752  12.025 -0.1771 -0.2348 -0.1247
 5050TIP3    H136565   0.911   3.819  11.962 -1.7060  1.2767  0.8087
 5050TIP3    H236566   0.860   3.677  11.971 -0.0675  0.5061 -1.2353
 5051TIP3   OH236567   4.635   3.654  17.258  0.3989 -0.1797 -0.3207
 5051TIP3    H136568   4.652   3.705  17.337  1.9554  0.4023 -0.9867
 5051TIP3    H236569   4.588   3.576  17.289  0.8166  0.1212  1.1368
 5052TIP3   OH236570   1.876   4.564  11.271  0.6975  0.2586  0.0178
 5052TIP3    H136571   1.799   4.511  11.251  0.5684  0.5340 -0.2286
 5052TIP3    H236572   1.855   4.608  11.353 -0.1103  1.6315 -0.8774
 5053TIP3   OH236573   4.607   4.661  16.707  0.2998 -0.0760  0.4055
 5053TIP3    H136574   4.514   4.640  16.716 -0.0757  1.2524 -0.1572
 5053TIP3    H236575   4.626   4.720  16.779 -0.0328  1.9299 -1.0705
 5054TIP3   OH236576   4.586   2.329  16.770  0.3099  0.7091  0.0819
 5054TIP3    H136577   4.586   2.291  16.683 -0.2098 -1.4199  0.9507
 5054TIP3    H236578   4.522   2.401  16.765 -0.5956 -0.1336 -0.9899
 5055TIP3   OH236579   0.234   3.717   2.774 -0.1881  0.0994  0.1360
 5055TIP3    H136580   0.242   3.731   2.680  1.7863 -1.3537  0.0124
 5055TIP3    H236581   0.149   3.755   2.797  0.2546  2.5337 -1.7946
 5056TIP3   OH236582   6.479   5.776   1.869  0.4406  0.2833 -0.0510
 5056TIP3    H136583   6.509   5.759   1.958  2.1287 -0.4456 -0.7249
 5056TIP3    H236584   6.443   5.865   1.873  2.6540  1.2109  0.8610
 5057TIP3   OH236585   3.346   1.009  17.023 -0.5367 -0.0281 -0.6951
 5057TIP3    H136586   3.295   0.928  17.028 -1.1444  0.3658 -0.3009
 5057TIP3    H236587   3.316   1.050  16.941 -0.7776  0.1553 -0.5138
 5058TIP3   OH236588   3.084   1.420  13.764 -0.0759 -0.6840 -0.1215
 5058TIP3    H136589   3.121   1.361  13.829  2.6173 -0.7843 -1.5963
 5058TIP3    H236590   3.064   1.500  13.813  1.0037 -1.0753  1.0167
 5059TIP3   OH236591   3.683   1.097   3.074  0.2934  0.3254  0.4169
 5059TIP3    H136592   3.748   1.026   3.076  1.1587  1.1178  1.6919
 5059TIP3    H236593   3.604   1.059   3.113  0.7949  0.0785  1.2202
 5060TIP3   OH236594   1.446   6.486   1.990  0.5332  0.3004 -0.6328
 5060TIP3    H136595   1.400   6.449   1.914 -2.8230  2.7014 -0.0109
 5060TIP3    H236596   1.480   6.570   1.959 -2.5457  2.2368  0.7837
 5061TIP3   OH236597   5.458   4.372   4.508  0.3811  0.1613 -0.4349
 5061TIP3    H136598   5.512   4.381   4.586  1.9460  2.6105 -1.7063
 5061TIP3    H236599   5.381   4.426   4.526  0.2310 -0.1169 -0.2169
 5062TIP3   OH236600   5.872   1.380   5.184 -0.6919 -0.4516  0.0263
 5062TIP3    H136601   5.848   1.300   5.231 -0.1586  0.0482  1.2082
 5062TIP3    H236602   5.804   1.443   5.209  0.3797  0.2453  1.3825
 5063TIP3   OH236603   0.417   3.103   4.386  0.2127  0.0581 -0.5206
 5063TIP3    H136604   0.396   3.195   4.374  1.0517  0.1864 -1.1008
 5063TIP3    H236605   0.358   3.056   4.327  0.1476  0.2608 -0.6142
 5064TIP3   OH236606   4.727   4.192   4.976 -0.1155 -0.1311  0.2337
 5064TIP3    H136607   4.642   4.187   4.932  0.6552  0.2960 -1.3693
 5064TIP3    H236608   4.714   4.146   5.059 -1.1718 -2.4446 -1.1346
 5065TIP3   OH236609   2.305   3.899  14.115 -0.0116  0.4209  0.9874
 5065TIP3    H136610   2.364   3.831  14.084 -1.4307  0.5443 -2.4508
 5065TIP3    H236611   2.233   3.852  14.156 -0.0935 -0.0957  0.2794
 5066TIP3   OH236612   0.060   4.499  13.155  0.5828 -0.6636  0.3487
 5066TIP3    H136613   0.052   4.404  13.164 -0.6120 -0.4723  1.6480
 5066TIP3    H236614   0.036   4.533  13.241  0.1265  0.8624 -0.3535
 5067TIP3   OH236615   0.445   1.038  11.698  0.4579 -0.5052 -0.0493
 5067TIP3    H136616   0.524   1.091  11.691  0.5875 -0.2120  2.5468
 5067TIP3    H236617   0.374   1.101  11.712 -0.4754 -0.7045 -3.1041
 5068TIP3   OH236618   0.254   4.871   0.341 -0.1935 -0.7795 -0.4796
 5068TIP3    H136619   0.218   4.847   0.426 -2.2064 -0.2630 -1.1378
 5068TIP3    H236620   0.231   4.797   0.284  1.0742 -1.0875 -0.6280
 5069TIP3   OH236621   1.827   4.523  14.810  0.4658  0.3691 -0.1285
 5069TIP3    H136622   1.883   4.496  14.737 -2.1869  0.8519 -2.5680
 5069TIP3    H236623   1.792   4.441  14.845  1.5199  0.1451  0.4280
 5070TIP3   OH236624   4.047   1.332   4.546 -0.2480 -0.1169 -0.2150
 5070TIP3    H136625   3.975   1.375   4.593 -0.9386  0.9203 -2.1298
 5070TIP3    H236626   4.006   1.259   4.500  0.7136 -2.2000  2.0185
 5071TIP3   OH236627   1.185   6.502   6.087 -0.6363 -0.2588  0.4073
 5071TIP3    H136628   1.277   6.508   6.112 -0.7510  0.3014  0.7227
 5071TIP3    H236629   1.177   6.562   6.013 -0.4328 -1.4361 -0.5884
 5072TIP3   OH236630   6.761   4.670  16.795 -0.5404 -0.0423 -0.1091
 5072TIP3    H136631   6.669   4.698  16.798 -0.5202  0.1129 -0.7465
 5072TIP3    H236632   6.785   4.679  16.703  1.0552  2.9030  0.4748
 5073TIP3   OH236633   0.864   6.574   1.477  0.2700  0.5821  0.0474
 5073TIP3    H136634   0.810   6.495   1.486 -0.2375  0.6088 -2.2876
 5073TIP3    H236635   0.952   6.546   1.499  0.1853 -0.7991 -1.2734
 5074TIP3   OH236636   4.026   0.559  11.809  0.1978 -0.1436  0.2889
 5074TIP3    H136637   4.029   0.598  11.721 -2.8906  0.6238  0.4194
 5074TIP3    H236638   3.985   0.473  11.797  1.6208 -0.9232  0.7674
 5075TIP3   OH236639   6.602   1.149   3.770  0.0589 -0.1623 -0.3508
 5075TIP3    H136640   6.674   1.109   3.818  1.0552  0.4724 -1.2611
 5075TIP3    H236641   6.526   1.094   3.791  1.2634 -2.3099 -1.2171
 5076TIP3   OH236642   3.392   2.173   3.559 -0.0933  0.0984 -0.0335
 5076TIP3    H136643   3.378   2.080   3.577  0.8966  0.3020  2.0231
 5076TIP3    H236644   3.351   2.218   3.633  1.1007  1.1996 -0.0120
 5077TIP3   OH236645   0.387   3.525   3.728 -0.3435  0.7865 -0.2467
 5077TIP3    H136646   0.448   3.582   3.775 -0.8656  1.8784 -0.8462
 5077TIP3    H236647   0.332   3.585   3.677  0.1361 -0.3121 -2.1984
 5078TIP3   OH236648   1.758   0.089   0.373  0.8894  0.4634  0.0750
 5078TIP3    H136649   1.732   0.179   0.396 -0.1924 -0.1520  1.4157
 5078TIP3    H236650   1.851   0.086   0.392  1.1578  1.5656 -0.9131
 5079TIP3   OH236651   1.578   4.258   0.314  0.5200  0.4063 -0.6140
 5079TIP3    H136652   1.656   4.303   0.283 -0.0540  1.0206 -1.2050
 5079TIP3    H236653   1.523   4.327   0.352 -0.6742  0.3562 -2.1529
 5080TIP3   OH236654   3.591   0.430   3.056  0.2312  0.2273 -0.0727
 5080TIP3    H136655   3.589   0.361   2.990 -2.6640  1.2557 -1.2310
 5080TIP3    H236656   3.571   0.385   3.138 -0.5927 -0.4991 -0.6531
 5081TIP3   OH236657   1.829   3.239  14.396 -0.2267 -0.2207  0.0822
 5081TIP3    H136658   1.852   3.276  14.481 -0.2142 -0.1347  0.0415
 5081TIP3    H236659   1.845   3.309  14.334  1.7460 -0.9284 -0.2633
 5082TIP3   OH236660   3.245   6.164  15.314 -0.3476 -0.0247  0.0696
 5082TIP3    H136661   3.226   6.080  15.356  1.8720 -0.1039  1.0913
 5082TIP3    H236662   3.199   6.161  15.231 -1.1737 -1.8169  0.5463
 5083TIP3   OH236663   2.622   5.533  11.483 -0.2886 -0.2581  0.1885
 5083TIP3    H136664   2.581   5.541  11.397 -1.5072  1.8966  0.8847
 5083TIP3    H236665   2.716   5.547  11.466 -0.5312  0.3085 -0.7772
 5084TIP3   OH236666   2.759   3.649  12.938  0.1517 -0.0686  0.0931
 5084TIP3    H136667   2.811   3.717  12.895 -1.4529  1.3713  0.2986
 5084TIP3    H236668   2.748   3.680  13.028  0.2543 -1.1192  0.4805
 5085TIP3   OH236669   3.703   1.553  16.958 -0.4594 -0.0601 -0.2439
 5085TIP3    H136670   3.660   1.639  16.954  1.0999  0.7622 -0.0094
 5085TIP3    H236671   3.698   1.528  17.050 -0.4561  0.0146 -0.2224
 5086TIP3   OH236672   1.649   2.369  14.015 -0.5152 -0.2048  0.0134
 5086TIP3    H136673   1.586   2.319  13.964 -0.3976 -0.3448  0.0046
 5086TIP3    H236674   1.622   2.460  14.004 -0.7456 -0.2684  0.0508
 5087TIP3   OH236675   2.185   2.099  16.860  0.1284  0.5290 -0.1308
 5087TIP3    H136676   2.099   2.065  16.838  0.3614  0.7477 -1.4782
 5087TIP3    H236677   2.170   2.157  16.935 -0.6413 -0.5954  0.6184
 5088TIP3   OH236678   6.138   3.651  14.107 -0.1323  0.0616 -0.2162
 5088TIP3    H136679   6.178   3.579  14.059 -0.5921 -1.0801  1.0300
 5088TIP3    H236680   6.198   3.724  14.096  0.5556 -0.6245 -1.1757
 5089TIP3   OH236681   0.736   1.103   4.539  0.1773  0.6625 -0.1420
 5089TIP3    H136682   0.731   1.139   4.627 -0.4213  0.1205  0.0594
 5089TIP3    H236683   0.708   1.012   4.549  2.2675 -0.0757 -0.5202
 5090TIP3   OH236684   4.849   3.872  13.226  0.1612 -0.2018  0.0789
 5090TIP3    H136685   4.943   3.888  13.241 -0.3041  3.0187  0.3217
 5090TIP3    H236686   4.814   3.958  13.205 -2.7323 -1.3836 -0.2876
 5091TIP3   OH236687   3.039   1.359   5.388  0.0683  0.5112  0.3988
 5091TIP3    H136688   2.999   1.407   5.460 -0.6156  0.2411  0.2091
 5091TIP3    H236689   3.098   1.422   5.346  0.6352  0.6073  1.3130
 5092TIP3   OH236690   5.568   0.082  17.219  0.1289  0.5353 -0.2914
 5092TIP3    H136691   5.586   0.026  17.144 -0.0148  1.7812 -1.3005
 5092TIP3    H236692   5.540   0.022  17.288  1.8675 -0.8163 -0.6874
 5093TIP3   OH236693   0.395   3.945   5.778  1.4444 -0.2399  0.2901
 5093TIP3    H136694   0.302   3.964   5.771  1.5538 -0.0932 -0.8626
 5093TIP3    H236695   0.422   3.988   5.859  0.3314 -1.0949  1.1585
 5094TIP3   OH236696   3.340   5.538   4.701  0.0317  0.7060 -0.5370
 5094TIP3    H136697   3.391   5.598   4.647  1.2212 -0.3813 -0.6866
 5094TIP3    H236698   3.397   5.462   4.712 -0.7136  0.3364  1.1324
 5095TIP3   OH236699   0.131   6.045   1.450 -0.4189 -0.0173  0.1349
 5095TIP3    H136700   0.123   6.001   1.365 -0.8345  0.2834  0.0150
 5095TIP3    H236701   0.119   5.975   1.514 -1.2938 -0.0551 -0.0550
 5096TIP3   OH236702   2.788   0.696  16.873 -0.3331 -0.3053 -0.4118
 5096TIP3    H136703   2.714   0.734  16.920  0.0458 -0.8773  0.6628
 5096TIP3    H236704   2.829   0.771  16.829  1.2627  0.9131  2.8121
 5097TIP3   OH236705   2.035   1.233  16.965  0.1123 -0.4801 -0.4716
 5097TIP3    H136706   1.957   1.181  16.947  0.1557 -0.5899 -0.3427
 5097TIP3    H236707   2.024   1.312  16.912 -0.9476  0.3231  0.8735
 5098TIP3   OH236708   6.636   4.562  15.194 -0.1233  0.6264 -0.6602
 5098TIP3    H136709   6.666   4.618  15.265  1.5584 -0.7529 -0.2173
 5098TIP3    H236710   6.572   4.504  15.235 -0.0107  0.5813 -0.5483
 5099TIP3   OH236711   1.676   5.026   4.342 -0.2352  0.1460  0.7160
 5099TIP3    H136712   1.698   4.971   4.266  0.0360  0.8802  0.2530
 5099TIP3    H236713   1.704   5.114   4.317 -0.4014  0.4487  1.5645
 5100TIP3   OH236714   0.626   5.861   0.013 -0.3724  1.1336 -0.7691
 5100TIP3    H136715   0.637   5.797  -0.058  0.9164  1.4606 -0.8875
 5100TIP3    H236716   0.601   5.942  -0.031 -1.3978  0.8848 -0.6712
 5101TIP3   OH236717   2.982   6.132  16.679  0.5800  0.0271  0.3802
 5101TIP3    H136718   3.055   6.182  16.716 -0.4393  2.4766 -0.6834
 5101TIP3    H236719   2.976   6.163  16.588 -0.7183 -1.3954 -0.0660
 5102TIP3   OH236720   6.402   5.807  16.039  0.4335  0.1205 -0.0432
 5102TIP3    H136721   6.452   5.881  16.071 -0.4479  1.7252 -2.1109
 5102TIP3    H236722   6.420   5.805  15.945 -0.9733 -1.1531 -0.3235
 5103TIP3   OH236723   2.248   0.573   4.702 -0.2536  0.7444  0.7537
 5103TIP3    H136724   2.211   0.486   4.685 -1.2370  1.3325 -0.2518
 5103TIP3    H236725   2.202   0.631   4.641  0.8417  1.8699  0.9528
 5104TIP3   OH236726   1.419   6.033  16.813 -0.3738 -0.1673 -0.6442
 5104TIP3    H136727   1.423   6.045  16.908 -0.8101 -2.5689 -0.2477
 5104TIP3    H236728   1.510   6.043  16.785 -0.2371  0.5792  0.0275
 5105TIP3   OH236729   0.038   1.564   3.800  0.1783  0.6744 -0.5382
 5105TIP3    H136730  -0.014   1.485   3.810 -0.9820  1.5583  0.9672
 5105TIP3    H236731  -0.001   1.609   3.725  1.0069 -0.2681 -1.5602
 5106TIP3   OH236732   2.648   5.166   1.981  0.0205  0.4674 -0.3740
 5106TIP3    H136733   2.711   5.199   2.044 -1.8589  1.4335  1.1269
 5106TIP3    H236734   2.622   5.080   2.015 -0.9668  0.9724  0.2132
 5107TIP3   OH236735   3.653   4.038   1.761 -0.1118 -0.4216  0.0955
 5107TIP3    H136736   3.732   4.029   1.814  0.2690  1.3621 -0.1065
 5107TIP3    H236737   3.645   3.954   1.716  1.0031 -1.0474  1.0050
 5108TIP3   OH236738   5.388   5.089  14.068  0.0875 -0.3730  0.5228
 5108TIP3    H136739   5.391   5.084  13.972  1.0572 -1.6173  0.5867
 5108TIP3    H236740   5.299   5.063  14.091  0.0148 -0.6144 -0.0210
 5109TIP3   OH236741   2.443   0.416   0.367 -0.1805 -0.1910  0.2012
 5109TIP3    H136742   2.350   0.429   0.387  0.0478  1.5321  0.3116
 5109TIP3    H236743   2.447   0.419   0.272 -0.4126 -1.8346  0.1115
 5110TIP3   OH236744   5.793   1.932  11.636 -0.5925 -0.2816  0.0359
 5110TIP3    H136745   5.877   1.908  11.596 -0.4949 -2.9719  1.6153
 5110TIP3    H236746   5.751   1.988  11.571  0.3246 -2.8781 -3.1037
 5111TIP3   OH236747   3.340   1.495  13.445  0.1692  0.6732  0.1082
 5111TIP3    H136748   3.326   1.401  13.459 -1.4645  1.1026  1.7120
 5111TIP3    H236749   3.254   1.529  13.422  0.9237  1.6800 -1.3886
 5112TIP3   OH236750   2.606   4.601  10.966 -0.0558  0.2996  0.4166
 5112TIP3    H136751   2.688   4.630  11.006  1.2435 -0.5977 -1.4377
 5112TIP3    H236752   2.609   4.505  10.974 -0.4794  0.2078 -0.4377
 5113TIP3   OH236753   3.586   5.847  12.686 -0.0063 -0.1217 -0.3133
 5113TIP3    H136754   3.668   5.852  12.637  0.3684  1.1567  0.3879
 5113TIP3    H236755   3.577   5.755  12.710  1.5160 -0.1888  0.0753
 5114TIP3   OH236756   5.984   3.594  14.375 -0.3446 -0.4601  0.5006
 5114TIP3    H136757   5.939   3.567  14.295 -2.1482  1.5728  0.7352
 5114TIP3    H236758   6.075   3.608  14.347 -1.0530  0.8041 -1.3743
 5115TIP3   OH236759   2.133   2.462   5.283 -0.5004  0.3758  0.5613
 5115TIP3    H136760   2.213   2.493   5.241 -0.0374  2.1812  2.6190
 5115TIP3    H236761   2.135   2.367   5.271  3.2877  0.0193  2.6132
 5116TIP3   OH236762   4.080   0.705  14.323  0.3645 -0.0493 -0.2863
 5116TIP3    H136763   4.148   0.644  14.296 -0.5272 -0.3158 -2.1189
 5116TIP3    H236764   4.126   0.773  14.372  1.5313 -1.5689  0.8250
 5117TIP3   OH236765   6.652   1.700  16.836  0.3760  0.1153  0.1528
 5117TIP3    H136766   6.644   1.794  16.823  1.2136  0.1440 -0.2182
 5117TIP3    H236767   6.653   1.664  16.748 -2.8923 -0.5520  0.2628
 5118TIP3   OH236768   3.934   6.469   4.902  0.1025  0.5389 -0.6404
 5118TIP3    H136769   4.000   6.515   4.953 -0.7261  1.3409 -0.2762
 5118TIP3    H236770   3.984   6.418   4.839  1.0390  3.2974 -2.2744
 5119TIP3   OH236771   3.637   6.326   0.917 -0.1034 -0.6901  1.1899
 5119TIP3    H136772   3.687   6.264   0.970  1.4761  1.8948  2.9036
 5119TIP3    H236773   3.549   6.325   0.955  0.3068 -0.8062  2.1660
 5120TIP3   OH236774   0.451   6.702  13.207 -0.3310  0.1787 -0.4501
 5120TIP3    H136775   0.381   6.640  13.184 -0.6150  0.6193 -0.7847
 5120TIP3    H236776   0.419   6.787  13.177  1.5300  0.0337 -3.2508
 5121TIP3   OH236777   1.297   1.598  14.464 -0.0867  0.5686  0.3991
 5121TIP3    H136778   1.293   1.677  14.517  1.3194  0.5946  0.5072
 5121TIP3    H236779   1.316   1.628  14.375  2.5774  0.2924  0.8118
 5122TIP3   OH236780   0.989   4.446  11.519 -0.5004 -0.1788  0.3446
 5122TIP3    H136781   0.981   4.353  11.542  2.0120 -1.2583 -2.5083
 5122TIP3    H236782   0.918   4.461  11.456  0.0213 -0.6254 -0.3624
 5123TIP3   OH236783   3.747   6.635  14.415 -0.4033 -0.1240  0.1886
 5123TIP3    H136784   3.806   6.583  14.469  1.1953  1.8685  0.5104
 5123TIP3    H236785   3.734   6.716  14.466 -0.8119  0.7950 -1.3220
 5124TIP3   OH236786   0.346   5.916  11.893  0.1196 -0.1650 -0.8899
 5124TIP3    H136787   0.393   5.915  11.809  1.1056 -0.1033 -0.3482
 5124TIP3    H236788   0.304   5.830  11.898  1.6613 -0.9292 -0.5679
 5125TIP3   OH236789   1.770   6.377   3.661 -0.1015 -0.0329 -0.4005
 5125TIP3    H136790   1.778   6.441   3.732 -1.7416  0.5356 -0.6683
 5125TIP3    H236791   1.838   6.402   3.598 -1.5994  2.4535 -1.1969
 5126TIP3   OH236792   2.281   4.365   0.659  0.4479  0.6678  0.1945
 5126TIP3    H136793   2.330   4.374   0.577  0.4897 -1.2540 -0.0366
 5126TIP3    H236794   2.343   4.322   0.719 -0.4465 -0.4160  0.3673
 5127TIP3   OH236795   0.516   2.110  13.433 -0.1299 -0.1252  0.4430
 5127TIP3    H136796   0.552   2.158  13.359  0.1959  1.2320  1.4420
 5127TIP3    H236797   0.421   2.114  13.420 -0.0915  0.4707  0.3025
 5128TIP3   OH236798   5.725   4.838   1.826 -0.9771 -0.7355  0.4585
 5128TIP3    H136799   5.695   4.837   1.735  0.6539 -0.7689 -0.1162
 5128TIP3    H236800   5.812   4.797   1.824  0.9157  2.7663  1.2915
 5129TIP3   OH236801   3.405   0.152  14.879 -0.0585  0.1041 -0.0152
 5129TIP3    H136802   3.452   0.074  14.908  2.9228  0.7719 -2.4777
 5129TIP3    H236803   3.428   0.219  14.944  1.1920  0.0060 -0.3188
 5130TIP3   OH236804   2.793   4.375   5.171 -0.0055  0.1713  0.2400
 5130TIP3    H136805   2.824   4.314   5.237  0.3230 -0.6179 -0.6295
 5130TIP3    H236806   2.810   4.332   5.087 -1.1308  0.8045 -0.3458
 5131TIP3   OH236807   1.630   2.666  11.018 -0.3651 -0.2389  0.1925
 5131TIP3    H136808   1.561   2.604  11.044 -0.6709  0.0981  0.1892
 5131TIP3    H236809   1.696   2.658  11.087 -0.0929 -1.0552 -0.1529
 5132TIP3   OH236810   4.931   3.493   4.612  0.9800  0.1929  0.2244
 5132TIP3    H136811   4.866   3.552   4.573  1.9007  0.7743 -0.4681
 5132TIP3    H236812   5.000   3.486   4.546  2.0272  0.2687  1.2706
 5133TIP3   OH236813   1.114   3.375  11.773 -0.3503 -0.2152  0.2393
 5133TIP3    H136814   1.135   3.456  11.820 -3.2181 -0.1395  1.6614
 5133TIP3    H236815   1.019   3.367  11.782 -0.4330 -2.6478 -1.7299
 5134TIP3   OH236816   0.833   2.579   1.213 -0.0221  0.5871  0.2496
 5134TIP3    H136817   0.785   2.521   1.273 -1.8110  1.2194 -0.4779
 5134TIP3    H236818   0.882   2.520   1.156  0.6265 -0.0652  1.4449
 5135TIP3   OH236819   4.903   5.481  16.082 -0.2087 -0.0259  0.1924
 5135TIP3    H136820   4.882   5.407  16.024 -0.5508  0.6178 -0.5313
 5135TIP3    H236821   4.821   5.530  16.088 -0.6051 -0.8312  2.4144
 5136TIP3   OH236822   4.374   1.855   5.574 -0.1359  0.2005 -0.6380
 5136TIP3    H136823   4.424   1.810   5.506 -1.6269 -0.9544 -1.0202
 5136TIP3    H236824   4.438   1.872   5.643  1.2089  0.5558 -1.9013
 5137TIP3   OH236825   3.715   6.448   5.229  0.3176  0.7090 -0.2561
 5137TIP3    H136826   3.681   6.367   5.190 -0.2884  1.0675 -0.4820
 5137TIP3    H236827   3.808   6.448   5.207  0.1033  0.6156 -1.1823
 5138TIP3   OH236828   1.198   0.900   6.613  0.1861  0.3604  0.8066
 5138TIP3    H136829   1.233   0.973   6.664  3.0940 -0.2905 -0.0776
 5138TIP3    H236830   1.235   0.822   6.654 -1.5632 -0.5625  0.7420
 5139TIP3   OH236831   2.445   2.688  12.754 -0.6340 -0.1790  0.0707
 5139TIP3    H136832   2.519   2.628  12.744  0.3097  1.0222 -0.5101
 5139TIP3    H236833   2.429   2.720  12.666  0.8554  2.6174  0.6911
 5140TIP3   OH236834   4.974   5.055  15.370  0.8093  0.0322  0.4015
 5140TIP3    H136835   4.964   5.142  15.410  0.0217 -0.4969  1.4266
 5140TIP3    H236836   4.905   5.051  15.304  1.1371  0.3464  0.0350
 5141TIP3   OH236837   2.696   3.632   2.082  0.0067  0.2322 -0.0878
 5141TIP3    H136838   2.767   3.666   2.027  1.6357  0.5081  2.0533
 5141TIP3    H236839   2.668   3.707   2.135 -1.0130 -0.1950  0.0049
 5142TIP3   OH236840   4.208   5.158  13.170  0.3413  0.1030  0.3117
 5142TIP3    H136841   4.225   5.243  13.129 -1.5224  0.5881  0.4715
 5142TIP3    H236842   4.275   5.150  13.237 -0.1751  2.0211  1.1222
 5143TIP3   OH236843   6.750   2.022  17.214  0.0424 -0.2376  0.0837
 5143TIP3    H136844   6.742   2.054  17.124 -1.1723  1.1968  0.6624
 5143TIP3    H236845   6.663   1.985  17.233 -0.1831  0.7830  1.1250
 5144TIP3   OH236846   4.086   3.858  14.065  0.0711 -0.3138 -0.2629
 5144TIP3    H136847   4.051   3.798  14.131  0.9573 -0.2800  0.2548
 5144TIP3    H236848   4.139   3.803  14.008  0.6218 -0.0893  0.0219
 5145TIP3   OH236849   4.693   1.519  13.994 -0.0962  0.9408 -0.0045
 5145TIP3    H136850   4.644   1.532  14.075 -0.0353 -1.6904  0.5381
 5145TIP3    H236851   4.627   1.500  13.928  0.0438 -0.9934  0.3707
 5146TIP3   OH236852   4.979   4.530  16.458 -0.6020 -0.1392  0.1854
 5146TIP3    H136853   4.968   4.437  16.442 -1.1958 -0.0663  0.1618
 5146TIP3    H236854   5.074   4.544  16.454 -0.5928 -0.4697 -1.2893
 5147TIP3   OH236855   2.277   6.173  11.498  0.1445  0.2174  0.1975
 5147TIP3    H136856   2.372   6.185  11.494  0.3259 -0.2973  2.0691
 5147TIP3    H236857   2.262   6.086  11.462  0.4839 -0.0279  0.6352
 5148TIP3   OH236858   4.116   3.251  13.101  0.2268 -0.5599  0.1455
 5148TIP3    H136859   4.185   3.315  13.083  1.8045 -1.9104  1.1425
 5148TIP3    H236860   4.150   3.199  13.174 -2.2486 -0.7094  1.2788
 5149TIP3   OH236861   1.812   0.762   0.816  0.2523 -0.2707 -0.0056
 5149TIP3    H136862   1.728   0.724   0.791  0.5236 -2.1790  1.7558
 5149TIP3    H236863   1.825   0.734   0.906  2.5818  0.3639 -0.0892
 5150TIP3   OH236864   0.841   4.923   2.559  0.5204  0.3155  0.1537
 5150TIP3    H136865   0.765   4.933   2.616  1.5787 -0.9450  1.8792
 5150TIP3    H236866   0.821   4.846   2.506 -0.5775  1.6383 -1.4847
 5151TIP3   OH236867   1.494   2.610   2.155  0.2492 -0.2700  0.0050
 5151TIP3    H136868   1.551   2.580   2.085 -1.6972 -0.6835 -1.4691
 5151TIP3    H236869   1.490   2.705   2.143 -1.1385 -0.4638 -1.3507
 5152TIP3   OH236870   2.694   0.354   3.104  0.3082 -0.0237 -0.0628
 5152TIP3    H136871   2.688   0.395   3.017  1.4638 -2.5966 -1.4802
 5152TIP3    H236872   2.647   0.271   3.095  0.3820 -0.3056  1.8161
 5153TIP3   OH236873   0.726   4.700  11.251  0.0289 -0.4936  0.0502
 5153TIP3    H136874   0.689   4.706  11.163  1.8824 -0.1197 -0.7492
 5153TIP3    H236875   0.785   4.624  11.247  0.7125 -0.0141  0.7272
 5154TIP3   OH236876   4.273   6.526   0.417  0.3044  0.4046  0.5721
 5154TIP3    H136877   4.186   6.545   0.380 -0.0529 -0.7602  0.7886
 5154TIP3    H236878   4.282   6.588   0.489  0.0622  1.1803 -0.0467
 5155TIP3   OH236879   1.881   4.494   5.136  0.2387 -0.1674 -0.5238
 5155TIP3    H136880   1.852   4.514   5.047 -0.9378 -3.6825 -1.0920
 5155TIP3    H236881   1.849   4.406   5.152  1.3721 -0.0829  3.0342
 5156TIP3   OH236882   3.980   5.261  16.403  0.1214  0.1246 -0.5925
 5156TIP3    H136883   4.041   5.250  16.476 -2.0377  0.0038  1.3092
 5156TIP3    H236884   3.938   5.345  16.419 -1.0295 -0.3107 -1.2198
 5157TIP3   OH236885   5.645   3.680  17.302 -0.1707 -0.0179  0.7738
 5157TIP3    H136886   5.575   3.644  17.248 -1.4004  1.1431  1.5444
 5157TIP3    H236887   5.601   3.738  17.364  1.6436  2.1829  0.1190
 5158TIP3   OH236888   0.981   6.663   0.567  0.4473  0.7200 -0.4470
 5158TIP3    H136889   1.068   6.641   0.599 -0.0646  0.4554  0.8291
 5158TIP3    H236890   0.939   6.578   0.554  0.3089  0.8491 -0.8430
 5159TIP3   OH236891   3.889   3.685  15.605 -0.3175  0.5672 -0.1252
 5159TIP3    H136892   3.847   3.629  15.539  0.5561 -1.3194  0.8508
 5159TIP3    H236893   3.979   3.694  15.575 -0.5448  1.8813 -0.4973
 5160TIP3   OH236894   0.593   0.770  14.579  0.4650  0.4054 -0.4121
 5160TIP3    H136895   0.673   0.748  14.627  0.5339 -0.7657 -1.0312
 5160TIP3    H236896   0.621   0.835  14.515  1.2599 -1.0586 -1.6027
 5161TIP3   OH236897   5.602   4.541   1.673  0.0023  0.4100  0.5831
 5161TIP3    H136898   5.602   4.628   1.633  1.7441 -0.5672 -1.8360
 5161TIP3    H236899   5.519   4.501   1.645  0.7026  0.1475 -1.2882
 5162TIP3   OH236900   3.251   5.484   0.199 -0.5426  0.5290  0.0491
 5162TIP3    H136901   3.265   5.391   0.183 -1.6173  0.6147 -1.6809
 5162TIP3    H236902   3.279   5.527   0.117  0.1230  1.7545  0.8834
 5163TIP3   OH236903   3.566   2.075  15.326  0.0628  0.2424 -0.8327
 5163TIP3    H136904   3.488   2.115  15.289 -0.0336  2.4834  1.4676
 5163TIP3    H236905   3.634   2.090  15.261 -0.7618  1.0930 -1.5266
 5164TIP3   OH236906   3.920   1.442  10.935 -0.5975  0.2164  0.7998
 5164TIP3    H136907   3.988   1.383  10.902 -0.1244  0.3942  1.4392
 5164TIP3    H236908   3.866   1.461  10.858  1.2986  1.7669 -0.2402
 5165TIP3   OH236909   3.405   0.355   0.496 -0.0450 -0.6071 -0.3862
 5165TIP3    H136910   3.365   0.393   0.574 -0.5700 -0.0906 -0.8934
 5165TIP3    H236911   3.347   0.382   0.425  0.3503 -1.1884 -0.9349
 5166TIP3   OH236912   0.224   0.220  11.744 -0.1431 -0.3258  0.0187
 5166TIP3    H136913   0.283   0.211  11.669  1.5353 -2.8108  1.4854
 5166TIP3    H236914   0.233   0.137  11.792 -2.9117  0.2255  1.7396
 5167TIP3   OH236915   1.826   1.155  16.286  0.4918  0.2610  0.3731
 5167TIP3    H136916   1.746   1.189  16.325  0.9772 -0.1974  1.8678
 5167TIP3    H236917   1.804   1.138  16.195 -0.2734  2.8338 -0.0000
 5168TIP3   OH236918   1.173   1.175   2.001  0.1132  0.1231  0.0352
 5168TIP3    H136919   1.117   1.097   1.993 -0.2311  0.3956 -0.2784
 5168TIP3    H236920   1.260   1.145   1.975 -0.0348 -0.1389 -0.1695
 5169TIP3   OH236921   3.699   1.116   0.956  0.0805  0.2842 -0.4607
 5169TIP3    H136922   3.636   1.053   0.921 -0.0553  0.5927 -0.7823
 5169TIP3    H236923   3.760   1.133   0.883 -0.1979  0.9245 -0.5567
 5170TIP3   OH236924   3.469   2.100   2.944  0.1791  0.1377 -0.6226
 5170TIP3    H136925   3.473   2.154   2.864  0.1478  0.5680 -0.3376
 5170TIP3    H236926   3.512   2.154   3.011  3.0890 -1.4420 -1.0269
 5171TIP3   OH236927   1.200   1.731   0.456  0.0726 -0.2228 -0.4000
 5171TIP3    H136928   1.112   1.765   0.445  0.2726  0.0749 -1.1236
 5171TIP3    H236929   1.190   1.656   0.515 -0.8369 -0.9840 -1.4856
 5172TIP3   OH236930   2.637   2.451   2.475  0.1366 -0.2595  0.2178
 5172TIP3    H136931   2.667   2.362   2.457  1.8673  0.2442  0.4618
 5172TIP3    H236932   2.715   2.498   2.503 -0.9155  1.1081  1.0127
 5173TIP3   OH236933   5.980   5.991   4.253 -0.1152 -0.8790 -0.3945
 5173TIP3    H136934   5.999   6.063   4.193 -0.9495  0.6468  1.1075
 5173TIP3    H236935   5.921   5.934   4.204 -1.3349  0.6863 -0.8087
 5174TIP3   OH236936   3.122   2.651  13.495 -0.0633  0.1719  0.6560
 5174TIP3    H136937   3.203   2.612  13.529 -0.8735 -2.3710 -0.0907
 5174TIP3    H236938   3.052   2.596  13.531 -1.4139  1.7515  0.5330
 5175TIP3   OH236939   6.092   4.937   1.727 -0.0987 -0.1448 -0.5290
 5175TIP3    H136940   6.061   4.852   1.695 -1.2065 -0.4628  1.2808
 5175TIP3    H236941   6.017   4.976   1.770  1.3436  0.0237  2.0713
 5176TIP3   OH236942   5.673   1.228   6.777 -0.0879 -0.6004  0.2374
 5176TIP3    H136943   5.752   1.178   6.756 -1.0609 -1.8337 -0.5835
 5176TIP3    H236944   5.625   1.235   6.694 -0.3497  1.0828  0.4797
 5177TIP3   OH236945   3.441   2.043  14.128 -0.2505  0.0095 -0.6213
 5177TIP3    H136946   3.412   2.082  14.046  0.7729 -0.6871 -1.3372
 5177TIP3    H236947   3.533   2.021  14.113  0.1481  0.4741  0.9416
 5178TIP3   OH236948   3.617   2.667   3.500 -0.7436 -0.0132  0.4925
 5178TIP3    H136949   3.662   2.721   3.434 -0.4901  1.3687  1.7357
 5178TIP3    H236950   3.676   2.593   3.515 -0.7416 -0.2719 -0.7166
 5179TIP3   OH236951   5.826   5.514  16.684  0.0462 -0.1414  0.2510
 5179TIP3    H136952   5.894   5.448  16.674  1.1504  0.8937  0.7388
 5179TIP3    H236953   5.765   5.475  16.748  0.9705 -0.4721  0.9512
 5180TIP3   OH236954   0.295   3.079  16.417  0.5345 -0.2636 -0.2561
 5180TIP3    H136955   0.353   3.142  16.374  1.1546 -0.4572  0.2958
 5180TIP3    H236956   0.352   3.028  16.474 -0.4551  0.9068  1.8993
 5181TIP3   OH236957   5.316   3.750  16.349 -0.2840  0.2835 -0.1562
 5181TIP3    H136958   5.321   3.784  16.259  0.3439  1.0889  0.1632
 5181TIP3    H236959   5.292   3.827  16.401 -1.1603 -0.2915  0.3119
 5182TIP3   OH236960   2.236   5.736   5.513 -0.1056 -0.0168  0.0827
 5182TIP3    H136961   2.245   5.749   5.607  0.3619 -0.5816  0.1207
 5182TIP3    H236962   2.297   5.798   5.474  0.3946 -0.4329  0.1886
 5183TIP3   OH236963   2.578   2.076   6.621 -0.3452  0.5255  0.1207
 5183TIP3    H136964   2.629   2.138   6.672  0.5951  0.3190 -0.5449
 5183TIP3    H236965   2.620   1.991   6.637  1.3354  0.7385 -2.6247
 5184TIP3   OH236966   3.114   4.570   2.243 -0.5002 -0.0824 -0.0681
 5184TIP3    H136967   3.108   4.662   2.216  1.0484 -0.1301 -0.6830
 5184TIP3    H236968   3.186   4.568   2.306  1.0801 -1.2049 -1.8121
 5185TIP3   OH236969   2.045   5.791   0.853  0.1243  0.2554 -0.4566
 5185TIP3    H136970   2.089   5.756   0.776  0.9447 -0.9079  0.4890
 5185TIP3    H236971   2.117   5.815   0.912 -0.4850  0.8328  0.0663
 5186TIP3   OH236972   1.626   2.390   1.998 -0.0288  0.1157 -1.0137
 5186TIP3    H136973   1.682   2.329   1.949  0.4100  0.2103 -0.6294
 5186TIP3    H236974   1.571   2.334   2.052  0.4777  0.0558 -0.5481
 5187TIP3   OH236975   2.968   0.405   3.675 -0.4720 -0.1790 -0.2364
 5187TIP3    H136976   3.029   0.332   3.677 -3.1232 -2.5451 -0.1156
 5187TIP3    H236977   2.956   0.429   3.767  0.4705  0.5277 -0.2828
 5188TIP3   OH236978   2.703   4.978   3.093  0.1425  0.7109 -0.5506
 5188TIP3    H136979   2.703   4.897   3.144  0.4223  0.9489 -0.1679
 5188TIP3    H236980   2.635   4.965   3.027 -1.5052  1.0944  0.9902
 5189TIP3   OH236981   0.519   4.106   0.581 -0.2244 -0.0095 -0.1107
 5189TIP3    H136982   0.597   4.065   0.619 -0.2460  0.4880  0.4716
 5189TIP3    H236983   0.446   4.050   0.609 -0.3536  0.8660  1.3879
 5190TIP3   OH236984   0.569   2.842  11.491  0.5589 -0.3884  0.1052
 5190TIP3    H136985   0.618   2.924  11.498  0.0596 -0.0937  0.1866
 5190TIP3    H236986   0.635   2.777  11.467  0.9547  0.0406  0.0120
 5191TIP3   OH236987   2.056   0.206   1.558 -0.4958  0.2537 -0.2315
 5191TIP3    H136988   2.037   0.137   1.622 -1.8036  0.9502  0.1734
 5191TIP3    H236989   2.020   0.173   1.475 -0.4142  0.1112 -0.2094
 5192TIP3   OH236990   2.835   1.781   4.240  0.1416  0.1219 -0.6084
 5192TIP3    H136991   2.901   1.773   4.171 -0.4791 -2.0759 -1.0264
 5192TIP3    H236992   2.754   1.751   4.198 -0.3811 -0.6082  0.8704
 5193TIP3   OH236993   5.448   3.865  12.070  0.3739  0.1434  0.0433
 5193TIP3    H136994   5.364   3.846  12.113  0.7602  0.5603  1.0069
 5193TIP3    H236995   5.509   3.803  12.109  0.5646 -0.0067 -0.4944
 5194TIP3   OH236996   3.493   1.261  16.664 -0.4165  0.4637  0.1212
 5194TIP3    H136997   3.527   1.307  16.741 -0.7183 -1.3085  1.3544
 5194TIP3    H236998   3.571   1.239  16.614  0.2245 -1.9613  2.0200
 5195TIP3   OH236999   3.844   3.723  13.752  0.3163 -0.1561  0.2390
 5195TIP3    H137000   3.847   3.804  13.803  0.3492  0.3512 -0.5652
 5195TIP3    H237001   3.835   3.751  13.661  1.4666 -1.0241 -0.1694
 5196TIP3   OH237002   0.407   2.804   0.219 -0.5236 -0.0183 -0.7671
 5196TIP3    H137003   0.378   2.799   0.127 -0.6184 -2.7203 -0.6744
 5196TIP3    H237004   0.337   2.852   0.263 -1.4022 -0.2787 -1.8253
 5197TIP3   OH237005   1.224   5.711  15.770  0.2887 -0.1161 -0.3180
 5197TIP3    H137006   1.271   5.639  15.813  0.1382 -0.0159  0.0156
 5197TIP3    H237007   1.279   5.734  15.695 -0.3643 -1.5426 -1.2880
 5198TIP3   OH237008   4.062   4.466  14.100 -0.6496  0.2275 -0.3536
 5198TIP3    H137009   4.098   4.539  14.152 -1.3589  0.2140  0.1638
 5198TIP3    H237010   4.066   4.498  14.010  0.4233  0.3238 -0.2938
 5199TIP3   OH237011   0.177   1.186  12.979  0.3213 -0.3032  0.0498
 5199TIP3    H137012   0.240   1.258  12.967  0.4603 -0.4798 -0.2685
 5199TIP3    H237013   0.098   1.216  12.935  0.7696 -0.8694 -1.1784
 5200TIP3   OH237014   0.349   0.776   2.132 -0.2853 -0.1664  0.9543
 5200TIP3    H137015   0.333   0.722   2.210  0.2621  0.9956  1.9191
 5200TIP3    H237016   0.418   0.837   2.159  0.8629 -0.5820 -0.8782
 5201TIP3   OH237017   5.614   1.832   5.636  0.6829 -0.0391 -0.0992
 5201TIP3    H137018   5.565   1.914   5.628  0.7736  0.2078  1.5897
 5201TIP3    H237019   5.547   1.764   5.635  0.4986  0.1426 -0.2133
 5202TIP3   OH237020   1.707   4.080   3.930 -0.4655 -0.5297 -0.4160
 5202TIP3    H137021   1.672   4.059   4.016 -1.7379  0.0023 -0.7762
 5202TIP3    H237022   1.765   4.154   3.945 -0.0552 -0.9510  0.0951
 5203TIP3   OH237023   4.508   2.974  12.943  0.1622  0.3643 -0.3554
 5203TIP3    H137024   4.527   2.922  12.865  2.3669  0.7254 -0.1148
 5203TIP3    H237025   4.570   3.046  12.940 -1.0545  1.5035  0.7258
 5204TIP3   OH237026   1.992   3.623  11.503 -0.0183  0.1703 -0.0099
 5204TIP3    H137027   1.904   3.593  11.522 -1.1551  3.2081  0.0778
 5204TIP3    H237028   2.015   3.679  11.578  1.4967  0.3849 -0.5981
 5205TIP3   OH237029   2.206   1.674  12.121  0.5933  0.5237  0.0021
 5205TIP3    H137030   2.258   1.679  12.041  0.9021 -0.0171  0.1685
 5205TIP3    H237031   2.262   1.626  12.183 -0.6332 -1.3010 -0.2401
 5206TIP3   OH237032   2.097   3.067  14.268  0.3605  0.3254  0.2374
 5206TIP3    H137033   2.036   3.119  14.216  1.4265  0.2471 -1.1409
 5206TIP3    H237034   2.111   3.118  14.347  1.3508  2.1616 -1.0538
 5207TIP3   OH237035   1.513   3.731   2.067 -0.3095 -0.3565  0.0515
 5207TIP3    H137036   1.587   3.677   2.095 -0.7168 -2.4129 -2.4115
 5207TIP3    H237037   1.439   3.669   2.062 -1.5357  1.0696 -0.1025
 5208TIP3   OH237038   2.350   2.371   3.491  0.3664  0.1287 -0.7656
 5208TIP3    H137039   2.363   2.412   3.405 -1.0379 -0.4309 -1.2878
 5208TIP3    H237040   2.254   2.367   3.500  0.4638  1.6230  1.5403
 5209TIP3   OH237041   3.620   0.797   5.005 -0.4808  0.0722  0.3578
 5209TIP3    H137042   3.625   0.822   5.097  0.4317 -1.3901  0.7477
 5209TIP3    H237043   3.527   0.786   4.987 -0.7625  1.6544  0.7142
 5210TIP3   OH237044   6.314   2.317  14.601  0.2163 -0.0548  0.0381
 5210TIP3    H137045   6.341   2.243  14.656 -0.4338  0.1038  0.5848
 5210TIP3    H237046   6.384   2.381  14.610 -0.3182  0.3646  1.4525
 5211TIP3   OH237047   5.503   5.707  15.705 -0.4228  0.2696 -0.8785
 5211TIP3    H137048   5.597   5.703  15.722 -0.1668  0.6977 -2.1437
 5211TIP3    H237049   5.464   5.653  15.774  0.6271  1.2493  0.5331
 5212TIP3   OH237050   4.912   1.038  13.139  0.0625 -0.1291  0.0978
 5212TIP3    H137051   4.938   0.986  13.215  0.2997  1.9729  1.5350
 5212TIP3    H237052   4.860   1.109  13.176 -2.8793 -0.9370 -2.0807
 5213TIP3   OH237053   4.885   0.582   5.735 -0.2588 -0.0538 -0.3229
 5213TIP3    H137054   4.864   0.528   5.812 -1.9040  1.0820  0.0730
 5213TIP3    H237055   4.814   0.646   5.731  0.4706  0.6909 -2.0806
 5214TIP3   OH237056   0.180   0.726  11.774 -0.1279  0.5786 -0.0650
 5214TIP3    H137057   0.176   0.776  11.692  0.7670  0.7768 -0.0019
 5214TIP3    H237058   0.098   0.676  11.776  0.9116 -1.4056 -2.3451
 5215TIP3   OH237059   1.342   5.896  17.284 -0.5887 -0.4554  0.0259
 5215TIP3    H137060   1.435   5.877  17.295 -0.7482 -1.2222  0.0806
 5215TIP3    H237061   1.316   5.847  17.206 -1.6580 -2.9255  1.7816
 5216TIP3   OH237062   4.061   2.298   2.126  0.3318 -0.6420  0.0390
 5216TIP3    H137063   4.000   2.348   2.073  0.3433 -2.4699 -1.8327
 5216TIP3    H237064   4.034   2.207   2.114  1.7028 -1.2874  1.4667
 5217TIP3   OH237065   1.981   5.292   4.015 -0.3035 -0.5438 -0.7462
 5217TIP3    H137066   2.011   5.338   4.093 -1.2353  1.3091 -1.4282
 5217TIP3    H237067   2.061   5.266   3.970  0.3394  1.9967 -1.2038
 5218TIP3   OH237068   5.098   4.574  15.621  0.2579  0.4545  0.0118
 5218TIP3    H137069   5.039   4.547  15.551  1.4033 -1.7472 -0.1933
 5218TIP3    H237070   5.047   4.635  15.673 -1.8832 -0.6341 -0.6892
 5219TIP3   OH237071   0.401   0.773   5.529 -0.2713 -0.0848  0.2368
 5219TIP3    H137072   0.407   0.861   5.492 -1.6621 -0.1677 -0.2466
 5219TIP3    H237073   0.442   0.780   5.615 -0.9695  1.2137  0.4917
 5220TIP3   OH237074   2.880   1.418  13.541  0.0552  0.5376 -0.3077
 5220TIP3    H137075   2.946   1.401  13.607  0.0701 -0.9412 -0.6826
 5220TIP3    H237076   2.797   1.393  13.582 -0.2112  1.7140 -0.0883
 5221TIP3   OH237077   1.716   0.126   5.938  0.0816  0.1218 -0.0000
 5221TIP3    H137078   1.679   0.041   5.913 -1.8379  0.7886  0.3555
 5221TIP3    H237079   1.724   0.121   6.034 -1.1051  0.6974  0.1495
 5222TIP3   OH237080   4.465   5.036  15.167  0.0911 -0.2791  0.5550
 5222TIP3    H137081   4.468   4.990  15.083  0.5769  0.0423  0.3929
 5222TIP3    H237082   4.502   5.122  15.149  0.6878 -0.3902  1.2093
 5223TIP3   OH237083   0.334   4.103   3.726 -0.5439  0.1148  0.2819
 5223TIP3    H137084   0.334   4.186   3.679 -1.0838 -0.1720 -0.2278
 5223TIP3    H237085   0.353   4.037   3.660 -1.4360 -0.3057  0.4319
 5224TIP3   OH237086   5.759   1.324  16.971 -0.3509  0.0609  0.0336
 5224TIP3    H137087   5.784   1.250  17.025 -1.3994 -0.3976 -0.0918
 5224TIP3    H237088   5.734   1.286  16.887  1.8639  0.8164 -1.0362
 5225TIP3   OH237089   3.582   3.350  14.553 -0.1150 -0.5183  0.5726
 5225TIP3    H137090   3.518   3.280  14.541  0.7023 -0.9947 -1.6246
 5225TIP3    H237091   3.599   3.352  14.647 -0.0481 -3.3759  0.6976
 5226TIP3   OH237092   3.466   2.536  16.036  0.1389  0.0284 -0.0212
 5226TIP3    H137093   3.458   2.630  16.019  1.1324  0.5813  2.1552
 5226TIP3    H237094   3.528   2.505  15.970  0.1058  0.9809 -0.5246
 5227TIP3   OH237095   3.980   4.148   4.275  0.3219  0.9329  0.1314
 5227TIP3    H137096   4.056   4.175   4.326  0.8634  0.0601 -0.1950
 5227TIP3    H237097   4.016   4.090   4.207 -0.8838 -1.6551  1.5478
 5228TIP3   OH237098   6.715   4.704  15.403 -0.6142 -0.6681  0.3870
 5228TIP3    H137099   6.684   4.791  15.426 -0.8695 -1.0717  1.6195
 5228TIP3    H237100   6.723   4.658  15.486  1.1418 -1.2998 -0.0789
 5229TIP3   OH237101   0.167   0.924  16.812  0.5911 -0.2722  0.7165
 5229TIP3    H137102   0.190   0.836  16.842 -1.3767 -0.8311  0.7221
 5229TIP3    H237103   0.169   0.978  16.891  1.4606 -0.3880  0.7736
 5230TIP3   OH237104   5.614   0.283   5.038  0.8437 -0.2614  0.3225
 5230TIP3    H137105   5.521   0.264   5.055  1.2857 -0.1020  3.7209
 5230TIP3    H237106   5.632   0.241   4.954 -1.6604 -2.7650  0.8579
 5231TIP3   OH237107   4.413   5.909  17.053  0.0746  0.0536 -0.4654
 5231TIP3    H137108   4.414   5.996  17.093  0.8701 -0.6163  1.0661
 5231TIP3    H237109   4.456   5.852  17.117 -2.2158 -1.8734 -0.5050
 5232TIP3   OH237110   2.883   2.972   5.440  0.1305 -0.0990  0.6716
 5232TIP3    H137111   2.809   2.911   5.435 -0.6275  0.8684 -0.6849
 5232TIP3    H237112   2.886   3.000   5.531 -1.1348 -0.2162  0.7609
 5233TIP3   OH237113   2.085   2.671  14.917  0.2445  0.0389 -0.7073
 5233TIP3    H137114   2.141   2.601  14.952 -0.5049 -0.9176 -1.3509
 5233TIP3    H237115   2.028   2.626  14.855  1.0352  1.5177 -2.6133
 5234TIP3   OH237116   5.089   0.079  16.458  0.0452  0.8138  0.3548
 5234TIP3    H137117   5.184   0.080  16.470  0.2949 -2.3935 -0.5289
 5234TIP3    H237118   5.055   0.044  16.540 -0.2695  0.9301  0.2744
 5235TIP3   OH237119   6.555   6.146  11.264  0.0416  0.3465 -0.0803
 5235TIP3    H137120   6.558   6.095  11.344 -0.8657 -0.0383 -0.2872
 5235TIP3    H237121   6.471   6.191  11.267  0.3610  0.9779 -0.4239
 5236TIP3   OH237122   2.071   6.658   3.999 -0.5627 -0.4350  0.7304
 5236TIP3    H137123   2.066   6.577   4.049  2.5599 -2.3646 -1.7472
 5236TIP3    H237124   2.128   6.715   4.050 -0.4331 -0.9178  1.1254
 5237TIP3   OH237125   1.526   1.759  12.528  0.5164 -0.2076  0.3873
 5237TIP3    H137126   1.441   1.716  12.517 -0.8216  1.6215  2.7899
 5237TIP3    H237127   1.535   1.770  12.622  1.9048  2.5926  0.0085
 5238TIP3   OH237128   4.861   0.633  11.367 -0.2452 -0.3759 -0.1072
 5238TIP3    H137129   4.805   0.607  11.294 -0.7632  1.4576 -0.3970
 5238TIP3    H237130   4.806   0.690  11.420  0.7707 -0.0459  0.6093
 5239TIP3   OH237131   5.606   5.392  16.446 -0.6031 -0.4296 -0.3836
 5239TIP3    H137132   5.529   5.383  16.391  0.7486  2.4242 -3.0618
 5239TIP3    H237133   5.581   5.457  16.513 -0.9348 -0.5722 -0.3691
 5240TIP3   OH237134   0.384   3.067   5.865 -0.1204 -0.1829 -0.2753
 5240TIP3    H137135   0.390   3.133   5.795  0.8526  0.5045  0.4220
 5240TIP3    H237136   0.416   3.112   5.943 -1.6629 -0.7719  0.7551
 5241TIP3   OH237137   5.241   4.199  15.640 -1.0384 -0.5279  0.5306
 5241TIP3    H137138   5.176   4.155  15.585  0.2836  0.6185 -2.1665
 5241TIP3    H237139   5.254   4.284  15.597  0.4943  0.2551  2.3916
 5242TIP3   OH237140   5.718   3.440  17.004 -0.5767  0.6410 -0.2048
 5242TIP3    H137141   5.739   3.427  17.097 -0.0903  1.6888 -0.1563
 5242TIP3    H237142   5.795   3.406  16.958 -1.3098 -0.9795 -0.3013
 5243TIP3   OH237143   6.646   1.457   5.658  0.2393  0.2811  0.8425
 5243TIP3    H137144   6.564   1.407   5.653  0.7889 -0.7135  1.5611
 5243TIP3    H237145   6.625   1.541   5.616 -1.2435  0.1786  1.3166
 5244TIP3   OH237146   6.322   2.636   0.284  0.3445 -0.1492  0.2310
 5244TIP3    H137147   6.410   2.600   0.292 -0.0269 -1.0248  0.3804
 5244TIP3    H237148   6.285   2.594   0.206  0.3658  0.8889 -0.3720
 5245TIP3   OH237149   5.287   3.061   4.671 -0.1891 -0.0242 -0.0795
 5245TIP3    H137150   5.369   3.055   4.720 -0.2976  0.6960  0.1899
 5245TIP3    H237151   5.219   3.074   4.737 -0.5315 -0.6259 -0.2995
 5246TIP3   OH237152   6.415   2.027  13.798  0.0886 -0.0554  0.9143
 5246TIP3    H137153   6.421   1.947  13.746 -0.1030  1.7930 -2.1807
 5246TIP3    H237154   6.327   2.060  13.780  0.3327  1.0933  1.7314
 5247TIP3   OH237155   4.793   6.506  16.162 -0.3770  0.1268 -0.6904
 5247TIP3    H137156   4.724   6.480  16.223  1.2964 -1.1856  0.7129
 5247TIP3    H237157   4.818   6.594  16.190  0.9107 -0.7475  1.1163
 5248TIP3   OH237158   1.878   5.736   1.881 -0.1749  0.4657 -0.4044
 5248TIP3    H137159   1.799   5.707   1.836 -0.4107  0.4423  0.0120
 5248TIP3    H237160   1.913   5.806   1.826  0.1760 -0.3329 -1.1994
 5249TIP3   OH237161   0.096   1.974   1.852 -0.6818 -0.4862 -0.3947
 5249TIP3    H137162   0.008   1.936   1.846 -1.1391  0.5343 -0.3897
 5249TIP3    H237163   0.135   1.956   1.766 -1.1696 -0.3218 -0.6614
 5250TIP3   OH237164   5.575   5.260  12.124  0.6808  0.3773  0.2074
 5250TIP3    H137165   5.568   5.261  12.029  0.1283  2.4531  0.2396
 5250TIP3    H237166   5.488   5.236  12.155  0.1011  2.3755  0.2067
 5251TIP3   OH237167   5.373   6.335  11.154 -0.1248 -0.2987 -0.3827
 5251TIP3    H137168   5.352   6.310  11.064  0.1792  0.4455 -0.6728
 5251TIP3    H237169   5.442   6.275  11.181  0.6881  0.2876 -1.1069
 5252TIP3   OH237170   3.596   2.431  16.500 -1.1263 -0.1035  0.1661
 5252TIP3    H137171   3.635   2.362  16.447  0.7936  1.4313 -0.4822
 5252TIP3    H237172   3.619   2.407  16.590 -1.2915 -0.7840  0.0380
 5253TIP3   OH237173   2.075   2.667   1.988  0.0960  0.1696  0.4202
 5253TIP3    H137174   2.122   2.729   1.932 -1.1666  1.3496  0.6075
 5253TIP3    H237175   2.134   2.651   2.062  1.7267 -1.2940 -1.0960
 5254TIP3   OH237176   3.250   0.982  12.994  0.3025 -0.1580 -0.5526
 5254TIP3    H137177   3.159   0.956  13.006 -0.2173  1.2576 -1.2666
 5254TIP3    H237178   3.288   0.978  13.081 -0.2445 -1.4093 -0.3452
 5255TIP3   OH237179   0.130   0.326   4.091 -0.2168  0.1868 -0.0850
 5255TIP3    H137180   0.040   0.294   4.096 -0.1118 -0.0671  0.2015
 5255TIP3    H237181   0.144   0.343   3.998 -1.0400  1.6301  0.0353
 5256TIP3   OH237182   3.173   3.304  12.580  0.0760 -0.1129 -0.0414
 5256TIP3    H137183   3.211   3.320  12.667 -1.5966 -0.9418  0.8871
 5256TIP3    H237184   3.176   3.209  12.570 -2.0269 -0.2612  0.2439
 5257TIP3   OH237185   0.100   5.402   2.738 -0.1743 -0.2610 -0.0566
 5257TIP3    H137186   0.061   5.315   2.727 -1.7179  0.3744  0.2067
 5257TIP3    H237187   0.075   5.428   2.827  0.0826  0.5467 -0.2184
 5258TIP3   OH237188   4.465   6.041  13.440  0.5394 -0.7858  0.0096
 5258TIP3    H137189   4.445   5.951  13.467 -2.5328 -1.1242 -2.7331
 5258TIP3    H237190   4.458   6.093  13.520 -0.4009 -2.6138  1.1690
 5259TIP3   OH237191   4.054   0.591  15.883  0.4681  0.5806 -0.3435
 5259TIP3    H137192   4.098   0.672  15.856  3.6297 -0.3632  1.4561
 5259TIP3    H237193   4.032   0.606  15.975 -0.6999  0.0504 -0.5237
 5260TIP3   OH237194   6.721   2.777  16.689  0.1185  0.2006 -0.2263
 5260TIP3    H137195   6.755   2.860  16.655 -0.7249  1.0347  0.8580
 5260TIP3    H237196   6.788   2.748  16.751  0.4386  0.0409 -0.6439
 5261TIP3   OH237197   1.351   0.965   3.118  0.5283 -0.4389 -0.6851
 5261TIP3    H137198   1.299   1.039   3.086 -3.1389 -2.2741  0.3973
 5261TIP3    H237199   1.388   0.996   3.201 -1.7356  0.0335  0.2465
 5262TIP3   OH237200   6.558   0.229   5.796 -0.5367 -0.4612  0.2638
 5262TIP3    H137201   6.473   0.188   5.782 -1.2912  1.0557  0.1148
 5262TIP3    H237202   6.606   0.217   5.714 -0.6242 -1.2632  0.3262
 5263TIP3   OH237203   3.994   1.486   0.156 -0.1631 -0.2818 -0.3579
 5263TIP3    H137204   4.064   1.472   0.219 -1.8346 -1.2950  1.3840
 5263TIP3    H237205   3.997   1.580   0.137  1.4455 -0.2622 -0.1016
 5264TIP3   OH237206   5.737   2.015  15.521 -0.1985  0.0620  0.7915
 5264TIP3    H137207   5.815   2.033  15.574 -1.5439  0.6982  2.6303
 5264TIP3    H237208   5.771   1.964  15.446  1.6131 -1.8778  2.7806
 5265TIP3   OH237209   0.296   1.783  10.761 -0.0300 -0.0698  0.2948
 5265TIP3    H137210   0.370   1.755  10.815  1.3407  0.3565 -1.2822
 5265TIP3    H237211   0.221   1.780  10.820  0.8981 -2.2777  1.4832
 5266TIP3   OH237212   3.165   3.475  17.274  0.3790  0.1783 -0.9724
 5266TIP3    H137213   3.256   3.477  17.303 -0.0488  3.2595  0.6266
 5266TIP3    H237214   3.136   3.385  17.290  2.3146 -0.1157  1.3478
 5267TIP3   OH237215   5.706   4.744  12.585  0.3090  0.1524  0.3931
 5267TIP3    H137216   5.677   4.747  12.493 -0.7722 -0.4985  0.6924
 5267TIP3    H237217   5.797   4.773  12.582  0.0831  0.8348 -0.7966
 5268TIP3   OH237218   0.839   2.676  13.400  0.1609  0.2536 -0.1030
 5268TIP3    H137219   0.900   2.686  13.327 -1.9185  1.3149 -1.8079
 5268TIP3    H237220   0.895   2.679  13.478  2.3089  0.8276 -1.5632
 5269TIP3   OH237221   1.614   3.394  16.214 -0.7216 -0.0299 -0.3143
 5269TIP3    H137222   1.642   3.330  16.150 -1.7414  1.0593 -1.9280
 5269TIP3    H237223   1.647   3.478  16.181  1.2444  0.2714  2.1323
 5270TIP3   OH237224   2.372   2.524  16.444 -0.6282  0.2728 -0.0081
 5270TIP3    H137225   2.344   2.567  16.525 -0.0868 -0.3165  0.5016
 5270TIP3    H237226   2.455   2.482  16.466 -0.6673 -0.2213 -0.7568
 5271TIP3   OH237227   2.615   0.165   3.443 -0.0898  0.0906 -0.5087
 5271TIP3    H137228   2.640   0.254   3.420 -1.2441 -0.0350 -2.4490
 5271TIP3    H237229   2.527   0.154   3.407  0.5438 -2.2583 -1.5636
 5272TIP3   OH237230   4.130   3.282   4.630  0.1908 -0.1195  0.6676
 5272TIP3    H137231   4.152   3.229   4.707 -0.8188  0.1348  1.1561
 5272TIP3    H237232   4.119   3.371   4.665  2.5697  0.6172 -0.2455
 5273TIP3   OH237233   2.297   3.945   3.891 -0.5134 -0.1219  0.1225
 5273TIP3    H137234   2.203   3.958   3.903 -0.3141  0.0505  1.6077
 5273TIP3    H237235   2.322   3.884   3.960  0.6013  0.4190  0.2183
 5274TIP3   OH237236   3.416   6.583  14.059 -0.0954  0.4821  0.5021
 5274TIP3    H137237   3.394   6.676  14.061  0.4277  0.5970  1.4479
 5274TIP3    H237238   3.458   6.566  14.144 -1.4395 -0.9291  0.9385
 5275TIP3   OH237239   5.858   5.504   6.633 -0.3898 -0.1272  0.3997
 5275TIP3    H137240   5.835   5.491   6.725  0.8335  0.1999  0.7608
 5275TIP3    H237241   5.886   5.418   6.603 -1.8664 -0.5073 -0.0175
 5276TIP3   OH237242   1.731   2.392  12.867  0.1003 -0.1057 -0.6021
 5276TIP3    H137243   1.732   2.354  12.955  3.0396  1.3630  0.1543
 5276TIP3    H237244   1.795   2.341  12.818 -0.3172  0.1088 -1.3783
 5277TIP3   OH237245   3.394   5.993   3.062  0.0082 -0.0966 -0.2440
 5277TIP3    H137246   3.355   6.065   3.013 -1.0743 -0.5240 -0.0403
 5277TIP3    H237247   3.329   5.972   3.129  0.9263 -0.3315  0.6024
 5278TIP3   OH237248   5.142   0.309   4.641 -0.0272  0.1912  0.2048
 5278TIP3    H137249   5.127   0.233   4.584  1.5128 -0.7563  1.0157
 5278TIP3    H237250   5.227   0.343   4.614  0.6554 -0.1859  1.8097
 5279TIP3   OH237251   0.550   6.697  17.218  0.2026 -0.1381  0.2313
 5279TIP3    H137252   0.641   6.723  17.227  0.3477 -0.9414  1.3699
 5279TIP3    H237253   0.521   6.681  17.308 -0.5696 -1.4729 -0.2269
 5280TIP3   OH237254   6.536   5.180  17.215 -0.0345 -0.1788  0.0432
 5280TIP3    H137255   6.623   5.220  17.217 -0.2867  0.3648  0.3117
 5280TIP3    H237256   6.486   5.227  17.282 -0.5412 -0.4813 -0.1117
 5281TIP3   OH237257   2.790   3.246  11.239 -0.2343  0.1950 -0.3960
 5281TIP3    H137258   2.824   3.180  11.179  1.7206  0.1208  0.7176
 5281TIP3    H237259   2.810   3.330  11.198  2.1986  0.1822  0.5950
 5282TIP3   OH237260   3.106   3.159  12.299  0.1802 -0.7047 -0.4609
 5282TIP3    H137261   3.041   3.230  12.302  1.2818  0.3259 -0.2515
 5282TIP3    H237262   3.086   3.111  12.219 -1.3929 -0.9689  0.0563
 5283TIP3   OH237263   6.404   1.634  12.465  0.3333  0.2243 -1.0331
 5283TIP3    H137264   6.383   1.726  12.451  0.2043  0.6685  1.5047
 5283TIP3    H237265   6.350   1.586  12.402 -3.0941  1.6782  0.5469
 5284TIP3   OH237266   5.154   3.456   3.054 -1.1395 -0.0060 -0.8097
 5284TIP3    H137267   5.182   3.385   2.997  1.1324  0.6052 -0.5493
 5284TIP3    H237268   5.154   3.534   2.999 -0.5483  0.3068 -0.3799
 5285TIP3   OH237269   1.110   5.896   0.871  0.1722 -0.2722  0.7297
 5285TIP3    H137270   1.177   5.952   0.911  0.4573 -0.8872  1.1354
 5285TIP3    H237271   1.118   5.912   0.777 -0.4879  1.1736  0.9008
 5286TIP3   OH237272   4.633   5.385   0.947  0.5305  0.4860 -0.1693
 5286TIP3    H137273   4.544   5.372   0.915 -0.2876  0.3716  1.9716
 5286TIP3    H237274   4.668   5.297   0.960  0.8805  0.5305 -0.7565
 5287TIP3   OH237275   6.579   2.231  10.872 -0.4323  0.3201  0.1691
 5287TIP3    H137276   6.572   2.197  10.782 -0.5761  0.2612  0.2027
 5287TIP3    H237277   6.597   2.324  10.861  3.6300 -0.2779 -0.0359
 5288TIP3   OH237278   2.566   1.571   5.473  0.2336 -0.2981 -0.0990
 5288TIP3    H137279   2.481   1.542   5.440 -0.4854  1.1643  0.3801
 5288TIP3    H237280   2.557   1.568   5.569  0.0259  1.6519 -0.0149
 5289TIP3   OH237281   2.261   3.663   4.734 -0.5754 -0.6855  0.1665
 5289TIP3    H137282   2.266   3.728   4.804  1.1418 -0.6288  0.0444
 5289TIP3    H237283   2.248   3.580   4.780 -0.6465 -0.5037  0.4780
 5290TIP3   OH237284   4.391   4.857  14.909  0.4014  0.3227 -0.1647
 5290TIP3    H137285   4.408   4.835  14.818  0.0278 -0.0695 -0.1449
 5290TIP3    H237286   4.305   4.897  14.909  1.3272  2.4301 -0.2849
 5291TIP3   OH237287   4.293   5.362  15.736 -0.1159  0.3064  0.1296
 5291TIP3    H137288   4.241   5.302  15.682  1.0377  0.1169 -0.8055
 5291TIP3    H237289   4.244   5.368  15.818 -1.1920 -0.4916 -0.4214
 5292TIP3   OH237290   5.236   6.015  10.776 -1.1766 -0.3984  0.2371
 5292TIP3    H137291   5.294   6.086  10.746  0.8356 -1.7900  0.6117
 5292TIP3    H237292   5.211   5.970  10.696 -1.0097 -0.3255  0.1422
 5293TIP3   OH237293   3.993   5.897  12.137 -0.2904  0.4641  0.2351
 5293TIP3    H137294   3.959   5.985  12.149  1.5034  1.1282  0.8271
 5293TIP3    H237295   4.082   5.910  12.104 -0.2491 -1.1552 -0.4100
 5294TIP3   OH237296   6.486   2.774   4.578  0.1539  0.1465  0.2115
 5294TIP3    H137297   6.476   2.685   4.544 -0.4745  0.0840  0.5467
 5294TIP3    H237298   6.568   2.772   4.628  0.5106 -0.0497 -0.3713
 5295TIP3   OH237299   1.896   6.469  15.108  0.0248 -0.1503 -0.2913
 5295TIP3    H137300   1.991   6.472  15.107  0.1029 -1.1964  1.2428
 5295TIP3    H237301   1.871   6.469  15.015  1.5266 -0.3424 -0.7137
 5296TIP3   OH237302   5.226   1.475   5.913 -0.2913  0.5400 -0.2233
 5296TIP3    H137303   5.172   1.453   5.988  1.4144 -1.5948  0.5009
 5296TIP3    H237304   5.293   1.406   5.911  1.6085  2.3012 -1.8137
 5297TIP3   OH237305   3.000   0.826  15.579 -0.4570  0.3251 -0.1609
 5297TIP3    H137306   2.975   0.802  15.668  1.9120  1.9439  1.0645
 5297TIP3    H237307   2.950   0.905  15.560 -1.2239 -0.2119 -0.4671
 5298TIP3   OH237308   1.508   1.361   1.034 -0.1166 -0.6914 -1.0631
 5298TIP3    H137309   1.462   1.281   1.061 -0.6885 -0.1056 -0.2272
 5298TIP3    H237310   1.547   1.394   1.115  2.3869 -1.5052 -1.8613
 5299TIP3   OH237311   3.596   4.770   2.263 -0.1746  0.1567  0.2306
 5299TIP3    H137312   3.580   4.679   2.288 -0.4343  0.3263  0.6996
 5299TIP3    H237313   3.648   4.806   2.335 -2.2796  1.0978  1.3895
 5300TIP3   OH237314   2.220   4.161  11.802  0.4373  0.0581 -0.1207
 5300TIP3    H137315   2.301   4.138  11.756  1.6451  2.1574  0.8055
 5300TIP3    H237316   2.238   4.142  11.894 -0.7830 -1.0368 -0.0783
 5301TIP3   OH237317   6.441   0.417   4.283 -0.3540  0.0724 -0.3473
 5301TIP3    H137318   6.394   0.347   4.329  1.4148 -1.2286 -0.3836
 5301TIP3    H237319   6.426   0.495   4.336 -0.2887 -0.8894  1.1581
 5302TIP3   OH237320   3.237   2.422  13.622 -0.5912  0.5758  0.0037
 5302TIP3    H137321   3.320   2.392  13.583 -0.0367  0.1310  1.4611
 5302TIP3    H237322   3.171   2.365  13.583  0.0731 -0.5170  0.4248
 5303TIP3   OH237323   2.711   6.644   4.529 -0.0542  0.0124  0.7929
 5303TIP3    H137324   2.624   6.616   4.560 -0.6624 -0.3553 -1.0636
 5303TIP3    H237325   2.726   6.728   4.572 -0.2147 -1.0371  3.0366
 5304TIP3   OH237326   3.360   3.111   6.307 -0.7566 -0.0342 -0.2957
 5304TIP3    H137327   3.324   3.196   6.282  0.9296  0.4246 -1.2638
 5304TIP3    H237328   3.371   3.116   6.401 -0.3436  0.9486 -0.3923
 5305TIP3   OH237329   5.043   4.918   2.904 -0.1799 -0.0203  0.0054
 5305TIP3    H137330   5.075   5.008   2.906 -0.3943  0.0623 -0.2485
 5305TIP3    H237331   5.100   4.874   2.842 -0.5476  0.1243 -0.4393
 5306TIP3   OH237332   4.164   1.502   1.147  0.2730  0.5742  0.5590
 5306TIP3    H137333   4.135   1.421   1.189 -1.1384  0.4588 -0.5612
 5306TIP3    H237334   4.141   1.571   1.209 -4.5395  0.7341 -1.0022
 5307TIP3   OH237335   1.050   1.747   2.284 -0.6332  0.5321  0.0360
 5307TIP3    H137336   0.997   1.798   2.224 -0.9579  0.5582  0.3425
 5307TIP3    H237337   1.139   1.754   2.250 -0.9376 -0.1662 -0.9341
 5308TIP3   OH237338   0.861   0.145  12.467 -0.0062  0.0445 -0.1466
 5308TIP3    H137339   0.867   0.178  12.557 -0.6695  0.5076 -0.2663
 5308TIP3    H237340   0.784   0.090  12.467 -0.1985  0.3088 -0.5108
 5309TIP3   OH237341   1.028   5.956   3.343 -0.0224  0.3213 -1.0784
 5309TIP3    H137342   1.028   5.897   3.268  2.3485 -0.4443 -0.5696
 5309TIP3    H237343   1.046   5.899   3.418 -1.0352  1.2550 -0.0922
 5310TIP3   OH237344   3.636   5.412  16.210  0.4308  0.2860 -0.2005
 5310TIP3    H137345   3.554   5.433  16.254 -0.1512 -2.9651  0.5037
 5310TIP3    H237346   3.703   5.458  16.261 -0.8051  2.3401 -0.3123
 5311TIP3   OH237347   2.925   2.159  16.144 -0.4359  0.0759 -0.3646
 5311TIP3    H137348   2.919   2.066  16.168 -1.1038  0.2413  0.1534
 5311TIP3    H237349   2.890   2.163  16.055  0.9734 -0.3757 -0.9612
 5312TIP3   OH237350   3.660   2.884  10.870  0.2932 -0.7536 -0.1803
 5312TIP3    H137351   3.640   2.891  10.963  1.7753  0.7294  0.0753
 5312TIP3    H237352   3.575   2.893  10.826 -0.1335  1.2351  0.9489
 5313TIP3   OH237353   2.743   5.875   3.207  0.4630  0.0479 -0.2255
 5313TIP3    H137354   2.649   5.894   3.212  0.1923 -0.5517 -2.1380
 5313TIP3    H237355   2.784   5.960   3.189  0.1520  0.1511 -0.4645
 5314TIP3   OH237356   1.543   5.723  13.229 -0.1933 -0.0275 -0.3024
 5314TIP3    H137357   1.551   5.808  13.186  0.4350 -0.0880 -0.3131
 5314TIP3    H237358   1.633   5.699  13.253 -0.5888  0.4081  1.8561
 5315TIP3   OH237359   3.323   4.948   4.737 -0.5311 -0.1114 -0.9927
 5315TIP3    H137360   3.401   4.901   4.768 -1.3124 -1.1274 -0.5006
 5315TIP3    H237361   3.349   5.040   4.737 -0.5501  0.0342  3.0029
 5316TIP3   OH237362   6.616   1.289   0.485  0.3314 -0.0393 -0.3303
 5316TIP3    H137363   6.523   1.278   0.466  0.3857 -2.0926  0.4288
 5316TIP3    H237364   6.622   1.281   0.580  1.3218 -0.2214 -0.4038
 5317TIP3   OH237365   5.506   0.858   4.058  0.1044 -0.2698  0.7042
 5317TIP3    H137366   5.412   0.839   4.048  0.2057  0.2248 -1.5928
 5317TIP3    H237367   5.532   0.804   4.133 -1.8407 -1.0280  0.9140
 5318TIP3   OH237368   1.104   6.197  13.083 -0.0489 -0.2379  0.9496
 5318TIP3    H137369   1.111   6.259  13.156 -0.8538 -1.0697  1.7699
 5318TIP3    H237370   1.049   6.126  13.117 -0.8633 -0.4120 -0.6415
 5319TIP3   OH237371   1.114   4.309  10.909 -0.5567  0.2229  0.0337
 5319TIP3    H137372   1.055   4.268  10.846  0.8833 -1.2771 -0.4375
 5319TIP3    H237373   1.116   4.402  10.884 -1.4936  0.0034 -0.9108
 5320TIP3   OH237374   0.269   0.453   5.769 -0.3109 -0.1407 -0.4220
 5320TIP3    H137375   0.186   0.468   5.814 -0.3740 -2.6253  0.4512
 5320TIP3    H237376   0.323   0.528   5.793 -1.5385  0.3612  0.9220
 5321TIP3   OH237377   6.544   0.047   4.972  0.1990  0.0004 -0.9516
 5321TIP3    H137378   6.614   0.113   4.971 -0.5209  0.8641  0.8427
 5321TIP3    H237379   6.584  -0.032   4.937  2.0309  0.5341 -0.1686
 5322TIP3   OH237380   2.711   2.069   1.764  0.0268 -0.4329 -0.2151
 5322TIP3    H137381   2.643   2.137   1.766  0.9689  0.5341 -0.0930
 5322TIP3    H237382   2.714   2.036   1.854 -2.1237 -2.4279 -0.7674
 5323TIP3   OH237383   0.738   4.158  15.772 -0.1010  0.7395 -0.0267
 5323TIP3    H137384   0.683   4.230  15.740 -1.2151  0.7433  1.7342
 5323TIP3    H237385   0.682   4.081  15.767  0.4678  0.3335 -0.2098
 5324TIP3   OH237386   5.109   3.880  12.721 -0.1183 -0.1578  0.2710
 5324TIP3    H137387   5.176   3.860  12.655 -0.1655  1.6194 -0.3708
 5324TIP3    H237388   5.063   3.956  12.686  0.0149  1.0096  2.4917
 5325TIP3   OH237389   2.826   2.860   2.258  0.1737  0.2250  0.4140
 5325TIP3    H137390   2.829   2.938   2.314  0.4752  0.2562  0.3525
 5325TIP3    H237391   2.859   2.890   2.173 -0.7498  0.3040  0.0671
 5326TIP3   OH237392   3.498   2.181  11.920 -1.0508  0.2881 -0.4191
 5326TIP3    H137393   3.524   2.143  11.836 -1.2046 -0.2359 -0.2410
 5326TIP3    H237394   3.580   2.209  11.961 -0.8060 -0.8474 -0.0941
 5327TIP3   OH237395   6.449   6.583  14.260  0.2156 -0.1910 -0.0048
 5327TIP3    H137396   6.451   6.571  14.165 -0.8873 -1.9146  0.1484
 5327TIP3    H237397   6.451   6.494  14.296  1.6525  0.4565  1.6423
 5328TIP3   OH237398   3.199   6.187  10.904  0.3987  0.2594  0.8849
 5328TIP3    H137399   3.214   6.164  10.996  0.6379  1.5963  1.1964
 5328TIP3    H237400   3.215   6.281  10.900 -2.6128  0.8568  0.1352
 5329TIP3   OH237401   1.573   2.161  11.654 -0.1867  0.1943  0.1392
 5329TIP3    H137402   1.630   2.232  11.624  1.2369 -0.2890  1.5765
 5329TIP3    H237403   1.524   2.198  11.727  0.2015 -0.1676  0.5812
 5330TIP3   OH237404   0.392   3.094  13.547 -0.0936  0.2806  0.0106
 5330TIP3    H137405   0.471   3.104  13.494 -0.4860 -0.2727 -0.6898
 5330TIP3    H237406   0.423   3.052  13.628  0.8315  2.8077  1.0909
 5331TIP3   OH237407   2.115   0.564  14.147  0.8571 -0.9268  0.2029
 5331TIP3    H137408   2.192   0.508  14.145  0.2303 -1.8199  0.5943
 5331TIP3    H237409   2.063   0.536  14.073  1.6066  0.7397 -1.0149
 5332TIP3   OH237410   1.350   4.461  11.733  1.1399  1.0904 -0.4427
 5332TIP3    H137411   1.433   4.422  11.706  1.9466  2.8258 -0.5762
 5332TIP3    H237412   1.337   4.535  11.674 -1.6161 -0.3254 -1.8420
 5333TIP3   OH237413   3.258   4.200   4.959  0.0438 -0.5187 -0.2248
 5333TIP3    H137414   3.244   4.127   5.019 -1.6396  0.2637  0.4052
 5333TIP3    H237415   3.353   4.201   4.944  0.4931 -1.0095  2.1111
 5334TIP3   OH237416   4.159   0.006  13.586  0.1566 -0.1763 -0.1804
 5334TIP3    H137417   4.170  -0.034  13.500  1.0360  3.7989 -2.1645
 5334TIP3    H237418   4.092   0.073  13.573 -2.2519 -1.6313  3.2434
 5335TIP3   OH237419   3.934   5.449   3.561  0.2642  0.5367 -0.5503
 5335TIP3    H137420   3.871   5.388   3.599  1.9643 -1.0746 -0.1218
 5335TIP3    H237421   3.956   5.412   3.476  0.7303  0.9646 -0.6236
 5336TIP3   OH237422   0.785   1.783  15.581 -0.1019 -0.6299 -0.1099
 5336TIP3    H137423   0.715   1.752  15.639  1.9462 -2.6490  1.4358
 5336TIP3    H237424   0.780   1.878  15.587 -1.9381 -0.7358  0.9041
 5337TIP3   OH237425   1.895   6.058  16.710  0.2499 -0.2033  0.3848
 5337TIP3    H137426   1.973   6.033  16.759  0.5207  2.1260  1.2810
 5337TIP3    H237427   1.918   6.044  16.619  0.9982 -1.3412  0.7305
 5338TIP3   OH237428   3.471   6.361  16.706 -0.2894 -0.2866 -0.3531
 5338TIP3    H137429   3.488   6.379  16.614 -0.1252 -0.6942 -0.4073
 5338TIP3    H237430   3.556   6.334  16.741 -0.3697 -0.2160 -0.1052
 5339TIP3   OH237431   2.663   3.573   6.325 -0.3515  0.0565 -0.0117
 5339TIP3    H137432   2.742   3.596   6.275 -0.1829  0.1802  0.3072
 5339TIP3    H237433   2.696   3.524   6.400 -0.5937 -0.0230  0.0424
 5340TIP3   OH237434   0.623   1.297  10.994  0.3235 -0.3133 -0.1360
 5340TIP3    H137435   0.594   1.327  11.081 -0.1278 -2.8439  0.6596
 5340TIP3    H237436   0.713   1.328  10.987  0.0340  0.8120  0.7879
 5341TIP3   OH237437   2.623   4.389   1.075  0.4326 -0.0901 -0.4853
 5341TIP3    H137438   2.572   4.325   1.124  0.6042  1.1299  1.3847
 5341TIP3    H237439   2.564   4.465   1.067  1.7860  1.2442  1.4913
 5342TIP3   OH237440   3.154   0.074   5.752  0.3697 -0.5825 -0.2977
 5342TIP3    H137441   3.163   0.139   5.821  2.0094  0.8431 -1.7554
 5342TIP3    H237442   3.205  -0.001   5.782 -1.1382 -1.0920  1.1763
 5343TIP3   OH237443   1.955   6.349  12.326  0.2497  0.6240  0.1971
 5343TIP3    H137444   1.913   6.328  12.409 -1.4756  0.5292 -0.6586
 5343TIP3    H237445   1.942   6.271  12.272 -0.3022  1.3651 -0.7735
 5344TIP3   OH237446   2.198   3.062   2.983 -0.3962  0.4735 -0.7748
 5344TIP3    H137447   2.213   3.088   3.074 -0.8032  0.3173 -0.6589
 5344TIP3    H237448   2.103   3.063   2.973 -0.4858 -1.5129 -0.5916
 5345TIP3   OH237449   6.246   1.671   2.059  0.6201 -0.4527 -0.0478
 5345TIP3    H137450   6.246   1.767   2.053  0.9051 -0.4566 -0.1019
 5345TIP3    H237451   6.335   1.645   2.035  0.6712 -0.7053  0.4118
 5346TIP3   OH237452   4.152   4.449  14.775 -0.1438 -0.3433  0.2072
 5346TIP3    H137453   4.171   4.367  14.821 -0.7939 -0.5031  0.1934
 5346TIP3    H237454   4.136   4.512  14.844 -0.0044 -0.3113  0.2119
 5347TIP3   OH237455   5.785   6.534   3.432 -0.3696  0.5039  0.3913
 5347TIP3    H137456   5.828   6.610   3.473  0.1676 -0.2932  1.3561
 5347TIP3    H237457   5.817   6.459   3.483  0.6792 -0.6015 -1.7885
 5348TIP3   OH237458   4.625   3.227   0.634 -0.1192  0.2734  1.0734
 5348TIP3    H137459   4.619   3.322   0.644 -2.1633  0.0657  2.7137
 5348TIP3    H237460   4.553   3.193   0.688 -0.2321 -2.1657 -0.4458
 5349TIP3   OH237461   2.509   0.953   3.932 -0.1427  0.5457 -0.1362
 5349TIP3    H137462   2.485   1.032   3.980  0.4243 -0.5426  2.0727
 5349TIP3    H237463   2.561   0.902   3.994 -1.6616 -2.2098 -0.9637
 5350TIP3   OH237464   2.990   5.430   0.914  0.0953  0.3606 -0.7251
 5350TIP3    H137465   3.070   5.444   0.864  0.1696 -0.8937 -1.0002
 5350TIP3    H237466   3.019   5.421   1.004  0.3256 -0.4528 -0.8695
 5351TIP3   OH237467   1.247   2.836  13.065 -0.4226 -0.4405  0.2902
 5351TIP3    H137468   1.157   2.867  13.056 -0.4083 -0.7777 -1.6401
 5351TIP3    H237469   1.262   2.784  12.986  0.6877 -2.4307  1.7044
 5352TIP3   OH237470   0.085   6.469   1.484 -0.8567 -0.6827 -0.2136
 5352TIP3    H137471   0.176   6.487   1.460 -0.1666 -2.3054  1.0134
 5352TIP3    H237472   0.038   6.472   1.401 -0.0477  1.8789 -0.6840
 5353TIP3   OH237473   0.143   6.192  11.403  0.0630  0.0127  0.1533
 5353TIP3    H137474   0.080   6.231  11.464 -0.3284  0.4773 -0.5253
 5353TIP3    H237475   0.173   6.266  11.350  0.9995 -0.2475  0.3009
 5354TIP3   OH237476   4.258   4.634   0.834  0.4622 -0.2424 -0.0669
 5354TIP3    H137477   4.296   4.705   0.782  0.9420  0.6747  1.4572
 5354TIP3    H237478   4.329   4.570   0.842  0.3130 -0.4992 -0.6990
 5355TIP3   OH237479   2.923   2.850  11.699 -0.1205 -0.0907  0.2287
 5355TIP3    H137480   2.895   2.880  11.613  0.1401  1.7308  0.7322
 5355TIP3    H237481   2.999   2.794  11.682 -0.2619  0.0006 -0.7239
 5356TIP3   OH237482   0.126   0.893  13.398  0.4565 -0.1309  0.2048
 5356TIP3    H137483   0.122   0.959  13.467  1.2533 -0.2646  0.3909
 5356TIP3    H237484   0.217   0.863  13.399 -0.2024 -2.3034  1.1338
 5357TIP3   OH237485   1.123   1.184   1.273 -0.0762 -0.0699  0.1231
 5357TIP3    H137486   1.048   1.244   1.269 -0.2877 -0.1835  1.7541
 5357TIP3    H237487   1.113   1.137   1.356  0.7505 -1.5101 -0.5446
 5358TIP3   OH237488   2.245   6.573   6.283 -0.1596  0.4669 -0.0607
 5358TIP3    H137489   2.333   6.603   6.305 -0.6874  0.5252  2.3145
 5358TIP3    H237490   2.193   6.653   6.279 -0.2201  0.3904 -0.8851
 5359TIP3   OH237491   3.639   4.127  16.544 -0.4661 -0.2618 -0.2679
 5359TIP3    H137492   3.550   4.097  16.562 -0.4390 -0.7202 -0.8804
 5359TIP3    H237493   3.677   4.059  16.489  0.3784 -0.2207  0.2444
 5360TIP3   OH237494   2.500   3.861   2.946 -0.1905  0.3478  0.7003
 5360TIP3    H137495   2.445   3.806   3.002 -1.4681  2.6401  1.8383
 5360TIP3    H237496   2.455   3.864   2.862  0.6090 -1.3683  0.1647
 5361TIP3   OH237497   3.757   1.385  13.339 -0.2858  0.7693 -0.2307
 5361TIP3    H137498   3.737   1.403  13.247  1.1024  1.7286 -0.3771
 5361TIP3    H237499   3.840   1.337  13.337 -1.2650 -1.0971  0.4601
 5362TIP3   OH237500   3.560   0.429  17.368  0.1640  0.0229  0.3248
 5362TIP3    H137501   3.477   0.477  17.370 -0.4970 -1.0923  0.9482
 5362TIP3    H237502   3.577   0.417  17.274  0.0280  0.9144  0.1735
 5363TIP3   OH237503   4.708   6.292  10.910  0.0724 -0.2398  0.4760
 5363TIP3    H137504   4.712   6.230  10.983  1.4178 -1.8391 -0.8861
 5363TIP3    H237505   4.627   6.269  10.865 -0.4034  0.2916  1.0354
 5364TIP3   OH237506   0.752   6.017   2.115 -0.3438  0.5798 -0.2499
 5364TIP3    H137507   0.714   5.943   2.068 -0.9265  1.0826 -0.5846
 5364TIP3    H237508   0.686   6.039   2.181  0.3915 -0.0131  0.7148
 5365TIP3   OH237509   5.491   0.062  14.336 -0.9830  0.0604 -0.6337
 5365TIP3    H137510   5.439   0.005  14.280  0.1712  1.2759 -3.0787
 5365TIP3    H237511   5.485   0.148  14.295  0.7836  0.7845  0.5230
 5366TIP3   OH237512   3.617   3.324   4.606  0.0509 -1.0670  0.0527
 5366TIP3    H137513   3.528   3.338   4.574  0.2405 -0.2124 -0.1306
 5366TIP3    H237514   3.649   3.412   4.627  1.0525 -1.3038 -0.4409
 5367TIP3   OH237515   6.193   6.258   5.204  0.4611 -0.2575 -0.3220
 5367TIP3    H137516   6.232   6.221   5.125 -0.4165 -1.5665 -0.1741
 5367TIP3    H237517   6.266   6.269   5.265  0.5701 -3.5648  0.3118
 5368TIP3   OH237518   0.578   6.035  16.203  0.3537 -0.3007 -0.2495
 5368TIP3    H137519   0.526   6.108  16.168  1.8959  0.6689 -0.6028
 5368TIP3    H237520   0.586   6.055  16.297  0.4167 -0.2526 -0.2652
 5369TIP3   OH237521   3.158   0.133   0.654  0.1472 -0.2830 -0.0322
 5369TIP3    H137522   3.218   0.109   0.725 -1.1011 -0.9270  0.8568
 5369TIP3    H237523   3.072   0.105   0.686 -0.4011 -0.9568 -1.9796
 5370TIP3   OH237524   3.109   4.928   5.661 -0.1688 -0.0395 -0.5444
 5370TIP3    H137525   3.193   4.891   5.635 -0.2467 -0.9553  0.4154
 5370TIP3    H237526   3.132   5.006   5.712  0.0750  0.0261 -0.7534
 5371TIP3   OH237527   0.190   1.172   2.939 -0.2254 -0.2719 -0.8371
 5371TIP3    H137528   0.247   1.128   2.876  1.4157  0.2165  0.2108
 5371TIP3    H237529   0.174   1.107   3.007 -1.4305 -0.5874 -1.4056
 5372TIP3   OH237530   4.922   6.199   4.875  0.0278  0.5957 -0.0364
 5372TIP3    H137531   4.982   6.268   4.904  1.7671 -0.4872 -0.8497
 5372TIP3    H237532   4.867   6.181   4.951  3.0588 -0.7561  2.0380
 5373TIP3   OH237533   6.418   5.202  16.921  0.8316  0.3387  0.1043
 5373TIP3    H137534   6.348   5.159  16.971  1.2770  1.8272  2.1475
 5373TIP3    H237535   6.498   5.182  16.969  1.5409  0.3728 -1.0396
 5374TIP3   OH237536   5.818   5.640   4.944  0.8368 -0.1609 -0.3680
 5374TIP3    H137537   5.757   5.649   5.017 -1.5147  2.2636 -2.3595
 5374TIP3    H237538   5.887   5.703   4.962  0.7744 -0.2574  0.2097
 5375TIP3   OH237539   2.355   4.561   1.717  0.0294 -0.0539 -0.0840
 5375TIP3    H137540   2.291   4.499   1.683  0.4958 -0.2452 -0.6168
 5375TIP3    H237541   2.331   4.572   1.809 -0.2490 -0.7768 -0.0635
 5376TIP3   OH237542   2.362   1.023   2.765  0.0799 -0.2644  0.0490
 5376TIP3    H137543   2.321   0.944   2.798 -0.0865 -0.4939 -0.6828
 5376TIP3    H237544   2.361   1.084   2.839  2.6828 -1.8265  1.4779
 5377TIP3   OH237545   5.192   5.492  16.130 -0.3950  0.4055 -0.4170
 5377TIP3    H137546   5.097   5.485  16.124 -0.2653 -0.4743 -1.7414
 5377TIP3    H237547   5.225   5.447  16.052  1.1451 -0.1917  0.5307
 5378TIP3   OH237548   3.813   4.394  11.252  0.1444  0.3114 -0.1634
 5378TIP3    H137549   3.908   4.386  11.244  0.0557  0.4648 -1.5741
 5378TIP3    H237550   3.783   4.306  11.272  0.4671 -0.0459 -1.1795
 5379TIP3   OH237551   3.395   3.393  13.956  0.3404  0.0385  0.0833
 5379TIP3    H137552   3.421   3.332  14.025 -0.5975 -1.3051 -0.7048
 5379TIP3    H237553   3.474   3.408  13.905  0.4951 -0.8425  0.0523
 5380TIP3   OH237554   2.077   6.356  16.896  0.3417 -0.1472  0.0070
 5380TIP3    H137555   2.141   6.317  16.836 -0.4322 -2.5932  0.6372
 5380TIP3    H237556   2.128   6.379  16.973  0.4623 -2.9938  0.9073
 5381TIP3   OH237557   3.490   1.890   3.271  0.4968 -0.1216 -0.2864
 5381TIP3    H137558   3.559   1.943   3.232 -0.1181  1.5675  0.8119
 5381TIP3    H237559   3.412   1.945   3.267 -0.5514 -1.5525 -0.4888
 5382TIP3   OH237560   2.384   5.098   3.734 -0.1867  0.2825 -0.2085
 5382TIP3    H137561   2.471   5.125   3.702 -1.0197 -1.4085 -4.7289
 5382TIP3    H237562   2.351   5.174   3.781  2.6291  2.0308 -0.7973
 5383TIP3   OH237563   6.403   2.820  11.450  0.0722 -0.1276  0.4067
 5383TIP3    H137564   6.339   2.879  11.488  1.9744  1.6642  1.0442
 5383TIP3    H237565   6.475   2.819  11.513  1.3853 -0.7505 -1.0214
 5384TIP3   OH237566   1.996   4.200  16.969 -0.1636  0.4195  0.1527
 5384TIP3    H137567   2.065   4.139  16.946  1.0434  1.5688  0.6025
 5384TIP3    H237568   1.929   4.187  16.902 -0.1416 -1.6673  0.4902
 5385TIP3   OH237569   1.995   0.564   5.703  0.5039  0.2436  0.3181
 5385TIP3    H137570   2.067   0.525   5.654  0.1784 -0.3012  0.2573
 5385TIP3    H237571   1.979   0.648   5.661  0.4100 -0.0982 -0.3333
 5386TIP3   OH237572   5.427   2.726  13.881  0.3472  0.6290  0.8232
 5386TIP3    H137573   5.511   2.709  13.925 -0.2151 -0.7055  1.4211
 5386TIP3    H237574   5.361   2.717  13.950 -0.5126 -1.0471 -0.1512
 5387TIP3   OH237575   0.572   1.164  12.167 -0.4069 -0.3076 -0.0287
 5387TIP3    H137576   0.598   1.212  12.245  1.0087  0.1593 -0.7529
 5387TIP3    H237577   0.476   1.164  12.169 -0.4679  2.3962  0.1171
 5388TIP3   OH237578   5.137   0.349  13.966  0.2360 -0.3591  0.3761
 5388TIP3    H137579   5.157   0.417  13.901  2.0829 -1.5952 -0.4434
 5388TIP3    H237580   5.052   0.374  14.001  0.2489  1.6395 -0.8445
 5389TIP3   OH237581   6.481   3.987   5.991  1.0327  0.1845  0.3073
 5389TIP3    H137582   6.564   4.033   5.974  1.1063  1.1470  2.8127
 5389TIP3    H237583   6.493   3.946   6.076 -0.2441 -1.7856 -0.3940
 5390TIP3   OH237584   0.427   6.210  13.161  0.4295  0.0855 -0.0096
 5390TIP3    H137585   0.475   6.215  13.243 -0.5510  1.2484  0.5146
 5390TIP3    H237586   0.488   6.246  13.096  1.2764 -1.0040  0.1525
 5391TIP3   OH237587   0.295   6.443   1.771  0.2135  0.6893 -0.3889
 5391TIP3    H137588   0.299   6.359   1.724  4.1248  0.4407  0.0724
 5391TIP3    H237589   0.253   6.421   1.855 -0.2805 -0.4404 -0.9054
 5392TIP3   OH237590   1.991   1.419  11.843 -0.4901  0.1598 -0.2480
 5392TIP3    H137591   2.051   1.365  11.895  0.2248  1.8132  0.6928
 5392TIP3    H237592   1.908   1.371  11.847 -0.0021 -0.6471  0.9522
 5393TIP3   OH237593   4.459   1.426   1.329 -0.7773 -0.3301  0.0626
 5393TIP3    H137594   4.380   1.470   1.358 -1.2217  0.5455 -2.2525
 5393TIP3    H237595   4.429   1.339   1.300 -0.6262 -0.5650  0.6050
 5394TIP3   OH237596   2.136   4.234  15.312 -0.2258 -0.4309 -0.3597
 5394TIP3    H137597   2.134   4.153  15.362 -0.9895 -0.4047 -0.3389
 5394TIP3    H237598   2.214   4.226  15.257 -1.5934 -2.2686 -2.1529
 5395TIP3   OH237599   0.246   2.543   4.939  0.4332  0.7517 -0.2679
 5395TIP3    H137600   0.159   2.559   4.975  0.6339 -1.1542  1.2364
 5395TIP3    H237601   0.293   2.625   4.954 -0.8279  1.5223 -0.3428
 5396TIP3   OH237602   5.083   0.237   5.165  0.3954  0.4992  0.2214
 5396TIP3    H137603   4.994   0.269   5.181  0.0304 -0.0791 -0.5598
 5396TIP3    H237604   5.106   0.274   5.079  0.6374  0.0820  0.1038
 5397TIP3   OH237605   4.160   5.780  17.032 -0.4593 -0.0429 -0.1950
 5397TIP3    H137606   4.250   5.813  17.023 -0.6749  0.7275  0.3926
 5397TIP3    H237607   4.126   5.778  16.942 -0.2427  0.7809 -0.2998
 5398TIP3   OH237608   4.022   6.420  11.977  0.4712 -0.8121 -0.4720
 5398TIP3    H137609   4.036   6.427  12.072  3.0622 -1.5808 -0.7161
 5398TIP3    H237610   4.072   6.493  11.940 -2.0161  0.6212 -1.2383
 5399TIP3   OH237611   6.508   2.437   0.307  0.3722 -0.2911  0.2426
 5399TIP3    H137612   6.505   2.351   0.348  1.0773 -0.0858  0.7386
 5399TIP3    H237613   6.532   2.420   0.216 -0.6471 -0.7044  0.0439
 5400TIP3   OH237614   1.342   1.752   2.880  0.2685  0.8793  0.2972
 5400TIP3    H137615   1.292   1.716   2.806  0.8470 -0.6328  0.6038
 5400TIP3    H237616   1.292   1.725   2.957  0.3265  1.3765  0.5079
 5401TIP3   OH237617   4.410   0.017  14.061 -0.0826  0.4157  0.3326
 5401TIP3    H137618   4.357  -0.049  14.016  0.0591  1.1300 -0.9154
 5401TIP3    H237619   4.443   0.073  13.991  0.1971  1.5309  1.3342
 5402TIP3   OH237620   3.464   1.126   0.563  0.0300 -0.2019 -0.2146
 5402TIP3    H137621   3.542   1.105   0.513  0.2096 -1.6821  0.6501
 5402TIP3    H237622   3.492   1.196   0.623  0.7508 -0.8711  0.2399
 5403TIP3   OH237623   6.450   5.708  14.332 -0.1267 -0.3888  0.1055
 5403TIP3    H137624   6.518   5.656  14.291 -0.4444 -1.2727  0.6836
 5403TIP3    H237625   6.385   5.722  14.263 -0.9167 -2.3163  0.4012
 5404TIP3   OH237626   1.203   5.912   2.561  0.0705  0.3478  0.1449
 5404TIP3    H137627   1.207   5.979   2.629 -1.3245  3.5748 -2.6144
 5404TIP3    H237628   1.110   5.894   2.550  0.4346 -2.6588  1.2035
 5405TIP3   OH237629   4.985   0.398   1.101  0.6624 -0.2074  0.3898
 5405TIP3    H137630   4.957   0.466   1.040  1.3980 -0.3811 -0.1538
 5405TIP3    H237631   4.906   0.347   1.118  0.4705 -0.2152 -0.5029
 5406TIP3   OH237632   6.081   5.894   5.348 -0.1040 -0.3369 -0.3427
 5406TIP3    H137633   6.117   5.911   5.261  0.0014  0.8624 -0.0848
 5406TIP3    H237634   6.156   5.862   5.399  0.1805  0.3651 -0.3077
 5407TIP3   OH237635   4.088   0.549  15.126  0.1891 -0.6662 -0.1308
 5407TIP3    H137636   4.053   0.485  15.189  0.0250 -0.6140 -0.1699
 5407TIP3    H237637   4.168   0.507  15.093  0.5572 -0.4746  0.4923
 5408TIP3   OH237638   6.186   1.904  15.557 -0.4203 -0.0222 -0.2573
 5408TIP3    H137639   6.169   1.900  15.651  0.0801 -1.7356 -0.2127
 5408TIP3    H237640   6.268   1.857  15.546 -0.6032 -0.0518 -1.5886
 5409TIP3   OH237641   2.674   3.492  17.208  0.2257  0.6275  0.2035
 5409TIP3    H137642   2.580   3.500  17.191  0.3017  0.4573 -0.3113
 5409TIP3    H237643   2.685   3.401  17.236  0.1539  0.8096  0.8443
 5410TIP3   OH237644   1.030   6.707  12.359  0.1993  0.6104  0.2206
 5410TIP3    H137645   0.972   6.782  12.371  0.1191  0.6618 -0.4713
 5410TIP3    H237646   1.091   6.735  12.291  0.2860  0.1195  0.0969
 5411TIP3   OH237647   1.781   4.679  12.946 -0.4795 -0.5160  0.2369
 5411TIP3    H137648   1.812   4.762  12.910 -0.7824 -0.3392  0.3760
 5411TIP3    H237649   1.839   4.613  12.908 -1.1366 -0.3992 -1.0433
 5412TIP3   OH237650   5.991   0.694   4.808 -0.5648 -0.6806 -0.2313
 5412TIP3    H137651   5.978   0.788   4.799  1.2519 -0.4226 -0.6688
 5412TIP3    H237652   5.904   0.656   4.796 -1.3201  0.9201 -0.1029
 5413TIP3   OH237653   5.321   4.277   3.979  0.2929 -0.3750 -0.0523
 5413TIP3    H137654   5.406   4.317   3.998 -0.2934  0.5073  0.8392
 5413TIP3    H237655   5.309   4.213   4.049  0.7885 -1.4494 -0.9220
 5414TIP3   OH237656   5.069   6.427  14.315  0.2447  0.3371  0.3132
 5414TIP3    H137657   5.064   6.390  14.403  0.4204  0.4781  0.3815
 5414TIP3    H237658   5.132   6.498  14.322 -0.1564  0.7099  0.2005
 5415TIP3   OH237659   2.619   1.123  11.603 -0.1187 -0.6148 -0.2619
 5415TIP3    H137660   2.598   1.069  11.680 -0.6932  0.8518  0.6560
 5415TIP3    H237661   2.692   1.078  11.562  0.9535 -0.8687  1.7743
 5416TIP3   OH237662   3.267   4.168   4.543 -0.0204 -0.1656 -0.1978
 5416TIP3    H137663   3.307   4.252   4.520  1.2792 -1.0364 -1.2677
 5416TIP3    H237664   3.321   4.135   4.614  0.3160 -0.7091 -0.7008
 5417TIP3   OH237665   3.220   6.004   3.783 -0.5026 -0.3588 -0.8161
 5417TIP3    H137666   3.200   5.917   3.747  0.5437 -0.6365 -0.7585
 5417TIP3    H237667   3.263   6.050   3.711 -0.0453 -0.2812 -0.4940
 5418TIP3   OH237668   3.653   5.570  12.758 -0.1560 -0.1612  0.4589
 5418TIP3    H137669   3.579   5.512  12.775  0.8558 -1.6900 -0.2166
 5418TIP3    H237670   3.667   5.565  12.664  1.5222 -0.8145  0.7197
 5419TIP3   OH237671   5.016   4.558  14.313  0.3139  0.2376  0.3947
 5419TIP3    H137672   5.045   4.565  14.222 -0.0601  0.1319  0.2679
 5419TIP3    H237673   5.069   4.623  14.360 -0.4878  1.2941 -0.1397
 5420TIP3   OH237674   0.890   1.063  16.786 -0.1556 -0.1230 -0.3305
 5420TIP3    H137675   0.939   1.062  16.704 -0.3243  1.6694 -0.4803
 5420TIP3    H237676   0.952   1.095  16.851 -0.8763  1.5036 -0.3914
 5421TIP3   OH237677   2.282   0.919  14.793  0.1321  0.5743  0.2978
 5421TIP3    H137678   2.325   1.000  14.820 -1.0933  1.1838  0.4550
 5421TIP3    H237679   2.251   0.936  14.704 -0.3705  0.3781  0.4338
 5422TIP3   OH237680   3.553   4.642   3.023 -0.0122 -0.2891 -0.0493
 5422TIP3    H137681   3.641   4.622   2.993  0.1975 -0.9251  0.9672
 5422TIP3    H237682   3.563   4.664   3.116 -1.1574 -2.2380  0.5847
 5423TIP3   OH237683   5.073   3.226  13.196 -0.2056  0.1945 -0.3188
 5423TIP3    H137684   5.050   3.137  13.170 -1.3887  0.8491 -1.6778
 5423TIP3    H237685   5.089   3.272  13.113  0.9294  1.1209  0.3758
 5424TIP3   OH237686   0.692   6.266   0.395  0.2300  0.4106  0.4529
 5424TIP3    H137687   0.616   6.248   0.449  0.2169 -0.6141  0.1185
 5424TIP3    H237688   0.680   6.211   0.317  0.6240  1.2719 -0.2468
 5425TIP3   OH237689   5.220   6.399  14.923 -0.1344 -0.0698 -0.1005
 5425TIP3    H137690   5.130   6.430  14.920 -0.6426 -1.0036  2.8357
 5425TIP3    H237691   5.272   6.472  14.889 -1.9603  0.3235 -2.2438
 5426TIP3   OH237692   2.979   0.103  11.569  0.1308  0.4861 -0.5193
 5426TIP3    H137693   3.010   0.173  11.626 -1.4349  0.7254  0.0943
 5426TIP3    H237694   3.010   0.128  11.482 -0.3425  1.9211 -0.3064
 5427TIP3   OH237695   4.320   1.715   0.605  0.3790  0.2737 -0.3040
 5427TIP3    H137696   4.318   1.720   0.700  0.5363  3.8321 -0.3333
 5427TIP3    H237697   4.234   1.747   0.577  2.1067  5.2095 -1.1487
 5428TIP3   OH237698   5.867   6.227   4.445 -0.1779 -0.4398 -0.0703
 5428TIP3    H137699   5.875   6.248   4.352  0.2199 -0.4674 -0.0446
 5428TIP3    H237700   5.774   6.236   4.464  0.0006  1.6964  0.0414
 5429TIP3   OH237701   0.997   6.727  16.039  0.2422 -0.1143  0.0064
 5429TIP3    H137702   1.042   6.650  16.072 -0.8563 -0.7668  0.0298
 5429TIP3    H237703   0.904   6.709  16.054 -0.0390  1.1695 -0.0746
 5430TIP3   OH237704   0.138   4.336   2.773  0.1536  0.1007 -0.2230
 5430TIP3    H137705   0.083   4.316   2.696  1.1066 -0.9502 -0.6630
 5430TIP3    H237706   0.081   4.317   2.848 -0.4096 -0.0135 -0.6655
 5431TIP3   OH237707   3.905   1.175   5.389  0.0433  0.0450  0.3555
 5431TIP3    H137708   3.991   1.171   5.431  0.8084  1.9880 -0.9134
 5431TIP3    H237709   3.848   1.217   5.453  0.7412  1.2698  0.1958
 5432TIP3   OH237710   3.241   2.549   1.760  0.5166 -0.0574  0.1111
 5432TIP3    H137711   3.262   2.618   1.697 -0.8779 -0.1931 -0.5322
 5432TIP3    H237712   3.279   2.469   1.722  0.5274  0.0303 -0.0609
 5433TIP3   OH237713   5.065   5.976   4.773  0.2452  0.3631  0.2156
 5433TIP3    H137714   5.029   6.063   4.792 -0.7308 -0.1135  0.6136
 5433TIP3    H237715   5.007   5.941   4.706  0.5528 -0.0437  0.1618
 5434TIP3   OH237716   0.825   1.666  14.815  0.3330  0.4019 -0.4661
 5434TIP3    H137717   0.874   1.602  14.764  2.8696  0.9339  1.1221
 5434TIP3    H237718   0.806   1.622  14.897  0.7308  1.1491  0.0363
 5435TIP3   OH237719   5.918   6.222  11.880 -0.3209 -0.0293 -0.3005
 5435TIP3    H137720   5.906   6.230  11.786  2.4104 -0.5876 -0.7647
 5435TIP3    H237721   6.007   6.188  11.891  0.0490  1.5104  2.5227
 5436TIP3   OH237722   4.858   2.754  14.901  0.8308 -0.1239 -0.4616
 5436TIP3    H137723   4.792   2.685  14.892  0.1207  0.4847 -0.0879
 5436TIP3    H237724   4.807   2.832  14.925  1.6409  0.4704 -0.6418
 5437TIP3   OH237725   4.950   4.008   1.706  0.4313 -0.4631  0.0470
 5437TIP3    H137726   4.883   3.964   1.655 -0.3367 -2.2197  2.3972
 5437TIP3    H237727   4.921   4.099   1.710 -0.5935 -0.7368 -0.8649
 5438TIP3   OH237728   0.479   6.577   2.738  0.1210  0.0282 -0.1406
 5438TIP3    H137729   0.403   6.622   2.775 -1.9443 -1.7063 -1.9237
 5438TIP3    H237730   0.496   6.624   2.656  1.4864  0.8275  0.5651
 5439TIP3   OH237731   5.884   0.727  14.917  0.1200  0.0118 -0.5332
 5439TIP3    H137732   5.849   0.816  14.931 -0.1093 -0.0772 -0.5337
 5439TIP3    H237733   5.960   0.722  14.975 -0.4142 -0.1160  0.1706
 5440TIP3   OH237734   2.319   4.189   1.719 -0.3271  0.1504  0.0691
 5440TIP3    H137735   2.343   4.222   1.632  1.5923 -1.2555  0.0087
 5440TIP3    H237736   2.395   4.207   1.774 -0.8983 -0.4043  1.0835
 5441TIP3   OH237737   0.029   3.616   3.953  0.1243  0.5584  0.2598
 5441TIP3    H137738  -0.017   3.588   3.874 -0.1380 -0.5048  0.7839
 5441TIP3    H237739   0.113   3.648   3.921  0.3562 -0.6525 -0.3728
 5442TIP3   OH237740   3.399   2.612   5.469 -0.1855  0.0199  0.2445
 5442TIP3    H137741   3.346   2.534   5.447  0.4796 -0.1265 -0.8912
 5442TIP3    H237742   3.360   2.644   5.550 -3.5069  1.2216 -1.6406
 5443TIP3   OH237743   4.692   6.333   1.677  0.0527  0.4114 -0.2481
 5443TIP3    H137744   4.733   6.411   1.714 -0.0668 -0.2626  1.3896
 5443TIP3    H237745   4.609   6.364   1.641 -0.1857  0.9764  0.7661
 5444TIP3   OH237746   3.107   0.635  14.235 -0.0437 -0.9746 -0.5785
 5444TIP3    H137747   3.176   0.626  14.169  0.5362  1.2475 -0.3657
 5444TIP3    H237748   3.026   0.636  14.185  0.2717 -1.0895 -1.1034
 5445TIP3   OH237749   6.361   3.873   5.168 -0.0265  0.5355  0.0265
 5445TIP3    H137750   6.306   3.810   5.122  0.2055  1.5407 -1.6826
 5445TIP3    H237751   6.429   3.819   5.209 -2.1458 -0.7303  2.1869
 5446TIP3   OH237752   4.736   2.750   5.104  0.2957  0.2873 -0.0218
 5446TIP3    H137753   4.701   2.713   5.185 -1.4619  1.1491 -0.3197
 5446TIP3    H237754   4.680   2.713   5.035  0.0421  1.5895 -0.5447
 5447TIP3   OH237755   3.816   4.300  14.844 -0.3463  0.0631  0.3951
 5447TIP3    H137756   3.750   4.344  14.791 -0.2541  0.8872  0.9305
 5447TIP3    H237757   3.888   4.282  14.783 -0.1743  1.1397  0.2502
 5448TIP3   OH237758   1.657   3.348   4.261  0.0359 -0.0696 -0.7481
 5448TIP3    H137759   1.749   3.323   4.257 -0.0392 -0.7015  0.6944
 5448TIP3    H237760   1.612   3.285   4.204  0.2436 -1.2826  0.3624
 5449TIP3   OH237761   2.607   1.827   1.656 -0.1162 -0.2531 -0.5653
 5449TIP3    H137762   2.545   1.850   1.587 -0.8646  0.0557  0.2055
 5449TIP3    H237763   2.652   1.909   1.677  0.1628 -0.3617 -0.7296
 5450TIP3   OH237764   4.451   1.442  13.134 -0.2355  0.4526  0.3711
 5450TIP3    H137765   4.366   1.450  13.177 -0.5138  0.2915 -0.1382
 5450TIP3    H237766   4.439   1.482  13.048 -0.6928 -2.2294 -0.9143
 5451TIP3   OH237767   2.216   4.147   6.177  0.0936  0.3459 -0.0438
 5451TIP3    H137768   2.284   4.112   6.121 -0.6526  1.3200 -1.6163
 5451TIP3    H237769   2.152   4.076   6.184 -0.3923  0.6090 -1.4684
 5452TIP3   OH237770   3.457   2.821  12.941 -0.6972  0.1473 -0.0622
 5452TIP3    H137771   3.405   2.868  12.876 -1.6297  0.0789  0.6105
 5452TIP3    H237772   3.433   2.729  12.929 -1.0215  0.1559  0.5025
 5453TIP3   OH237773   3.868   0.895   0.304  0.0983 -0.0616 -0.7651
 5453TIP3    H137774   3.900   0.893   0.214 -0.9720  1.4928 -1.2273
 5453TIP3    H237775   3.946   0.891   0.358  0.6809 -3.0579 -1.6738
 5454TIP3   OH237776   5.664   4.441  13.508  0.0622 -0.2311 -0.2084
 5454TIP3    H137777   5.732   4.418  13.571 -0.7605 -1.3494  0.3147
 5454TIP3    H237778   5.711   4.450  13.425  0.8573 -1.0111  0.1355
 5455TIP3   OH237779   1.647   3.920  15.054 -0.2705  0.2464  0.2360
 5455TIP3    H137780   1.642   3.831  15.018 -1.4794 -0.7186  2.5723
 5455TIP3    H237781   1.654   3.907  15.149 -0.5231  2.6747  0.6555
 5456TIP3   OH237782   3.207   1.291   0.312 -0.7696  0.0186  0.2663
 5456TIP3    H137783   3.192   1.264   0.222  0.0592 -0.1882  0.1789
 5456TIP3    H237784   3.211   1.209   0.362 -2.5821  0.1725  0.7386
 5457TIP3   OH237785   2.520   2.199   0.933 -0.0952 -0.0135 -0.0683
 5457TIP3    H137786   2.465   2.134   0.976 -0.5460 -0.0475 -0.6787
 5457TIP3    H237787   2.460   2.272   0.913 -0.5552 -1.0347 -2.9484
 5458TIP3   OH237788   3.995   4.114  12.689  0.3593 -0.1213 -0.4729
 5458TIP3    H137789   3.988   4.018  12.696 -0.2932 -0.2431 -2.3780
 5458TIP3    H237790   3.907   4.146  12.708  0.1703 -0.0280 -1.4677
 5459TIP3   OH237791   5.681   3.058   1.472 -0.4314 -0.4777 -0.1238
 5459TIP3    H137792   5.759   3.018   1.509 -0.7809 -1.5276 -0.4919
 5459TIP3    H237793   5.610   3.034   1.532 -0.8599 -1.5082 -1.0149
 5460TIP3   OH237794   0.124   3.378   0.265 -0.6161 -0.6348 -0.0396
 5460TIP3    H137795   0.169   3.299   0.294  1.5720 -0.4749 -2.6370
 5460TIP3    H237796   0.139   3.441   0.335  0.6141 -1.5247  0.5312
 5461TIP3   OH237797   1.491   6.698  12.583  0.9191 -0.3995  0.2935
 5461TIP3    H137798   1.403   6.673  12.554  0.8476  0.2813 -0.0866
 5461TIP3    H237799   1.542   6.703  12.502  0.6216  1.8961  0.1903
 5462TIP3   OH237800   6.178   4.713   3.712 -0.1158 -0.9834 -0.0902
 5462TIP3    H137801   6.208   4.698   3.622 -3.2467 -1.4310 -1.2002
 5462TIP3    H237802   6.160   4.807   3.716  1.8396 -0.6059  0.7619
 5463TIP3   OH237803   3.689   5.596  17.214  0.2063  0.8244  0.2837
 5463TIP3    H137804   3.626   5.597  17.143  0.4251  0.2584  0.0784
 5463TIP3    H237805   3.723   5.685  17.218  1.4768  0.4595 -1.4731
 5464TIP3   OH237806   5.761   4.646   5.059 -0.3739 -0.0546  0.2178
 5464TIP3    H137807   5.777   4.724   5.112  1.8217  0.0723 -0.5616
 5464TIP3    H237808   5.802   4.665   4.975  0.7909 -2.2804  0.2213
 5465TIP3   OH237809   4.678   2.302  10.690  0.3074  0.6264  0.5713
 5465TIP3    H137810   4.655   2.211  10.676 -2.2437  1.5188 -2.1160
 5465TIP3    H237811   4.600   2.340  10.731  1.9363  1.3899  3.2652
 5466TIP3   OH237812   6.115   2.225   1.749 -0.2588  0.1616  0.1317
 5466TIP3    H137813   6.137   2.309   1.791  0.1369  1.7813 -3.0493
 5466TIP3    H237814   6.033   2.198   1.792 -0.0031  1.7648  1.7617
 5467TIP3   OH237815   5.450   2.180   4.038  0.5095 -0.0045 -0.0856
 5467TIP3    H137816   5.426   2.087   4.035  1.2886 -0.2404  0.5272
 5467TIP3    H237817   5.457   2.206   3.946 -2.3364  0.1785 -0.3475
 5468TIP3   OH237818   3.863   1.021  11.597  0.1600  0.6398  0.5842
 5468TIP3    H137819   3.793   1.036  11.534 -0.3365 -1.2408  0.6259
 5468TIP3    H237820   3.842   1.077  11.671 -1.3927  0.0074  0.6469
 5469TIP3   OH237821   6.337   2.815  13.655  0.2919 -0.3570 -0.2350
 5469TIP3    H137822   6.269   2.870  13.615  0.2435 -0.5919 -0.4789
 5469TIP3    H237823   6.406   2.876  13.678  0.2092 -0.1813 -0.4456
 5470TIP3   OH237824   0.316   1.581  13.673  0.4348 -0.2235 -0.6913
 5470TIP3    H137825   0.263   1.532  13.610  1.6571 -0.6640 -1.4201
 5470TIP3    H237826   0.282   1.556  13.759 -0.4580 -0.5579 -1.1361
 5471TIP3   OH237827   6.193   4.458   4.094 -0.7592 -0.1445 -0.1176
 5471TIP3    H137828   6.237   4.463   4.009 -1.7512 -0.9655 -0.6968
 5471TIP3    H237829   6.104   4.487   4.076 -0.7014  0.6954  0.8741
 5472TIP3   OH237830   2.637   4.429  16.176  0.1392  0.0069  0.0072
 5472TIP3    H137831   2.546   4.416  16.203 -0.0269 -1.6990 -1.2797
 5472TIP3    H237832   2.688   4.405  16.253 -0.4624 -0.2685  0.3299
 5473TIP3   OH237833   0.847   5.836   0.205  0.2808  0.2077  0.3027
 5473TIP3    H137834   0.913   5.845   0.137  0.8710  0.7444  0.9196
 5473TIP3    H237835   0.766   5.815   0.159  0.2324  2.4353 -0.7557
 5474TIP3   OH237836   6.265   4.684  11.985 -0.5327 -0.4833  0.1272
 5474TIP3    H137837   6.274   4.736  12.065 -0.7742 -2.0837  1.2604
 5474TIP3    H237838   6.308   4.601  12.006  1.5647 -0.1342 -2.2685
 5475TIP3   OH237839   3.615   6.083   1.281  0.4663  0.1715 -0.4455
 5475TIP3    H137840   3.655   6.105   1.197 -2.7997 -0.5939 -2.3539
 5475TIP3    H237841   3.550   6.152   1.295 -2.1482 -2.0619 -0.8990
 5476TIP3   OH237842   5.681   3.401  14.210 -0.6777 -0.0772 -0.4703
 5476TIP3    H137843   5.759   3.449  14.182 -1.1000  0.1668 -1.2742
 5476TIP3    H237844   5.709   3.352  14.286 -0.1360  1.1808  0.1754
 5477TIP3   OH237845   4.331   0.094   1.847 -1.0135  1.0403 -0.3058
 5477TIP3    H137846   4.270   0.157   1.809  1.8369  3.0625 -1.8711
 5477TIP3    H237847   4.375   0.054   1.772  1.7796  2.0133  0.6765
 5478TIP3   OH237848   5.421   2.933   5.397  0.0444 -0.3799 -0.4451
 5478TIP3    H137849   5.487   2.883   5.349  0.4164  1.4963 -2.0021
 5478TIP3    H237850   5.366   2.972   5.329 -1.3376 -0.1315  0.7643
 5479TIP3   OH237851   3.653   4.004  12.158 -0.1624  0.4078 -0.0257
 5479TIP3    H137852   3.620   3.922  12.195 -0.2857 -0.3861 -1.7838
 5479TIP3    H237853   3.628   4.071  12.221 -1.2381 -0.7452  0.8133
 5480TIP3   OH237854   1.241   6.664  12.845  0.0721 -0.1269 -0.1108
 5480TIP3    H137855   1.161   6.681  12.795 -0.4373 -0.1159  0.6904
 5480TIP3    H237856   1.248   6.568  12.845 -0.9673 -0.2371  1.3537
 5481TIP3   OH237857   1.594   2.330  16.266  0.2315 -0.7461  0.2132
 5481TIP3    H137858   1.653   2.336  16.191 -0.3033 -1.7744 -0.3123
 5481TIP3    H237859   1.621   2.250  16.311 -0.7808 -1.2605 -0.0717
 5482TIP3   OH237860   3.050   0.049  11.288  0.2801 -0.9653 -0.2608
 5482TIP3    H137861   3.093  -0.032  11.260 -1.6584 -1.8155 -1.0163
 5482TIP3    H237862   2.977   0.059  11.227  1.4595  2.3850 -1.3471
 5483TIP3   OH237863   0.915   1.799   5.535 -0.0187  0.4763 -0.1954
 5483TIP3    H137864   0.881   1.822   5.622  0.4320  0.3244  0.0240
 5483TIP3    H237865   0.879   1.867   5.478  0.8312  1.4332  0.3538
 5484TIP3   OH237866   5.415   5.449  15.014 -0.5773  0.1525 -0.3820
 5484TIP3    H137867   5.483   5.475  15.076  0.5779 -1.7540 -0.7587
 5484TIP3    H237868   5.458   5.451  14.928 -0.1739 -3.1934 -0.4215
 5485TIP3   OH237869   0.156   1.587   1.612 -0.3345 -0.1819 -0.8012
 5485TIP3    H137870   0.173   1.520   1.678  0.4558  0.2170 -0.5879
 5485TIP3    H237871   0.071   1.624   1.636  0.9985  1.6667  1.5208
 5486TIP3   OH237872   2.442   6.032   4.330 -0.2125 -0.3048 -1.0579
 5486TIP3    H137873   2.479   6.107   4.284  0.0748 -0.0081 -0.3510
 5486TIP3    H237874   2.378   6.071   4.391  0.9240 -0.4816  0.3100
 5487TIP3   OH237875   5.084   5.352  10.481 -0.1464 -0.3148 -0.0857
 5487TIP3    H137876   5.026   5.421  10.446  0.3703  0.1556 -0.0211
 5487TIP3    H237877   5.028   5.302  10.540 -0.6661 -0.2702 -0.5268
 5488TIP3   OH237878   0.115   6.061   3.948 -0.0916 -0.2734 -0.1063
 5488TIP3    H137879   0.150   6.114   4.020  0.8002 -0.1259 -0.6378
 5488TIP3    H237880   0.178   5.991   3.936  0.1213  0.0881 -1.1908
 5489TIP3   OH237881   3.641   4.336  13.049 -0.4948 -0.5324  0.1383
 5489TIP3    H137882   3.737   4.339  13.040 -0.6165 -0.3532 -1.2988
 5489TIP3    H237883   3.619   4.243  13.037 -0.6563 -0.2941 -1.7128
 5490TIP3   OH237884   0.827   6.488   4.729 -0.1437 -0.0731 -1.2891
 5490TIP3    H137885   0.881   6.515   4.803  0.4874 -0.8488 -1.4509
 5490TIP3    H237886   0.764   6.559   4.717  0.0708  0.2828 -0.3298
 5491TIP3   OH237887   4.490   3.486  15.176  0.3271 -0.5697  0.6645
 5491TIP3    H137888   4.416   3.426  15.183  1.3918 -1.9483  0.3620
 5491TIP3    H237889   4.487   3.519  15.087  0.2574 -0.8566  0.5612
 5492TIP3   OH237890   0.084   3.094   5.320 -0.2558 -0.2697  0.2136
 5492TIP3    H137891   0.055   3.143   5.243 -0.1588  0.3983  0.5920
 5492TIP3    H237892   0.153   3.148   5.358  1.4581 -1.7779 -0.6012
 5493TIP3   OH237893   2.305   0.964  11.529  0.2918  0.6579  0.0970
 5493TIP3    H137894   2.331   0.990  11.441  0.8633  1.0495  0.3782
 5493TIP3    H237895   2.379   0.914  11.563 -0.5650 -0.9073 -0.2321
 5494TIP3   OH237896   5.250   0.074   1.895  0.3452  0.0193 -0.4351
 5494TIP3    H137897   5.261   0.118   1.979 -0.2406 -1.4973  0.4850
 5494TIP3    H237898   5.191   0.131   1.846  1.3304  1.3254 -0.1500
 5495TIP3   OH237899   3.497   1.860   1.086  0.4897  0.2358  1.3718
 5495TIP3    H137900   3.403   1.850   1.105  0.3153  1.9388  1.5795
 5495TIP3    H237901   3.541   1.822   1.162 -0.0047 -0.7192  1.2042
 5496TIP3   OH237902   3.116   4.927  15.969 -0.9133 -0.3166 -0.0609
 5496TIP3    H137903   3.034   4.923  16.019  0.1319  2.4079  2.1741
 5496TIP3    H237904   3.088   4.935  15.878 -3.1245 -0.0791  0.5741
 5497TIP3   OH237905   0.055   1.498   3.418 -0.2813  0.2144  0.5654
 5497TIP3    H137906   0.052   1.435   3.490 -1.5622  0.7817  1.0320
 5497TIP3    H237907   0.146   1.526   3.415  0.1115 -0.9479  0.9637
 5498TIP3   OH237908   4.074   3.344  17.023  0.3919  0.0074  0.1545
 5498TIP3    H137909   4.120   3.429  17.024  0.1732  0.1289  0.0084
 5498TIP3    H237910   3.992   3.361  17.069  1.2183 -0.6367  1.9292
 5499TIP3   OH237911   2.734   3.403   0.705 -0.6095  0.8778  0.0877
 5499TIP3    H137912   2.679   3.474   0.737 -1.0666  0.3412  0.5171
 5499TIP3    H237913   2.818   3.444   0.685 -0.8379  1.5130  0.4227
 5500TIP3   OH237914   5.694   5.836  16.509  0.2850 -0.1461  0.1231
 5500TIP3    H137915   5.779   5.851  16.550  0.6943  1.8654 -1.2995
 5500TIP3    H237916   5.636   5.812  16.582  1.7952 -0.4401  1.2730
 5501TIP3   OH237917   3.544   1.906  11.643  0.0525 -0.5586 -0.3453
 5501TIP3    H137918   3.528   1.945  11.558 -1.6528 -0.9060 -0.2222
 5501TIP3    H237919   3.635   1.926  11.662 -0.4427  2.5063 -0.7049
 5502TIP3   OH237920   1.351   4.345  12.129 -0.2932 -0.6873 -0.3473
 5502TIP3    H137921   1.297   4.417  12.097  0.0884 -0.2491 -0.0069
 5502TIP3    H237922   1.431   4.348  12.076 -0.0095 -0.4700  0.0895
 5503TIP3   OH237923   3.261   5.105  12.034  0.3673  0.3882 -0.1032
 5503TIP3    H137924   3.245   5.020  11.994 -1.5517  0.4844  0.3843
 5503TIP3    H237925   3.252   5.090  12.128 -1.2836  1.3307 -0.0674
 5504TIP3   OH237926   5.110   2.253  12.526  0.6006 -0.3245 -0.2911
 5504TIP3    H137927   5.081   2.168  12.494 -1.4410 -0.6674  2.1294
 5504TIP3    H237928   5.204   2.246  12.536  0.5109 -2.1514 -0.5591
 5505TIP3   OH237929   0.204   1.313  12.673  0.1248 -0.6692 -0.0857
 5505TIP3    H137930   0.286   1.304  12.721 -1.3104 -1.6856  2.3819
 5505TIP3    H237931   0.194   1.408  12.661  0.4261 -0.3068  2.0258
 5506TIP3   OH237932   0.528   2.212  14.566 -0.1648  0.2448  0.5469
 5506TIP3    H137933   0.507   2.277  14.632  1.6776  2.3489 -0.8024
 5506TIP3    H237934   0.493   2.248  14.484 -0.4197 -1.1899 -0.0065
 5507TIP3   OH237935   1.052   2.689  10.939 -0.7603  0.1710 -0.3311
 5507TIP3    H137936   1.102   2.762  10.903 -1.3595  0.5840 -0.3438
 5507TIP3    H237937   1.091   2.611  10.901 -0.6464  0.5383 -0.9709
 5508TIP3   OH237938   0.070   6.370  14.179 -0.9131  0.2774  0.7312
 5508TIP3    H137939   0.150   6.318  14.182 -1.4435 -0.7788 -1.3950
 5508TIP3    H237940   0.008   6.322  14.234 -0.5825  0.1671  1.0070
 5509TIP3   OH237941   4.296   2.153  14.083 -0.2128 -0.4348  0.4292
 5509TIP3    H137942   4.364   2.119  14.140 -0.5922  0.4303  1.4228
 5509TIP3    H237943   4.260   2.076  14.039  1.6003 -0.8712 -0.3627
 5510TIP3   OH237944   0.369   3.215  15.069  0.1493  0.5339  0.1016
 5510TIP3    H137945   0.274   3.223  15.077  0.0190  0.2592 -0.9771
 5510TIP3    H237946   0.381   3.136  15.016  1.0552 -0.7090  2.0704
 5511TIP3   OH237947   3.170   2.242  16.675  0.8320  0.0651 -0.6555
 5511TIP3    H137948   3.092   2.202  16.634  0.3779  1.7125 -1.5248
 5511TIP3    H237949   3.230   2.255  16.602  1.7863 -0.8196 -0.0469
 5512TIP3   OH237950   0.991   3.880  17.180 -0.4124  0.6434  0.7425
 5512TIP3    H137951   1.018   3.793  17.153 -2.2471  0.1568  0.3119
 5512TIP3    H237952   1.026   3.938  17.113 -0.6356  0.0197  0.0713
 5513TIP3   OH237953   2.325   3.107   0.917 -0.1663  0.3343  0.0094
 5513TIP3    H137954   2.354   3.017   0.934  0.5120  0.5447 -0.0385
 5513TIP3    H237955   2.229   3.101   0.918 -0.2500 -1.0298 -3.2499
 5514TIP3   OH237956   4.806   5.867   0.817 -0.2001 -0.0368  0.4822
 5514TIP3    H137957   4.787   5.806   0.888  0.7459 -0.3987  0.4385
 5514TIP3    H237958   4.721   5.904   0.793 -0.4913  0.3116  1.9894
 5515TIP3   OH237959   4.489   2.927  11.463 -0.4225  0.1409 -0.1314
 5515TIP3    H137960   4.578   2.959  11.447 -0.5977  0.7095  0.0224
 5515TIP3    H237961   4.466   2.880  11.383  1.2339 -2.8699  0.9988
 5516TIP3   OH237962   2.424   1.753   0.907 -0.3815 -0.2793 -0.0573
 5516TIP3    H137963   2.401   1.694   0.835 -3.3012  1.8632 -1.0931
 5516TIP3    H237964   2.468   1.827   0.863 -0.7926  0.3435  0.5707
 5517TIP3   OH237965   2.761   4.987   0.997 -0.6395  0.0820 -0.0142
 5517TIP3    H137966   2.833   4.927   1.014  0.0129  0.5129 -1.1280
 5517TIP3    H237967   2.803   5.073   0.988 -1.1851  0.2326 -1.3741
 5518TIP3   OH237968   2.757   4.480  13.367 -0.2533  0.1704 -0.1460
 5518TIP3    H137969   2.727   4.493  13.277  2.0393  0.9707 -0.8499
 5518TIP3    H237970   2.682   4.440  13.411 -2.7111  2.9268 -1.4919
 5519TIP3   OH237971   4.128   0.142   5.388 -0.2619 -0.2077  0.1099
 5519TIP3    H137972   4.134   0.229   5.427  1.6852  0.1115 -0.7681
 5519TIP3    H237973   4.182   0.147   5.309 -2.3442 -1.4244 -1.5110
 5520TIP3   OH237974   4.651   0.934   2.605  0.4104 -0.0860  0.7362
 5520TIP3    H137975   4.575   0.989   2.584  0.4400 -0.2642  0.1379
 5520TIP3    H237976   4.668   0.885   2.524  0.5889 -0.7293  1.1546
 5521TIP3   OH237977   4.172   3.290   5.408 -0.3415 -0.3162 -0.2357
 5521TIP3    H137978   4.237   3.340   5.358 -1.0741 -0.4914 -1.4085
 5521TIP3    H237979   4.089   3.335   5.389 -0.8766 -1.4152 -0.5682
 5522TIP3   OH237980   4.420   4.374  14.420  0.2930 -0.0972 -0.1729
 5522TIP3    H137981   4.501   4.389  14.469 -0.5097 -0.6362  1.3885
 5522TIP3    H237982   4.406   4.279  14.425 -0.4588 -0.0016 -0.3830
 5523TIP3   OH237983   0.352   4.477   4.608 -0.1323 -1.2014  0.3245
 5523TIP3    H137984   0.336   4.503   4.517 -0.1670  0.1680  0.6943
 5523TIP3    H237985   0.421   4.411   4.603 -0.2029 -1.2117 -0.6954
 5524TIP3   OH237986   2.269   2.064   3.542  0.4066  0.3188  0.4929
 5524TIP3    H137987   2.355   2.107   3.538  1.3688 -1.1024  3.1368
 5524TIP3    H237988   2.283   1.978   3.504 -0.5256  0.9238 -1.2928
 5525TIP3   OH237989   4.425   4.047  14.827  0.4015 -0.4366 -0.3113
 5525TIP3    H137990   4.452   4.033  14.917 -1.9333 -0.4333  0.4663
 5525TIP3    H237991   4.504   4.033  14.775  1.5679 -1.4852  1.6398
 5526TIP3   OH237992   6.028   6.716  13.167 -0.2223 -0.3306  0.1743
 5526TIP3    H137993   5.954   6.671  13.207  1.5698 -3.1514  0.6170
 5526TIP3    H237994   5.989   6.778  13.105 -2.9229 -0.1939  1.8902
 5527TIP3   OH237995   5.505   6.145   6.411 -0.8371  0.5243 -0.4104
 5527TIP3    H137996   5.574   6.147   6.477 -0.4598  2.5686 -0.7693
 5527TIP3    H237997   5.472   6.056   6.412  0.5617 -0.0204  1.0734
 5528TIP3   OH237998   3.823   4.367   0.191 -0.4337 -0.0751  0.1448
 5528TIP3    H137999   3.874   4.402   0.118  0.4898 -0.1652  0.7305
 5528TIP3    H238000   3.888   4.328   0.249 -1.1552 -0.0181  1.0169
 5529TIP3   OH238001   6.294   5.590  16.922 -0.2806 -0.1128 -0.6984
 5529TIP3    H138002   6.359   5.655  16.946 -0.3422 -1.0357  2.4353
 5529TIP3    H238003   6.342   5.523  16.873  0.7096  0.1466 -0.0859
 5530TIP3   OH238004   3.384   0.031   6.051 -0.3280 -0.0466 -0.2548
 5530TIP3    H138005   3.322   0.100   6.026 -0.6026 -0.5334 -0.9307
 5530TIP3    H238006   3.355   0.004   6.138 -0.7800  0.0513 -0.3710
 5531TIP3   OH238007   6.564   6.438   0.490  0.3565  0.8191 -0.0862
 5531TIP3    H138008   6.506   6.423   0.416 -2.0156 -0.5692  1.8746
 5531TIP3    H238009   6.536   6.522   0.526  0.5174  0.8036  0.0791
 5532TIP3   OH238010   4.205   3.037   0.556  0.4611 -0.2693  0.4829
 5532TIP3    H138011   4.193   2.943   0.546 -2.3781  0.1293 -0.8154
 5532TIP3    H238012   4.137   3.064   0.617  1.1584  0.9921  0.7524
 5533TIP3   OH238013   4.028   4.996   3.141 -0.1547 -0.9264  0.0313
 5533TIP3    H138014   4.000   4.906   3.128 -0.0709 -1.1331  1.2180
 5533TIP3    H238015   4.095   4.991   3.209 -1.2529  0.1853  1.2546
 5534TIP3   OH238016   3.171   0.535  10.631  0.1854  0.1642 -0.4989
 5534TIP3    H138017   3.085   0.530  10.671 -0.0152 -0.0728 -0.9473
 5534TIP3    H238018   3.184   0.628  10.612 -0.0672  0.1704 -0.6376
 5535TIP3   OH238019   5.646   0.263  10.655 -0.2227  0.0487 -0.1335
 5535TIP3    H138020   5.655   0.255  10.561  0.4029  0.8982 -0.1586
 5535TIP3    H238021   5.624   0.355  10.669  2.7515  0.7399  0.7334
 5536TIP3   OH238022   4.051   6.178  12.124  0.0340 -0.7500 -0.4203
 5536TIP3    H138023   4.027   6.254  12.178  1.6149 -0.0178 -0.6813
 5536TIP3    H238024   4.008   6.194  12.040  1.1463  0.4006 -0.7999
 5537TIP3   OH238025   4.970   5.183  13.219 -0.0761 -0.1415  0.2940
 5537TIP3    H138026   4.936   5.122  13.154  1.4909  0.2439 -0.9295
 5537TIP3    H238027   4.928   5.156  13.301 -0.8370 -1.6659 -0.5596
 5538TIP3   OH238028   3.574   5.024  16.346 -0.0548  0.2876  0.5307
 5538TIP3    H138029   3.541   4.999  16.260  2.2794  0.4057 -0.4642
 5538TIP3    H238030   3.518   5.097  16.372  0.0385  1.1702 -1.5281
 5539TIP3   OH238031   3.977   5.429   6.561 -0.6180 -0.5851  0.0851
 5539TIP3    H138032   3.910   5.372   6.600 -0.9501  1.1013  2.1384
 5539TIP3    H238033   4.008   5.483   6.634  0.2255  1.3353 -1.6168
 5540TIP3   OH238034   5.086   2.271  11.721 -0.0492  0.0402 -0.0476
 5540TIP3    H138035   5.149   2.304  11.785 -0.9770 -1.3524  1.6499
 5540TIP3    H238036   5.140   2.241  11.647  1.0053  2.1077 -0.1798
 5541TIP3   OH238037   4.639   2.336  16.491  0.4936 -0.4023 -0.0771
 5541TIP3    H138038   4.598   2.346  16.405 -1.0090  1.6092  0.7832
 5541TIP3    H238039   4.661   2.425  16.518 -0.2894 -0.8153  2.1652
 5542TIP3   OH238040   5.780   1.647  15.592 -0.3015  0.1154 -0.2926
 5542TIP3    H138041   5.867   1.663  15.629 -0.0101  2.7878 -1.8754
 5542TIP3    H238042   5.768   1.552  15.598  2.2700 -0.2038  0.8955
 5543TIP3   OH238043   1.954   6.007   2.188  0.2679  0.2006  0.6160
 5543TIP3    H138044   1.952   5.981   2.280 -1.2132  0.2982  0.6368
 5543TIP3    H238045   1.868   6.045   2.172  0.0597 -0.8784 -1.1143
 5544TIP3   OH238046   1.323   2.878  13.475 -0.4788  0.1145 -0.1263
 5544TIP3    H138047   1.352   2.944  13.539 -1.1030  0.1867  0.0913
 5544TIP3    H238048   1.403   2.853  13.429  0.1932 -0.6948  1.3812
 5545TIP3   OH238049   2.345   3.567  13.787  0.1108  0.1731  0.2386
 5545TIP3    H138050   2.292   3.614  13.851  0.2399 -0.8944  1.1767
 5545TIP3    H238051   2.407   3.516  13.840 -0.7345 -1.8785 -0.6350
 5546TIP3   OH238052   6.190   1.172  13.079  0.4052  0.1837 -0.5938
 5546TIP3    H138053   6.242   1.135  13.007 -2.1542 -1.0333 -1.9614
 5546TIP3    H238054   6.100   1.167  13.048 -0.6566  1.2843  2.0447
 5547TIP3   OH238055   4.848   6.750  11.739  0.6070  0.0274  0.2038
 5547TIP3    H138056   4.876   6.841  11.743  1.8125 -0.2654 -0.9363
 5547TIP3    H238057   4.802   6.742  11.656  1.0649 -0.5300 -0.0100
 5548TIP3   OH238058   6.064   1.736   5.227  0.3726  0.5482  0.6673
 5548TIP3    H138059   6.129   1.759   5.294  2.3663  3.1452 -1.8806
 5548TIP3    H238060   6.008   1.813   5.220 -0.0062  0.1912 -0.4362
 5549TIP3   OH238061   0.720   1.772  11.899 -0.8007 -0.1794 -0.0186
 5549TIP3    H138062   0.626   1.762  11.880 -0.6063 -1.1772 -0.5330
 5549TIP3    H238063   0.763   1.753  11.816 -0.1510  0.5696  0.1427
 5550TIP3   OH238064   2.896   2.680   0.914 -0.3495  0.6550 -0.0442
 5550TIP3    H138065   2.846   2.759   0.890 -0.3675  1.0820  1.3435
 5550TIP3    H238066   2.986   2.711   0.925  0.2077 -0.0416 -2.1493
 5551TIP3   OH238067   0.923   0.228   5.850 -0.1412 -0.1619 -0.2769
 5551TIP3    H138068   0.882   0.205   5.933 -0.9381 -0.1734 -0.6639
 5551TIP3    H238069   1.013   0.252   5.873 -1.2217  3.1517  1.0864
 5552TIP3   OH238070   1.827   1.397   5.726 -0.4597  0.5300 -0.0493
 5552TIP3    H138071   1.853   1.458   5.657 -1.1569  1.5654  0.5831
 5552TIP3    H238072   1.821   1.451   5.805  0.7288 -0.6986  0.9322
 5553TIP3   OH238073   6.687   3.031  12.141 -0.1345  0.2553  0.5027
 5553TIP3    H138074   6.720   2.945  12.165  1.8644  1.1501  1.1057
 5553TIP3    H238075   6.657   3.021  12.051  1.8563 -0.6392 -0.1076
 5554TIP3   OH238076   3.022   3.476  13.114 -0.3364 -0.0599 -0.5176
 5554TIP3    H138077   3.114   3.484  13.139 -0.5845 -1.2368  0.8964
 5554TIP3    H238078   3.010   3.543  13.046  1.7691 -0.5012 -1.4083
 5555TIP3   OH238079   1.501   6.105  12.376 -0.2129 -0.3898  0.1354
 5555TIP3    H138080   1.515   6.011  12.363 -0.3798 -0.1072 -3.0030
 5555TIP3    H238081   1.409   6.118  12.352 -0.1822  0.5720  0.5302
 5556TIP3   OH238082   0.702   1.599   0.692 -0.1195 -0.1429  0.8114
 5556TIP3    H138083   0.789   1.561   0.680 -0.8122 -1.1078 -1.9360
 5556TIP3    H238084   0.648   1.525   0.721 -0.5480 -0.1985 -0.1093
 5557TIP3   OH238085   6.446   4.492  13.959  0.4561  0.4393  0.1915
 5557TIP3    H138086   6.376   4.451  14.009 -0.0530  0.8851 -0.1411
 5557TIP3    H238087   6.457   4.436  13.883 -2.8827  2.7565 -2.3080
 5558TIP3   OH238088   4.551   4.230   0.444 -0.1585 -0.1925 -0.6067
 5558TIP3    H138089   4.626   4.170   0.449 -0.5463 -0.5762  1.3622
 5558TIP3    H238090   4.581   4.310   0.486 -0.5170  0.0471 -0.8044
 5559TIP3   OH238091   4.444   3.856  16.160 -0.4198 -0.0072  0.4536
 5559TIP3    H138092   4.473   3.928  16.216 -0.7273  0.4176  0.0716
 5559TIP3    H238093   4.367   3.889  16.115 -0.2660 -0.3911 -0.1161
 5560TIP3   OH238094   1.896   5.514   3.141  0.2119  0.3650 -0.6544
 5560TIP3    H138095   1.838   5.464   3.082 -0.0073  0.0653 -0.1899
 5560TIP3    H238096   1.843   5.588   3.170  0.1676  0.2658 -0.4808
 5561TIP3   OH238097   2.635   3.086  17.066  0.5908  0.6104  0.0499
 5561TIP3    H138098   2.683   3.135  17.133  0.6565  0.3665  0.1814
 5561TIP3    H238099   2.618   3.150  16.997 -1.7415  1.5699  1.4035
 5562TIP3   OH238100   2.741   3.945  12.496  0.0339  0.8253  0.6668
 5562TIP3    H138101   2.822   3.894  12.499 -1.6856 -2.1146  2.0823
 5562TIP3    H238102   2.751   4.010  12.565  0.7047 -0.3802  1.7486
 5563TIP3   OH238103   2.509   4.712   1.557 -0.1744  0.5723 -0.0471
 5563TIP3    H138104   2.459   4.665   1.623  1.2009  1.0272  1.3730
 5563TIP3    H238105   2.540   4.643   1.497 -1.8309  0.2163 -0.5342
 5564TIP3   OH238106   6.634   5.770   1.636  0.6122 -0.1247 -0.3413
 5564TIP3    H138107   6.586   5.757   1.718  1.0643 -0.0652 -0.0675
 5564TIP3    H238108   6.712   5.715   1.645  1.1063  0.5661 -0.3653
 5565TIP3   OH238109   2.526   2.231  12.192 -0.4969 -0.4264 -0.3733
 5565TIP3    H138110   2.433   2.224  12.214 -0.0816 -0.4618  1.5160
 5565TIP3    H238111   2.535   2.179  12.112 -1.9859 -0.9438 -0.2502
 5566TIP3   OH238112   6.028   1.586  12.161 -0.1255 -0.0618  0.2581
 5566TIP3    H138113   6.005   1.642  12.087 -2.2627  0.3522  1.1703
 5566TIP3    H238114   6.046   1.647  12.233 -0.2443 -0.5034  0.6674
 5567TIP3   OH238115   4.270   0.970   0.251  0.5042 -0.3416  0.2847
 5567TIP3    H138116   4.332   1.042   0.240 -0.4010  0.4311  0.1407
 5567TIP3    H238117   4.314   0.895   0.211  0.6669  0.5725 -1.3696
 5568TIP3   OH238118   6.625   3.525   1.617  0.0416 -0.2137 -0.1688
 5568TIP3    H138119   6.609   3.473   1.695 -0.0940 -0.9575 -0.6820
 5568TIP3    H238120   6.720   3.528   1.609  0.0643 -1.9447 -1.1288
 5569TIP3   OH238121   4.091   2.722   2.902  0.5185  0.2331 -0.4918
 5569TIP3    H138122   4.164   2.756   2.851 -1.2198  2.3577 -1.7108
 5569TIP3    H238123   4.096   2.627   2.890  2.1096  0.4518 -1.9051
 5570TIP3   OH238124   5.233   1.130  13.755  0.0437  0.3377  0.1594
 5570TIP3    H138125   5.237   1.034  13.750  3.0341  0.3851 -0.0274
 5570TIP3    H238126   5.275   1.160  13.675 -0.3362  1.8366  0.4957
 5571TIP3   OH238127   1.306   5.671  16.721 -0.4836 -0.2440  0.4989
 5571TIP3    H138128   1.377   5.618  16.685  0.4698  1.0931  0.3423
 5571TIP3    H238129   1.243   5.680  16.649 -0.5980 -1.0512  0.4931
 5572TIP3   OH238130   4.510   2.217  10.402 -0.2428  0.1391  0.4213
 5572TIP3    H138131   4.574   2.231  10.331  1.7373  0.4476  2.1676
 5572TIP3    H238132   4.462   2.139  10.375  1.3626 -0.5377 -0.6658
 5573TIP3   OH238133   3.466   5.660  11.319  0.0897 -0.0480  0.2370
 5573TIP3    H138134   3.414   5.676  11.241 -0.0015 -0.7296  0.1483
 5573TIP3    H238135   3.415   5.595  11.368  1.5226 -1.8474 -0.5509
 5574TIP3   OH238136   4.433   5.146   1.570  0.1305 -0.1842 -0.0527
 5574TIP3    H138137   4.433   5.175   1.478  1.0630  1.4576  0.4217
 5574TIP3    H238138   4.525   5.128   1.589 -0.2606 -2.3177  0.0827
 5575TIP3   OH238139   2.842   3.296   5.391 -0.4698 -0.0813  0.1622
 5575TIP3    H138140   2.866   3.205   5.375 -0.0254 -0.2290  1.5447
 5575TIP3    H238141   2.780   3.293   5.463 -1.4556  0.6343 -0.6166
 5576TIP3   OH238142   0.154   2.057   0.563  0.5257  0.0404  0.4196
 5576TIP3    H138143   0.083   2.011   0.609  0.0526  0.8067  0.4675
 5576TIP3    H238144   0.138   2.038   0.471 -0.5604  1.3101  0.3167
 5577TIP3   OH238145   0.022   1.084   3.978 -0.2580 -0.0678 -0.0587
 5577TIP3    H138146  -0.010   1.149   4.041  0.1532  0.8769 -0.8149
 5577TIP3    H238147   0.071   1.022   4.032 -1.7615 -0.5228  0.8675
 5578TIP3   OH238148   4.813   5.158  13.868  0.2550 -0.4773  0.1024
 5578TIP3    H138149   4.875   5.102  13.915  0.2677  0.3417  1.0867
 5578TIP3    H238150   4.867   5.203  13.803  0.0967 -2.2254 -1.3162
 5579TIP3   OH238151   4.638   1.112   1.263 -0.4940 -0.4764  0.0116
 5579TIP3    H138152   4.559   1.154   1.227  0.0630  0.1355 -0.5164
 5579TIP3    H238153   4.621   1.018   1.254 -1.8175 -0.4155  1.3162
 5580TIP3   OH238154   1.492   2.359  17.269 -0.7756 -0.1139  0.3896
 5580TIP3    H138155   1.571   2.344  17.320 -0.4915 -0.9544 -0.2674
 5580TIP3    H238156   1.424   2.310  17.315 -0.4141 -1.2959 -0.2810
 5581TIP3   OH238157   1.440   4.033  10.801 -0.2175  0.1163 -0.3738
 5581TIP3    H138158   1.413   4.078  10.721 -0.7080 -0.6221 -0.6343
 5581TIP3    H238159   1.415   4.092  10.871 -0.5378  0.4086 -0.7278
 5582TIP3   OH238160   0.190   4.978  17.293 -0.1352  0.9547 -0.3911
 5582TIP3    H138161   0.184   4.883  17.306 -0.5886  0.5713 -2.8557
 5582TIP3    H238162   0.147   4.993  17.209  1.0698  3.2026 -0.6744
 5583TIP3   OH238163   1.995   0.965   6.067 -0.2147  0.3377  0.0604
 5583TIP3    H138164   1.919   0.991   6.015  0.6688  0.2853 -1.3187
 5583TIP3    H238165   1.979   1.001   6.154 -2.0828 -0.1754 -0.0307
 5584TIP3   OH238166   3.905   2.508   4.079  0.3854 -0.6794 -0.5717
 5584TIP3    H138167   3.894   2.576   4.145 -0.3890 -1.6110  0.2989
 5584TIP3    H238168   3.987   2.465   4.103  0.8111 -0.1425 -1.0478
 5585TIP3   OH238169   2.425   3.758   4.322  0.2232 -0.5305  0.2355
 5585TIP3    H138170   2.369   3.805   4.384  1.2096  1.3811 -0.2399
 5585TIP3    H238171   2.485   3.707   4.378 -0.1571 -0.3723  0.7900
 5586TIP3   OH238172   2.026   0.370  17.319  0.3010 -0.3329  0.6097
 5586TIP3    H138173   2.014   0.354  17.412 -1.3161 -2.7115  0.0971
 5586TIP3    H238174   1.937   0.380  17.285  0.8584  0.5402 -0.6863
 5587TIP3   OH238175   0.092   5.519  11.518 -0.3129 -0.0908  0.4114
 5587TIP3    H138176   0.020   5.562  11.563 -0.7057 -1.1786  0.8286
 5587TIP3    H238177   0.169   5.573  11.540 -0.7956  0.4159  0.8887
 5588TIP3   OH238178   5.838   2.681  14.244  0.2820  0.9190  0.2039
 5588TIP3    H138179   5.775   2.640  14.303 -0.0414  0.5680 -0.3687
 5588TIP3    H238180   5.907   2.616  14.234 -0.1551  0.5469 -0.5811
 5589TIP3   OH238181   4.372   5.786   4.111  0.6734  0.2586  0.1802
 5589TIP3    H138182   4.298   5.731   4.084  0.7261  0.3071 -0.0695
 5589TIP3    H238183   4.446   5.752   4.061  0.5513  1.0429 -0.5543
 5590TIP3   OH238184   1.647   1.102  16.720  0.4402 -0.4790 -0.4905
 5590TIP3    H138185   1.708   1.154  16.668  2.4390 -1.4039  0.7957
 5590TIP3    H238186   1.685   1.014  16.721 -1.0427 -1.1503  0.1953
 5591TIP3   OH238187   0.070   0.475  16.985  0.2782 -0.1880 -0.2417
 5591TIP3    H138188   0.036   0.446  16.901 -1.2736  0.1077  0.2386
 5591TIP3    H238189   0.151   0.521  16.964 -0.0075 -0.2498 -1.5512
 5592TIP3   OH238190   2.730   3.239  17.309 -0.1077 -0.2745 -0.1329
 5592TIP3    H138191   2.685   3.276  17.384  0.1315 -0.7180  0.2354
 5592TIP3    H238192   2.768   3.157  17.342 -0.6403 -0.8569 -0.9308
 5593TIP3   OH238193   3.494   4.290  11.352  0.1000  0.3124  0.0044
 5593TIP3    H138194   3.575   4.240  11.361  0.6387  0.9273 -1.1389
 5593TIP3    H238195   3.446   4.245  11.283  1.0723  1.8797 -1.8176
 5594TIP3   OH238196   6.212   1.332   5.417 -0.0452  0.6729  0.3735
 5594TIP3    H138197   6.212   1.240   5.390 -0.5261  1.0171 -0.8826
 5594TIP3    H238198   6.300   1.347   5.451 -0.4777 -0.6837  2.2307
 5595TIP3   OH238199   2.882   4.346  15.838  0.0983  0.2344  0.1626
 5595TIP3    H138200   2.969   4.387  15.841  1.5040 -2.2760 -2.0522
 5595TIP3    H238201   2.895   4.260  15.879 -1.0401 -0.6155 -1.1759
 5596TIP3   OH238202   0.357   3.994  13.845 -0.6258  0.3042  0.4710
 5596TIP3    H138203   0.268   4.030  13.842 -0.2300  1.2046 -0.9740
 5596TIP3    H238204   0.398   4.038  13.919 -1.7143 -1.0217  1.9560
 5597TIP3   OH238205   3.581   3.106  12.662 -0.0241  0.1244  0.1380
 5597TIP3    H138206   3.624   3.029  12.625  1.2190  0.5029  0.7345
 5597TIP3    H238207   3.510   3.070  12.715  0.2366 -0.5993  0.0168
 5598TIP3   OH238208   6.679   4.737   0.953  0.2376  0.1940  0.2910
 5598TIP3    H138209   6.734   4.748   1.030  1.6601 -2.1807 -0.2540
 5598TIP3    H238210   6.641   4.649   0.963 -1.0103  0.5619 -0.8610
 5599TIP3   OH238211   2.548   5.157  14.829 -0.1104  0.2857  0.1219
 5599TIP3    H138212   2.546   5.109  14.912 -0.0501  0.6641  0.3488
 5599TIP3    H238213   2.638   5.191  14.823 -0.9625  3.1409  1.6146
 5600TIP3   OH238214   2.256   0.039   4.129 -0.4351  0.0742 -0.3149
 5600TIP3    H138215   2.333   0.039   4.186 -2.2786  0.4587  2.3925
 5600TIP3    H238216   2.252   0.128   4.094  0.4839 -0.0314 -0.7064
 5601TIP3   OH238217   6.464   0.597   2.301 -0.2505  0.4270 -0.3213
 5601TIP3    H138218   6.550   0.638   2.293 -1.2110  2.5071 -0.9516
 5601TIP3    H238219   6.471   0.541   2.378  2.3805 -1.5175 -1.8430
 5602TIP3   OH238220   3.280   4.575  16.118 -0.6600 -0.1947  0.1905
 5602TIP3    H138221   3.370   4.593  16.091 -1.3838  0.2230 -2.1407
 5602TIP3    H238222   3.266   4.632  16.194  1.3322 -1.0545  1.2855
 5603TIP3   OH238223   3.907   5.585  12.365 -0.1761 -0.0851 -0.5924
 5603TIP3    H138224   3.930   5.534  12.443  0.7735 -1.5167 -1.7483
 5603TIP3    H238225   3.908   5.676  12.394  0.9184 -0.5341  0.8936
 5604TIP3   OH238226   3.900   1.381  12.131 -0.3643  0.5881  0.0254
 5604TIP3    H138227   3.878   1.418  12.046 -4.8384 -0.6609  0.3948
 5604TIP3    H238228   3.896   1.456  12.191 -0.4120  0.9666 -0.4451
 5605TIP3   OH238229   1.623   2.075   3.115  0.1582  0.2431  1.0791
 5605TIP3    H138230   1.590   2.060   3.027 -0.6932  0.9042  1.2679
 5605TIP3    H238231   1.595   2.165   3.136  1.0572  0.3910  1.7053
 5606TIP3   OH238232   3.312   6.167  12.975 -0.0050  0.8001 -0.3765
 5606TIP3    H138233   3.282   6.249  12.938  1.5435  1.3508 -0.4720
 5606TIP3    H238234   3.373   6.132  12.911 -0.8096 -0.5587 -0.4433
 5607TIP3   OH238235   5.496   6.149  11.950  0.0392 -0.3109 -0.1553
 5607TIP3    H138236   5.477   6.057  11.935  0.5393 -0.4618  0.1187
 5607TIP3    H238237   5.574   6.149  12.006 -1.6864  0.2407  2.3743
 5608TIP3   OH238238   3.133   3.512  13.735 -0.0485 -0.0181 -0.2069
 5608TIP3    H138239   3.047   3.554  13.728  0.4680  1.0214 -0.5972
 5608TIP3    H238240   3.184   3.572  13.790  1.5058  1.3100 -2.8616
 5609TIP3   OH238241   1.124   0.875  15.241 -0.2169  0.3556 -0.0699
 5609TIP3    H138242   1.095   0.786  15.224 -1.4162  1.0105 -1.6968
 5609TIP3    H238243   1.220   0.871  15.233 -0.2383 -0.8058  0.0791
 5610TIP3   OH238244   4.180   1.865   1.517  0.0857 -0.1730 -0.0612
 5610TIP3    H138245   4.203   1.950   1.478  0.5545  0.2839  1.1687
 5610TIP3    H238246   4.098   1.882   1.564 -0.4401 -0.7034 -0.7694
 5611TIP3   OH238247   6.699   3.056   2.331  0.0323  0.5667  0.1503
 5611TIP3    H138248   6.762   2.987   2.308 -2.3692 -1.2693 -1.3605
 5611TIP3    H238249   6.683   3.043   2.425 -0.5639 -1.1562 -0.1631
 5612TIP3   OH238250   4.710   1.275   0.271 -0.2947  0.3146 -0.2036
 5612TIP3    H138251   4.791   1.269   0.221  1.0586  0.0431  1.8810
 5612TIP3    H238252   4.700   1.189   0.312 -1.1833  0.6038  0.2165
 5613TIP3   OH238253   2.092   5.632  12.037 -0.2394  0.6686 -0.6326
 5613TIP3    H138254   2.107   5.544  12.002 -0.3609  0.3150  0.1861
 5613TIP3    H238255   2.158   5.642  12.105 -1.7010  0.2773  0.9057
 5614TIP3   OH238256   2.726   1.444   6.504  0.1223  0.0756  0.3065
 5614TIP3    H138257   2.688   1.456   6.417 -0.8744 -0.3750  0.6616
 5614TIP3    H238258   2.650   1.443   6.563  0.7090 -0.6191  1.0687
 5615TIP3   OH238259   3.022   5.881  15.489  0.4314  0.4584 -0.1189
 5615TIP3    H138260   3.003   5.975  15.495  0.0187  0.3270  0.8223
 5615TIP3    H238261   3.066   5.860  15.571 -0.2100 -0.3388  0.0311
 5616TIP3   OH238262   3.930   0.709   2.212  0.2266  0.7074  0.3098
 5616TIP3    H138263   3.904   0.650   2.283 -1.0800  0.0949 -0.6449
 5616TIP3    H238264   3.849   0.752   2.186  0.7157  1.0171 -0.7384
 5617TIP3   OH238265   1.998   0.395  12.178 -0.2434  0.1173 -0.0689
 5617TIP3    H138266   1.930   0.423  12.117 -0.1967 -0.0806 -0.2120
 5617TIP3    H238267   1.956   0.396  12.264 -0.2036  0.7627 -0.0532
 5618TIP3   OH238268   6.758   0.537   1.350 -0.3216  0.1544  0.0939
 5618TIP3    H138269   6.829   0.596   1.324 -1.0390  0.8377 -0.3315
 5618TIP3    H238270   6.769   0.528   1.445 -0.2412  1.0330  0.1772
 5619TIP3   OH238271   2.511   0.481   4.432  0.4688 -0.4096 -0.6052
 5619TIP3    H138272   2.505   0.443   4.520 -0.6911  1.2332  0.0774
 5619TIP3    H238273   2.592   0.533   4.434  0.6196 -0.6410 -0.6305
 5620TIP3   OH238274   5.552   1.207   0.303  0.0656  0.0120 -0.3866
 5620TIP3    H138275   5.540   1.129   0.249  2.9251 -0.6537 -0.2181
 5620TIP3    H238276   5.595   1.270   0.245  0.5660  0.3351  0.3186
 5621TIP3   OH238277   1.202   0.380  13.043  0.2444  0.6262 -0.2248
 5621TIP3    H138278   1.191   0.429  13.124  0.0971 -0.0291  0.1618
 5621TIP3    H238279   1.190   0.445  12.973  1.0652  1.3295  0.2767
 5622TIP3   OH238280   1.010   5.429   5.653 -0.3825  0.2465 -0.0876
 5622TIP3    H138281   0.984   5.350   5.606 -0.0769 -0.7665  1.3579
 5622TIP3    H238282   1.103   5.438   5.634 -0.4310  0.2834 -0.3045
 5623TIP3   OH238283   2.115   5.254  17.294  0.0017  0.4990  0.0001
 5623TIP3    H138284   2.040   5.264  17.235 -1.1019 -1.1905  1.0154
 5623TIP3    H238285   2.180   5.206  17.243  0.4153  1.9596 -0.8843
 5624TIP3   OH238286   5.504   4.381  15.801 -0.1067  0.2824 -0.5061
 5624TIP3    H138287   5.449   4.310  15.769 -0.4214 -0.4097  1.4293
 5624TIP3    H238288   5.444   4.452  15.821 -0.1981 -0.0827  0.5777
 5625TIP3   OH238289   1.158   6.543   1.168 -0.0508  0.1061 -0.4729
 5625TIP3    H138290   1.207   6.500   1.238 -2.5096  1.1613  2.0934
 5625TIP3    H238291   1.201   6.628   1.158 -0.1164  0.2447  0.3412
 5626TIP3   OH238292   3.539   2.078   1.982 -0.1039  0.5161  0.1018
 5626TIP3    H138293   3.627   2.109   2.003 -0.0028  0.4690 -0.2466
 5626TIP3    H238294   3.534   2.085   1.887 -0.4701  0.4979  0.1201
 5627TIP3   OH238295   0.630   4.200   1.730 -0.3738  0.3833 -0.2594
 5627TIP3    H138296   0.647   4.283   1.776 -0.3793 -1.1858  2.7988
 5627TIP3    H238297   0.680   4.135   1.780  1.8363 -1.2062 -4.1104
 5628TIP3   OH238298   6.326   5.691   0.125 -0.0123  0.1263  0.5997
 5628TIP3    H138299   6.403   5.745   0.110  1.4837 -2.2349 -0.9332
 5628TIP3    H238300   6.315   5.690   0.220  2.1961  0.1185  0.8901
 5629TIP3   OH238301   5.183   5.509  15.496 -0.4210  0.0638 -0.5443
 5629TIP3    H138302   5.206   5.438  15.556 -1.2578  1.2567  1.2858
 5629TIP3    H238303   5.096   5.486  15.463 -0.0176 -0.5240 -1.2395
 5630TIP3   OH238304   6.567   5.992  11.496 -0.4139  0.0013 -0.5506
 5630TIP3    H138305   6.480   5.969  11.529 -0.3373  1.4980  0.8092
 5630TIP3    H238306   6.619   6.008  11.575  0.9865 -0.4318 -1.3538
 5631TIP3   OH238307   6.421   6.268  13.344 -0.0142 -0.2958  0.7495
 5631TIP3    H138308   6.471   6.339  13.306 -0.1683  0.2632  1.5670
 5631TIP3    H238309   6.344   6.259  13.288  0.6783 -0.7450 -0.1450
 5632TIP3   OH238310   4.281   4.889   2.510 -0.5169 -0.4360 -0.3924
 5632TIP3    H138311   4.227   4.905   2.587 -1.6578  2.7536 -1.6457
 5632TIP3    H238312   4.219   4.860   2.443 -0.0371 -0.4669 -0.8271
 5633TIP3   OH238313   6.246   0.224  15.881 -0.3790  0.3952  0.4508
 5633TIP3    H138314   6.213   0.286  15.945  1.7547  0.4648  1.5837
 5633TIP3    H238315   6.246   0.140  15.927 -0.6858  0.0711 -0.1332
 5634TIP3   OH238316   0.579   4.075  17.082 -0.1920  0.0742  0.1925
 5634TIP3    H138317   0.600   4.065  17.174 -0.3655 -0.3528  0.1898
 5634TIP3    H238318   0.489   4.107  17.080 -0.3787 -0.4483  0.1640
 5635TIP3   OH238319   6.708   5.787  15.531 -0.4318 -0.2181 -0.3788
 5635TIP3    H138320   6.625   5.781  15.483  0.2287  0.5930 -1.6877
 5635TIP3    H238321   6.703   5.872  15.575 -0.7045 -0.6166  0.3757
 5636TIP3   OH238322   1.298   0.736  11.070 -0.1787 -0.0756 -0.0555
 5636TIP3    H138323   1.307   0.775  11.156 -0.4627  0.9521 -0.4765
 5636TIP3    H238324   1.221   0.679  11.078 -2.7148  2.9497 -0.5878
 5637TIP3   OH238325   3.765   6.194  13.127  0.1473 -0.5325  0.8288
 5637TIP3    H138326   3.724   6.111  13.107 -2.1830  0.9340 -1.0006
 5637TIP3    H238327   3.708   6.235  13.192  0.2690  0.3868  0.3707
 5638TIP3   OH238328   5.162   1.702   5.762 -0.0455  0.4856  0.7324
 5638TIP3    H138329   5.214   1.639   5.811  0.2351  0.2348  0.1275
 5638TIP3    H238330   5.225   1.770   5.737  0.3905 -0.5876 -1.3502
 5639TIP3   OH238331   3.184   0.163  11.054 -0.1764  0.0750  0.9023
 5639TIP3    H138332   3.103   0.216  11.059 -1.0502 -1.2267  0.9695
 5639TIP3    H238333   3.154   0.076  11.028  1.4360  0.0138 -0.9367
 5640TIP3   OH238334   0.540   3.799  14.177 -0.0461 -0.4142  1.0936
 5640TIP3    H138335   0.472   3.732  14.162 -0.4866  0.5316 -1.8373
 5640TIP3    H238336   0.618   3.749  14.201 -0.3521 -2.0660 -1.0421
 5641TIP3   OH238337   1.289   1.427   6.609 -0.7941  0.9683  0.5461
 5641TIP3    H138338   1.225   1.376   6.558 -0.7395  0.3692  1.0663
 5641TIP3    H238339   1.369   1.375   6.605 -0.8527  0.8008  1.4327
 5642TIP3   OH238340   6.469   0.042   3.883 -0.0692 -0.3566  0.2589
 5642TIP3    H138341   6.437  -0.031   3.936 -1.8317 -0.0774 -0.3633
 5642TIP3    H238342   6.441   0.021   3.794  0.4193  0.5332 -0.1186
 5643TIP3   OH238343   1.630   2.319   0.110 -0.3954 -0.0397 -0.0244
 5643TIP3    H138344   1.686   2.383   0.156 -0.6406  0.4310 -0.3685
 5643TIP3    H238345   1.647   2.236   0.155 -0.6464  0.4066  0.9357
 5644TIP3   OH238346   5.239   5.536   4.155  0.3073  0.3022 -0.2206
 5644TIP3    H138347   5.220   5.452   4.112 -0.6728  0.1196  0.5338
 5644TIP3    H238348   5.205   5.601   4.094 -1.6727  0.0226  0.5121
 5645TIP3   OH238349   2.718   0.773   2.462 -0.1813  0.1867 -0.1325
 5645TIP3    H138350   2.706   0.865   2.484  0.9156  0.3089  0.0461
 5645TIP3    H238351   2.769   0.738   2.536 -1.3921 -0.7952  0.2641
 5646TIP3   OH238352   2.448   2.200  13.232  0.3297 -0.4576 -0.3924
 5646TIP3    H138353   2.359   2.198  13.196  0.5107 -0.4359 -0.8456
 5646TIP3    H238354   2.489   2.119  13.200 -0.3112 -1.7757  1.8804
 5647TIP3   OH238355   5.169   4.647   1.752  0.1712  0.1304  0.0456
 5647TIP3    H138356   5.180   4.656   1.657  2.1519 -0.4251  0.1883
 5647TIP3    H238357   5.112   4.720   1.776 -1.0171 -0.1661 -1.6575
 5648TIP3   OH238358   3.701   0.537   1.225  0.5072 -0.1675  0.2230
 5648TIP3    H138359   3.792   0.551   1.250 -0.4273  1.9905  2.9912
 5648TIP3    H238360   3.670   0.469   1.285 -0.4276  1.2643  1.4115
 5649TIP3   OH238361   6.026   3.296  16.402  0.0251  0.1557  0.5449
 5649TIP3    H138362   6.063   3.382  16.383  2.2754 -0.6906  0.7189
 5649TIP3    H238363   6.089   3.256  16.462 -1.5211 -1.2152  1.3360
 5650TIP3   OH238364   2.786   0.084  13.956  0.0040  0.0570  0.0330
 5650TIP3    H138365   2.701   0.123  13.977  0.8197  1.7311  0.4255
 5650TIP3    H238366   2.848   0.157  13.959  1.7731 -1.3908  1.5293
 5651TIP3   OH238367   2.330   2.670  16.209  0.3112 -0.2744 -0.6094
 5651TIP3    H138368   2.348   2.633  16.296  0.9508 -0.6378 -0.8919
 5651TIP3    H238369   2.262   2.613  16.174  2.0362 -1.9061 -1.4712
 5652TIP3   OH238370   5.506   0.589  16.714  0.9342 -0.2743  0.5797
 5652TIP3    H138371   5.475   0.638  16.637 -0.8867  1.5985  2.3755
 5652TIP3    H238372   5.449   0.512  16.717 -1.0331  1.1167  1.5799
 5653TIP3   OH238373   2.563   0.123   3.005  0.2852 -0.4428  0.2867
 5653TIP3    H138374   2.601   0.043   3.040 -0.9777 -0.9531  0.5531
 5653TIP3    H238375   2.469   0.114   3.022 -0.7966 -1.5980 -4.7210
 5654TIP3   OH238376   3.080   4.631   5.879 -0.3791  0.0860 -0.0565
 5654TIP3    H138377   3.053   4.697   5.942  0.9017 -0.1326  0.7659
 5654TIP3    H238378   3.071   4.674   5.794  0.3710  1.3086  0.4592
 5655TIP3   OH238379   1.741   4.194  16.529 -0.0037  0.2751 -0.0169
 5655TIP3    H138380   1.695   4.156  16.604 -2.0116  1.4899 -0.5684
 5655TIP3    H238381   1.737   4.289  16.544  1.3102  0.4610 -0.7056
 5656TIP3   OH238382   1.185   3.071   2.207 -0.3526  0.3675  0.4275
 5656TIP3    H138383   1.141   2.991   2.177  0.1455 -0.3783  1.5994
 5656TIP3    H238384   1.180   3.067   2.302  1.1877  0.8550  0.5651
 5657TIP3   OH238385   4.716   4.469  16.551  0.0854 -0.4128  0.3716
 5657TIP3    H138386   4.811   4.477  16.540  0.2317 -0.6204  1.3536
 5657TIP3    H238387   4.693   4.540  16.611  0.0464 -1.8857  2.2012
 5658TIP3   OH238388   3.283   3.983  15.657 -0.8814 -0.1365 -0.0219
 5658TIP3    H138389   3.310   3.966  15.747  0.9091  1.4715 -0.1928
 5658TIP3    H238390   3.194   4.017  15.663 -1.1596 -1.0055  1.0215
 5659TIP3   OH238391   3.316   2.767   2.749  0.7771  0.0253 -0.3841
 5659TIP3    H138392   3.298   2.705   2.678 -1.0919  0.0979 -0.0324
 5659TIP3    H238393   3.399   2.738   2.786  0.5117 -1.5544 -0.9675
 5660TIP3   OH238394   5.943   4.084   5.362 -0.5396  0.7169  0.0540
 5660TIP3    H138395   5.947   3.989   5.356 -2.0336  0.6171  0.2650
 5660TIP3    H238396   6.032   4.113   5.342 -0.0811 -0.7094 -0.0917
 5661TIP3   OH238397   6.345   1.042   0.682 -0.2918 -0.2596  0.0171
 5661TIP3    H138398   6.338   1.136   0.666  0.4153 -0.2800 -0.4915
 5661TIP3    H238399   6.358   1.035   0.777 -1.1201  0.1023  0.1604
 5662TIP3   OH238400   1.197   2.338   4.523 -0.4777 -0.7497  0.0020
 5662TIP3    H138401   1.250   2.405   4.566 -0.4428 -1.7053  1.5383
 5662TIP3    H238402   1.239   2.325   4.438 -0.4303  1.0685 -0.2807
 5663TIP3   OH238403   2.406   2.186  11.086  0.1608 -0.1743  0.3000
 5663TIP3    H138404   2.419   2.096  11.115 -1.9983 -0.5935  0.1113
 5663TIP3    H238405   2.420   2.183  10.991  0.6386 -0.1926  0.3705
 5664TIP3   OH238406   6.366   0.402  12.100  0.5732  0.1221  0.1008
 5664TIP3    H138407   6.274   0.384  12.081  1.2927 -2.1501 -1.6071
 5664TIP3    H238408   6.376   0.496  12.081 -1.5494  0.6517  1.2540
 5665TIP3   OH238409   1.011   0.205  15.369  0.0351 -0.1664  0.0263
 5665TIP3    H138410   1.084   0.236  15.421  0.3045 -1.4581  0.4454
 5665TIP3    H238411   0.963   0.285  15.345  0.6788  0.5546  1.0684
 5666TIP3   OH238412   4.141   5.354   5.268  0.4222  0.1294  0.2094
 5666TIP3    H138413   4.079   5.426   5.280 -0.7633 -0.9533  0.8981
 5666TIP3    H238414   4.158   5.352   5.174 -1.4007 -0.1525 -0.1592
 5667TIP3   OH238415   4.459   2.102  16.401  0.0737 -0.0984 -0.5706
 5667TIP3    H138416   4.366   2.090  16.386 -0.5150  0.7462  1.8925
 5667TIP3    H238417   4.478   2.189  16.365 -1.4157  2.1257  3.3616
 5668TIP3   OH238418   6.503   4.024  12.587 -0.0455  0.0017 -0.1715
 5668TIP3    H138419   6.597   4.010  12.579  0.6835  1.0129  3.9747
 5668TIP3    H238420   6.486   4.104  12.537  1.6205  0.6184  0.1859
 5669TIP3   OH238421   4.726   0.270   2.904  0.1896  0.2404 -0.4205
 5669TIP3    H138422   4.806   0.319   2.881 -0.8184  2.0960 -0.1649
 5669TIP3    H238423   4.658   0.310   2.850 -0.9677  0.1859  0.9681
 5670TIP3   OH238424   4.262   2.007   1.242 -0.2314 -0.0127  0.6450
 5670TIP3    H138425   4.192   1.960   1.197  1.4227 -1.0445 -1.0309
 5670TIP3    H238426   4.260   2.095   1.204  1.1429 -0.8675 -1.6108
 5671TIP3   OH238427   5.893   0.020  16.125 -0.0663 -0.4124 -0.0340
 5671TIP3    H138428   5.895   0.092  16.187 -0.1180 -0.0233 -0.4726
 5671TIP3    H238429   5.889   0.063  16.039 -1.3760 -0.9360 -0.2593
 5672TIP3   OH238430   3.008   1.980   4.904 -0.4532  0.6126  1.0583
 5672TIP3    H138431   3.078   1.943   4.957  0.5120  0.3465 -0.3473
 5672TIP3    H238432   2.992   1.914   4.836 -1.9831  0.7265  1.2838
 5673TIP3   OH238433   6.246   1.012  11.121  0.4535  0.0768 -0.0159
 5673TIP3    H138434   6.296   0.963  11.056  1.0379  0.7790 -0.1166
 5673TIP3    H238435   6.279   0.980  11.205  0.1397 -0.3863 -0.0634
 5674TIP3   OH238436   3.066   5.977   3.469 -0.5196  0.7897 -0.1886
 5674TIP3    H138437   2.973   5.993   3.483 -1.0384 -0.3846 -1.8690
 5674TIP3    H238438   3.086   5.899   3.521 -1.1605 -0.5048 -1.8049
 5675TIP3   OH238439   6.508   3.432  11.434  0.3496  0.4019 -0.0981
 5675TIP3    H138440   6.519   3.458  11.342  3.1130 -0.2279 -0.0331
 5675TIP3    H238441   6.533   3.510  11.484  1.8801 -0.1528  0.0678
 5676TIP3   OH238442   0.807   1.362  14.545 -0.6457 -0.6787 -0.2650
 5676TIP3    H138443   0.767   1.300  14.606 -2.1005  0.3871 -0.0744
 5676TIP3    H238444   0.876   1.404  14.595 -2.6709  1.1312  1.1859
 5677TIP3   OH238445   1.544   4.058   1.295  0.2058  0.0826 -0.0735
 5677TIP3    H138446   1.608   4.027   1.359 -0.5757 -0.6082  0.3879
 5677TIP3    H238447   1.566   4.012   1.214  0.4618  0.0577  0.0098
 5678TIP3   OH238448   4.467   2.853   5.430  0.4294 -0.1494  0.2721
 5678TIP3    H138449   4.561   2.848   5.410  0.1953  0.7756 -1.2290
 5678TIP3    H238450   4.426   2.788   5.374 -0.1053  1.5604 -1.4321
 5679TIP3   OH238451   0.332   4.047  10.600 -0.3395 -0.5513  0.1302
 5679TIP3    H138452   0.285   4.129  10.614  0.4677  0.0110 -0.3488
 5679TIP3    H238453   0.406   4.071  10.544 -0.4425 -1.7278 -0.5372
 5680TIP3   OH238454   0.761   0.065  14.276 -0.5749  0.1083  0.4920
 5680TIP3    H138455   0.681   0.068  14.224 -1.8369 -0.8760  2.2982
 5680TIP3    H238456   0.814  -0.004  14.234 -0.9704  0.2660 -0.2844
 5681TIP3   OH238457   0.428   2.794   3.174  0.3792 -0.0079  0.0995
 5681TIP3    H138458   0.452   2.817   3.084  0.7824 -2.7427 -0.5831
 5681TIP3    H238459   0.510   2.764   3.213 -0.3544 -1.7434  0.3623
 5682TIP3   OH238460   6.334   0.001   6.058 -0.3417 -0.0513  0.1051
 5682TIP3    H138461   6.379  -0.060   6.000  0.8447 -1.0870  1.9987
 5682TIP3    H238462   6.292  -0.054   6.124 -2.0051  1.0603  0.0195
 5683TIP3   OH238463   3.728   0.991   3.846 -0.5644  0.0131  0.6480
 5683TIP3    H138464   3.765   1.059   3.902  1.9047 -0.2497 -0.5098
 5683TIP3    H238465   3.754   1.016   3.757 -1.6243 -1.2374 -0.0543
 5684TIP3   OH238466   0.154   0.829  11.511  0.9557 -0.3407  0.1180
 5684TIP3    H138467   0.092   0.896  11.483  1.5127 -0.3119 -1.0837
 5684TIP3    H238468   0.216   0.822  11.439  3.2612  0.7101  1.8680
 5685TIP3   OH238469   4.520   5.511  15.806  0.2833 -0.5143  0.1894
 5685TIP3    H138470   4.469   5.436  15.837  0.6152 -0.3474  1.1823
 5685TIP3    H238471   4.466   5.550  15.738  0.1671 -1.7287 -0.4415
 5686TIP3   OH238472   4.586   6.727  11.241  0.3168 -0.3984  0.2228
 5686TIP3    H138473   4.493   6.703  11.241  0.0408  0.6040 -0.0962
 5686TIP3    H238474   4.618   6.697  11.156  0.4345 -1.2270  0.5442
 5687TIP3   OH238475   2.142   5.538   2.734  0.2350 -0.2730  0.0884
 5687TIP3    H138476   2.236   5.558   2.735  0.0443  0.7241 -0.4234
 5687TIP3    H238477   2.113   5.560   2.823  0.3003  0.4085 -0.0526
 5688TIP3   OH238478   3.987   4.649  13.117 -0.6499  0.2443  0.1090
 5688TIP3    H138479   4.015   4.668  13.027 -1.1775 -0.5451 -0.2323
 5688TIP3    H238480   4.020   4.560  13.134 -0.6384  0.3511  0.6628
 5689TIP3   OH238481   0.469   2.867  10.715  0.5911  0.2014  0.2001
 5689TIP3    H138482   0.496   2.794  10.659 -0.6782 -0.1372  0.0157
 5689TIP3    H238483   0.471   2.943  10.657 -0.2291 -0.0662 -0.1901
 5690TIP3   OH238484   1.712   1.439  15.185 -0.3434  0.3226 -0.0546
 5690TIP3    H138485   1.631   1.487  15.168 -0.9912 -0.2708  1.1931
 5690TIP3    H238486   1.782   1.497  15.154 -1.2561  0.5390 -1.8225
 5691TIP3   OH238487   4.749   1.720  12.003  0.4673  0.3021  0.1540
 5691TIP3    H138488   4.752   1.652  11.936  2.4596 -1.3518  1.7725
 5691TIP3    H238489   4.732   1.800  11.955  1.7733 -0.7973 -2.3544
 5692TIP3   OH238490   4.172   1.314  12.609  0.1452  0.2345  0.4964
 5692TIP3    H138491   4.097   1.366  12.638 -0.8972 -1.5864  1.2892
 5692TIP3    H238492   4.133   1.236  12.570  1.6422  0.0409 -0.7047
 5693TIP3   OH238493   2.517   0.717   1.280  0.0422  0.0463 -0.3016
 5693TIP3    H138494   2.591   0.669   1.318 -0.8277 -0.6875  0.5399
 5693TIP3    H238495   2.556   0.795   1.242  1.2870 -0.4756 -0.1557
 5694TIP3   OH238496   5.527   6.704   1.825 -0.5194  0.5361  0.0550
 5694TIP3    H138497   5.588   6.774   1.850  0.2178  0.2489 -0.8809
 5694TIP3    H238498   5.441   6.745   1.829 -0.4034  0.6972  2.3406
 5695TIP3   OH238499   5.673   4.067   3.208 -0.8116 -0.1125 -0.2317
 5695TIP3    H138500   5.659   4.042   3.299  0.8136 -1.6059 -0.3351
 5695TIP3    H238501   5.734   4.141   3.212 -1.1436  0.1578 -0.1056
 5696TIP3   OH238502   5.231   1.883   6.044 -0.2575 -0.0229 -0.2700
 5696TIP3    H138503   5.158   1.926   6.090  0.9950  1.7640  0.1431
 5696TIP3    H238504   5.243   1.801   6.091 -0.2981  0.8801  1.4012
 5697TIP3   OH238505   1.710   2.281  15.350 -0.5040  0.3549 -0.6638
 5697TIP3    H138506   1.706   2.309  15.259  1.6752  1.1979 -0.5659
 5697TIP3    H238507   1.802   2.288  15.373 -0.8656 -0.7209  1.3532
 5698TIP3   OH238508   4.293   6.532  13.684  0.1688 -0.3577  0.4935
 5698TIP3    H138509   4.303   6.536  13.779 -0.9082 -0.8508  0.6454
 5698TIP3    H238510   4.258   6.618  13.660 -0.1935 -0.4599  0.6407
 5699TIP3   OH238511   2.058   0.109   4.346  0.1901 -0.0569  0.3791
 5699TIP3    H138512   1.979   0.111   4.292 -1.1955  0.0210  2.3340
 5699TIP3    H238513   2.123   0.064   4.291 -1.8907 -2.3112 -0.3945
 5700TIP3   OH238514   5.516   6.747   5.510 -0.6609 -0.1770 -0.0332
 5700TIP3    H138515   5.434   6.699   5.508 -0.2943 -0.8171  0.0339
 5700TIP3    H238516   5.584   6.680   5.504 -0.1475  0.4195 -1.7051
 5701TIP3   OH238517   3.044   2.388  12.456 -0.2889 -0.1155  0.1331
 5701TIP3    H138518   3.013   2.413  12.543  0.9453  0.2319  0.4810
 5701TIP3    H238519   2.989   2.438  12.396  0.8920  2.0379  0.7738
 5702TIP3   OH238520   5.566   0.217   0.744 -0.3428 -0.3344  0.4072
 5702TIP3    H138521   5.607   0.131   0.733 -0.4609 -0.4951  1.1557
 5702TIP3    H238522   5.547   0.246   0.655  0.0180 -0.9312  0.1306
 5703TIP3   OH238523   2.372   0.251   6.490 -0.0208 -0.4000  0.1241
 5703TIP3    H138524   2.281   0.223   6.498 -0.6083  0.4958 -2.5536
 5703TIP3    H238525   2.370   0.320   6.424  2.3101  1.2295  1.5921
 5704TIP3   OH238526   5.837   4.530   3.385  1.5110  0.4375  0.0498
 5704TIP3    H138527   5.860   4.490   3.301 -0.0752 -0.8163  0.1801
 5704TIP3    H238528   5.758   4.484   3.413  0.1316  3.0352  0.6955
 5705TIP3   OH238529   0.580   2.213   4.309  0.2734 -0.1634 -0.0466
 5705TIP3    H138530   0.566   2.174   4.223 -0.2524 -1.5809  0.6565
 5705TIP3    H238531   0.667   2.254   4.303  0.2850 -0.3254 -1.1987
 5706TIP3   OH238532   0.062   0.076  17.268  0.6023 -0.1853 -0.1106
 5706TIP3    H138533   0.156   0.086  17.284  0.3592 -0.0721  1.4150
 5706TIP3    H238534   0.030   0.165  17.255  0.7140 -0.2362 -0.7945
 5707TIP3   OH238535   2.202   5.785  10.992  0.5225 -0.4621 -0.4279
 5707TIP3    H138536   2.150   5.798  11.071 -0.6730  1.4645 -1.4212
 5707TIP3    H238537   2.172   5.701  10.957 -0.5035 -0.3328  0.0784
 5708TIP3   OH238538   4.211   6.736   1.500  0.0737 -0.3391 -0.1085
 5708TIP3    H138539   4.283   6.792   1.473  0.5224 -0.3761  0.9585
 5708TIP3    H238540   4.196   6.678   1.425  1.0223 -0.2048 -0.4180
 5709TIP3   OH238541   1.870   4.492  16.286 -0.0047  0.0667  0.0451
 5709TIP3    H138542   1.812   4.436  16.235 -0.1835 -0.1885  0.5202
 5709TIP3    H238543   1.842   4.581  16.266 -0.8356 -0.0664  0.5746
 5710TIP3   OH238544   6.227   0.910   2.874 -0.2134 -0.3825 -0.2218
 5710TIP3    H138545   6.262   0.830   2.914  1.4905 -0.5103 -1.8733
 5710TIP3    H238546   6.136   0.888   2.854 -0.6554 -0.8511  2.0287
 5711TIP3   OH238547   5.957   5.014  11.984  0.1675 -0.6253  0.1947
 5711TIP3    H138548   6.038   4.981  12.022  0.4007  0.2813  0.5290
 5711TIP3    H238549   5.900   5.029  12.060  0.0202 -0.4111  0.0436
 5712TIP3   OH238550   4.952   4.897  13.410 -0.0010 -0.2572 -0.5705
 5712TIP3    H138551   4.880   4.850  13.368 -0.4171  1.2693 -1.6372
 5712TIP3    H238552   4.913   4.981  13.436  0.7669 -0.3802  1.1289
 5713TIP3   OH238553   6.309   6.588   2.793  0.3693  0.0652 -0.7143
 5713TIP3    H138554   6.380   6.579   2.730  1.3050  0.8857  0.1749
 5713TIP3    H238555   6.329   6.523   2.861  0.6352  0.7223 -0.1508
 5714TIP3   OH238556   0.476   2.868   5.289  0.3008 -0.0344 -0.0230
 5714TIP3    H138557   0.495   2.779   5.319  0.1189  0.3294  1.1982
 5714TIP3    H238558   0.527   2.924   5.346 -1.6152  0.7760  0.9935
 5715TIP3   OH238559   5.404   0.728  13.003  0.2251 -0.6333 -0.1158
 5715TIP3    H138560   5.456   0.699  12.927  0.3847  1.0147 -0.6879
 5715TIP3    H238561   5.398   0.651  13.059  2.1820 -1.2525 -0.6640
 5716TIP3   OH238562   1.428   5.863  15.094 -0.7738  0.4057 -0.3005
 5716TIP3    H138563   1.427   5.930  15.163  0.2783  1.4253 -1.2337
 5716TIP3    H238564   1.468   5.786  15.136 -1.3680  0.5656  0.5891
 5717TIP3   OH238565   6.047   1.653  15.688 -1.0670  0.1259  0.4045
 5717TIP3    H138566   6.137   1.619  15.687 -0.7457  0.8635 -2.3243
 5717TIP3    H238567   6.055   1.742  15.721 -0.8114  0.1755  0.2059
 5718TIP3   OH238568   5.398   3.798   2.643 -0.9857 -0.4363  0.2775
 5718TIP3    H138569   5.419   3.890   2.657  0.2702 -0.0156 -3.3098
 5718TIP3    H238570   5.303   3.796   2.634 -0.8504  1.6307 -4.5454
 5719TIP3   OH238571   6.004   2.639   2.790 -0.1758  0.5534  0.2982
 5719TIP3    H138572   6.078   2.689   2.825 -0.0725 -0.3235  1.3897
 5719TIP3    H238573   5.934   2.655   2.853 -0.4023  0.0297  0.1793
 5720TIP3   OH238574   3.177   6.015  11.662 -0.5518 -0.2433 -0.4246
 5720TIP3    H138575   3.165   5.925  11.630 -0.3360 -0.7447  0.8673
 5720TIP3    H238576   3.272   6.026  11.664 -0.5419 -0.4598  0.6708
 5721TIP3   OH238577   1.664   2.400  11.561 -0.5915 -0.3647  0.3905
 5721TIP3    H138578   1.604   2.429  11.492  2.4277  2.8894 -1.1971
 5721TIP3    H238579   1.647   2.461  11.634  0.3178  0.1656  0.1683
 5722TIP3   OH238580   5.405   3.797   4.185 -0.3605 -0.2755  0.0220
 5722TIP3    H138581   5.428   3.720   4.133  1.7957  0.2145  0.1181
 5722TIP3    H238582   5.442   3.870   4.135 -1.9284  0.6611  0.1793
 5723TIP3   OH238583   3.659   1.749  15.587 -0.5424 -0.0596  0.2216
 5723TIP3    H138584   3.686   1.716  15.501  0.2842  0.9662  0.0661
 5723TIP3    H238585   3.572   1.711  15.601 -0.9660  0.2493 -1.3519
 5724TIP3   OH238586   1.899   5.650   1.110  0.3679 -0.0353  0.4819
 5724TIP3    H138587   1.989   5.682   1.109  0.4313 -0.2262 -0.0993
 5724TIP3    H238588   1.907   5.554   1.116  0.2099 -0.0626  0.2911
 5725TIP3   OH238589   5.368   2.970   1.290 -0.4084  0.4634 -0.2476
 5725TIP3    H138590   5.291   2.932   1.246 -0.4178 -0.0876  0.2406
 5725TIP3    H238591   5.441   2.949   1.232 -0.3482 -0.6915  0.2186
 5726TIP3   OH238592   6.015   1.286  15.280  0.2127  0.4536 -0.4157
 5726TIP3    H138593   5.951   1.346  15.242 -3.1820 -1.4573  1.7315
 5726TIP3    H238594   6.019   1.213  15.218 -3.0464 -1.2950  1.1841
 5727TIP3   OH238595   4.023   0.370  15.303  0.1693 -0.5270 -0.1417
 5727TIP3    H138596   4.062   0.405  15.384 -1.1070 -0.3627  0.4221
 5727TIP3    H238597   3.980   0.289  15.330 -2.1549  0.6260 -0.1646
 5728TIP3   OH238598   1.105   3.808   0.654 -0.4197  0.6523  0.2413
 5728TIP3    H138599   1.088   3.845   0.741  1.5562  1.9044  0.1628
 5728TIP3    H238600   1.182   3.753   0.666 -1.1199 -0.5044 -0.4151
 5729TIP3   OH238601   5.732   1.389  15.516 -0.3297 -0.0931  0.3145
 5729TIP3    H138602   5.659   1.361  15.570  0.8852 -3.3205  0.5280
 5729TIP3    H238603   5.700   1.381  15.426 -1.2959  2.0419  0.4167
 5730TIP3   OH238604   1.930   3.654  13.727  0.5283  0.3723 -0.6867
 5730TIP3    H138605   1.930   3.594  13.802 -0.8279  1.9684  0.6863
 5730TIP3    H238606   1.951   3.598  13.652  1.9199 -1.3007  0.8501
 5731TIP3   OH238607   1.941   3.887   5.200  0.1204  0.1722 -0.1805
 5731TIP3    H138608   1.970   3.977   5.215  1.0014 -0.3023  1.1040
 5731TIP3    H238609   1.901   3.860   5.282 -0.1863 -0.5944 -0.5722
 5732TIP3   OH238610   0.568   3.610  12.559 -0.7405 -0.8760 -0.5652
 5732TIP3    H138611   0.525   3.676  12.505 -1.2912 -1.3382 -0.6892
 5732TIP3    H238612   0.647   3.587  12.511  0.6849  1.3376  0.5314
 5733TIP3   OH238613   3.167   2.469  14.409  0.4684  0.0900  0.3541
 5733TIP3    H138614   3.182   2.518  14.328  1.2153  1.2345  1.1664
 5733TIP3    H238615   3.224   2.392  14.401  1.1885  0.6381  0.1710
 5734TIP3   OH238616   3.079   0.241   4.978  0.5305  0.0211 -0.1588
 5734TIP3    H138617   3.058   0.297   4.904 -0.8006  1.5597  1.2859
 5734TIP3    H238618   3.005   0.252   5.038  0.8401 -2.3253  0.7702
 5735TIP3   OH238619   5.001   3.769   4.038 -0.2731 -0.0198  0.3545
 5735TIP3    H138620   5.043   3.796   4.119  1.4480  0.4482 -0.6625
 5735TIP3    H238621   4.982   3.676   4.051  1.4500 -0.3552  0.7197
 5736TIP3   OH238622   5.724   2.104  12.327  0.2462  0.3038 -0.4269
 5736TIP3    H138623   5.813   2.072  12.316  0.3575  0.4998 -0.1168
 5736TIP3    H238624   5.675   2.028  12.359  1.0978  1.0185  3.0319
 5737TIP3   OH238625   1.697   6.677   5.775 -0.1354  0.5586 -0.3472
 5737TIP3    H138626   1.782   6.681   5.730  0.7245  0.7024  1.2353
 5737TIP3    H238627   1.710   6.614   5.846 -1.5363  0.1626 -0.4020
 5738TIP3   OH238628   6.081   5.394  13.618 -0.2895  0.3676  0.4187
 5738TIP3    H138629   6.028   5.333  13.567 -1.4843  1.2785  0.5412
 5738TIP3    H238630   6.172   5.369  13.597 -0.7478 -0.2722 -0.9342
 5739TIP3   OH238631   4.976   5.724  10.586 -0.4311 -0.0385  0.0566
 5739TIP3    H138632   4.924   5.805  10.587 -0.6356 -0.1512  1.3383
 5739TIP3    H238633   4.968   5.690  10.676 -0.4115 -1.5214 -0.4708
 5740TIP3   OH238634   4.421   5.262   2.122  0.7111 -0.4308  0.0577
 5740TIP3    H138635   4.334   5.224   2.123 -0.3701  1.8576  0.7077
 5740TIP3    H238636   4.426   5.309   2.039  0.4035  1.2911  0.9673
 5741TIP3   OH238637   2.556   6.709  17.304  0.3820 -0.0269 -0.0777
 5741TIP3    H138638   2.587   6.621  17.324 -0.0463  0.2612  2.1848
 5741TIP3    H238639   2.461   6.704  17.316  0.3140  0.6454 -0.2976
 5742TIP3   OH238640   0.184   4.629   3.714 -0.3310 -0.1481  0.1056
 5742TIP3    H138641   0.252   4.568   3.684 -0.7823 -0.4571 -0.3207
 5742TIP3    H238642   0.222   4.674   3.789  0.0496 -0.8969  0.3718
 5743TIP3   OH238643   2.450   2.103  11.475 -0.5278  0.0490  0.0293
 5743TIP3    H138644   2.504   2.156  11.416  1.2039 -0.5576  0.9718
 5743TIP3    H238645   2.484   2.014  11.464 -1.1358 -0.3010  0.9073
 5744TIP3   OH238646   0.303   1.139  17.314  0.2923 -0.2004 -0.2402
 5744TIP3    H138647   0.276   1.227  17.338 -1.4896 -1.4506  2.8389
 5744TIP3    H238648   0.370   1.116  17.378  1.3287 -0.8503 -1.5100
 5745TIP3   OH238649   4.293   2.072  15.287 -0.5291 -0.0549 -0.0026
 5745TIP3    H138650   4.332   2.156  15.263 -1.9549  1.0822  1.4403
 5745TIP3    H238651   4.201   2.093  15.303 -0.5738 -1.5441  2.0818
 5746TIP3   OH238652   2.480   4.751   4.898 -0.0402 -0.2449  0.0951
 5746TIP3    H138653   2.523   4.667   4.881  1.8225  0.3561  1.4718
 5746TIP3    H238654   2.404   4.729   4.951  1.0321 -1.0318  1.3757
 5747TIP3   OH238655   0.756   6.139   0.898 -0.0187 -0.1332  0.1255
 5747TIP3    H138656   0.827   6.159   0.960  0.6928  0.1716 -0.7572
 5747TIP3    H238657   0.710   6.065   0.937  0.3288  0.1343  1.0768
 5748TIP3   OH238658   6.216   4.302  13.761  0.0697 -0.2477  0.5682
 5748TIP3    H138659   6.256   4.284  13.846  1.7566 -0.2472 -0.1888
 5748TIP3    H238660   6.136   4.250  13.761 -0.0570 -0.1108  2.2137
 5749TIP3   OH238661   6.261   6.262  13.707 -0.1221 -0.3560  0.4006
 5749TIP3    H138662   6.202   6.199  13.667 -0.5733 -1.2458  2.3743
 5749TIP3    H238663   6.263   6.238  13.799  1.2886  1.2823  0.8428
 5750TIP3   OH238664   5.096   4.915   4.242  0.0289 -0.5437 -0.0345
 5750TIP3    H138665   5.171   4.913   4.183 -0.4676  0.7092 -0.7355
 5750TIP3    H238666   5.080   4.823   4.264  1.8863 -0.8225  0.3124
 5751TIP3   OH238667   2.641   0.664  15.315  0.0091 -0.5238 -0.4807
 5751TIP3    H138668   2.634   0.736  15.252 -3.2390 -0.6680 -0.4622
 5751TIP3    H238669   2.563   0.674  15.371  0.2385 -3.2028  0.4337
 5752TIP3   OH238670   0.081   2.224   1.970  0.2564  0.2929 -0.2561
 5752TIP3    H138671   0.109   2.136   1.946  1.3256  0.5067  0.1561
 5752TIP3    H238672  -0.005   2.234   1.929 -1.8557 -2.4139  2.9838
 5753TIP3   OH238673   3.204   5.292  15.033  0.1722  0.1025  0.1522
 5753TIP3    H138674   3.115   5.327  15.034  0.4362  0.7738  1.1012
 5753TIP3    H238675   3.228   5.283  15.125  1.8722  2.0017 -0.0263
 5754TIP3   OH238676   4.847   4.591   1.835 -0.4102 -0.3167 -0.7222
 5754TIP3    H138677   4.935   4.621   1.814 -0.6802  1.5619  0.5446
 5754TIP3    H238678   4.860   4.509   1.883  0.6958  0.1930 -0.1048
 5755TIP3   OH238679   6.191   4.512   1.430  0.2490  0.4993 -0.1014
 5755TIP3    H138680   6.253   4.497   1.502 -0.1593 -1.0520 -0.0391
 5755TIP3    H238681   6.227   4.463   1.357  0.2873  1.4928 -0.7640
 5756TIP3   OH238682   5.667   5.958  13.433  0.6051  0.3731  0.0517
 5756TIP3    H138683   5.573   5.944  13.420  0.7325  0.0128 -0.5101
 5756TIP3    H238684   5.708   5.880  13.396  0.9688 -1.5339  3.8728
 5757TIP3   OH238685   3.314   3.262  13.332  0.2506 -0.2211 -0.1782
 5757TIP3    H138686   3.402   3.227  13.350  0.7486  0.9070 -0.3184
 5757TIP3    H238687   3.287   3.302  13.415  1.3625  2.4893 -1.0012
 5758TIP3   OH238688   2.914   0.325  15.242  0.4605  0.1410  0.6320
 5758TIP3    H138689   2.870   0.384  15.181  1.6306  1.9491  1.4627
 5758TIP3    H238690   2.908   0.369  15.327  2.3951 -0.3421  1.0532
 5759TIP3   OH238691   5.038   2.098   5.033  0.2005  0.5049  0.3399
 5759TIP3    H138692   5.023   2.070   5.123 -2.0554  1.0787  0.1932
 5759TIP3    H238693   5.026   2.192   5.035 -0.9098  0.4009 -0.7437
 5760TIP3   OH238694   5.425   0.090   1.272 -0.2122  0.2787  0.4318
 5760TIP3    H138695   5.352   0.151   1.282 -0.3748  0.5916 -2.0990
 5760TIP3    H238696   5.407   0.045   1.190  3.0667  1.3365 -1.0276
 5761TIP3   OH238697   3.870   1.918   0.375 -0.0697  0.2480 -0.0262
 5761TIP3    H138698   3.793   1.957   0.416  0.3622  0.8966  0.1923
 5761TIP3    H238699   3.851   1.824   0.372 -0.3502  0.2443  1.1569
 5762TIP3   OH238700   3.669   2.125   0.767 -0.0508 -0.0546  0.6049
 5762TIP3    H138701   3.743   2.131   0.827 -1.4653 -1.5025  2.6590
 5762TIP3    H238702   3.623   2.045   0.793 -2.6941  1.0826 -0.1339
 5763TIP3   OH238703   2.829   2.025   1.434 -0.8982  0.3484  0.2211
 5763TIP3    H138704   2.882   1.951   1.403 -1.4338 -0.5574  1.3559
 5763TIP3    H238705   2.880   2.103   1.411  0.2423 -0.4233  0.0238
 5764TIP3   OH238706   2.290   3.407  15.926  0.0589 -0.5957 -0.2303
 5764TIP3    H138707   2.306   3.380  15.835 -1.5942  0.4282 -0.8785
 5764TIP3    H238708   2.256   3.497  15.919  2.5225  0.5972  1.6178
 5765TIP3   OH238709   6.133   6.537   1.633  0.0285  0.1114 -0.1146
 5765TIP3    H138710   6.172   6.584   1.559 -3.6327 -0.3037 -2.5756
 5765TIP3    H238711   6.123   6.603   1.701 -2.0008  2.2574 -2.2949
 5766TIP3   OH238712   3.717   0.834  12.424 -0.2879 -0.3661 -0.6415
 5766TIP3    H138713   3.726   0.846  12.518  2.4779  1.0436 -0.9791
 5766TIP3    H238714   3.805   0.813  12.394 -1.2189 -1.4329 -2.8711
 5767TIP3   OH238715   6.469   4.344  14.865 -0.2244  0.3233 -0.4434
 5767TIP3    H138716   6.435   4.270  14.816  0.8339 -0.3415 -0.2022
 5767TIP3    H238717   6.514   4.305  14.940 -1.5520  1.2889  0.9448
 5768TIP3   OH238718   1.098   2.162   5.616 -0.3581  0.0076 -0.1202
 5768TIP3    H138719   1.183   2.157   5.658  0.8209  1.7437 -2.1004
 5768TIP3    H238720   1.100   2.093   5.550 -1.1061 -0.9052  0.7809
 5769TIP3   OH238721   2.605   4.860  13.244 -0.4749  0.3919 -0.3029
 5769TIP3    H138722   2.583   4.847  13.337  0.1610 -2.3021 -0.4302
 5769TIP3    H238723   2.701   4.853  13.242 -0.0877  4.1426 -0.7587
 5770TIP3   OH238724   5.369   6.374   5.411 -0.0747  0.3697 -0.1986
 5770TIP3    H138725   5.430   6.302   5.395  1.4176  1.4982  0.1438
 5770TIP3    H238726   5.387   6.436   5.340 -0.5060  0.9296  0.1768
 5771TIP3   OH238727   0.390   4.558   6.171 -0.4466  0.3223 -0.1200
 5771TIP3    H138728   0.303   4.524   6.195  0.1290 -1.7394 -0.7424
 5771TIP3    H238729   0.376   4.600   6.086 -0.8259 -0.0537 -0.2486
 5772TIP3   OH238730   1.630   4.755   1.914 -0.4804  0.3170  0.0045
 5772TIP3    H138731   1.679   4.787   1.839  0.7450  2.2466  1.5188
 5772TIP3    H238732   1.600   4.834   1.959  1.0413 -0.5921  2.8939
 5773TIP3   OH238733   2.881   4.824  15.213 -0.1035 -0.1858 -0.0865
 5773TIP3    H138734   2.852   4.814  15.123  1.0256  0.5443 -0.5509
 5773TIP3    H238735   2.905   4.916  15.221  1.0207 -0.5076  0.5584
 5774TIP3   OH238736   6.189   2.710  17.185  0.0025  0.3954 -0.1085
 5774TIP3    H138737   6.125   2.780  17.191  0.7262  1.0995 -0.4069
 5774TIP3    H238738   6.191   2.687  17.092  0.1726  0.3608 -0.0961
 5775TIP3   OH238739   0.376   2.445  11.050 -0.2854 -0.2183 -0.0373
 5775TIP3    H138740   0.327   2.515  11.094  1.1103  0.7860 -0.0300
 5775TIP3    H238741   0.408   2.485  10.969  2.6732  0.0310  1.1216
 5776TIP3   OH238742   1.483   5.056  12.637 -1.0541  0.4095 -0.1613
 5776TIP3    H138743   1.468   4.980  12.581 -1.1696  1.4025 -1.5395
 5776TIP3    H238744   1.404   5.109  12.627  0.8992  3.1131 -3.2486
 5777TIP3   OH238745   0.107   6.660   4.688  0.0936  0.6151  0.1833
 5777TIP3    H138746   0.119   6.725   4.756 -0.0207  1.9454 -1.0217
 5777TIP3    H238747   0.192   6.658   4.642  0.3060 -0.5619  0.5906
 5778TIP3   OH238748   3.304   6.304  11.494 -0.0544  0.0996 -0.3676
 5778TIP3    H138749   3.230   6.355  11.463 -0.5668 -1.0498 -1.1015
 5778TIP3    H238750   3.367   6.370  11.525 -1.8464  1.0574  1.4566
 5779TIP3   OH238751   4.073   6.382  16.959 -0.1910 -0.2795  0.1847
 5779TIP3    H138752   4.075   6.372  17.054  2.1951 -0.4706  0.1746
 5779TIP3    H238753   4.087   6.476  16.944  2.7587 -0.6637  0.0519
 5780TIP3   OH238754   4.673   3.225  11.325  0.1989  0.0125  0.3752
 5780TIP3    H138755   4.731   3.297  11.299  1.2277 -0.3175  1.6606
 5780TIP3    H238756   4.700   3.151  11.270 -0.1841  0.3176 -0.2379
 5781TIP3   OH238757   6.011   6.564  12.142  0.7118 -0.4661 -0.3502
 5781TIP3    H138758   6.076   6.496  12.157  0.9949  0.0809  1.1117
 5781TIP3    H238759   5.941   6.544  12.204  0.3734  0.0446 -0.5578
 5782TIP3   OH238760   6.736   6.468  12.132  0.2579 -0.1860 -0.2239
 5782TIP3    H138761   6.764   6.502  12.217  2.1232  2.8283 -1.8564
 5782TIP3    H238762   6.807   6.411  12.104 -0.4341 -1.3139  0.2702
 5783TIP3   OH238763   1.384   5.536  17.104  0.0440  0.3621 -0.0747
 5783TIP3    H138764   1.375   5.625  17.070  0.4071 -0.1595 -1.6185
 5783TIP3    H238765   1.321   5.531  17.176 -0.8061  1.5099 -0.7158
 5784TIP3   OH238766   0.189   2.083  12.622 -0.3847 -0.3049  0.6302
 5784TIP3    H138767   0.101   2.109  12.595 -0.1513  0.1212  0.2491
 5784TIP3    H238768   0.247   2.142  12.572  0.1514 -1.2665  0.0910
 5785TIP3   OH238769   3.790   5.196   2.959  0.1676  0.3359 -0.0996
 5785TIP3    H138770   3.702   5.184   2.995  0.3151  2.1603  1.0042
 5785TIP3    H238771   3.776   5.206   2.865 -0.9180  1.4891  0.1548
 5786TIP3   OH238772   6.492   3.714   1.253 -0.8928  0.6406  0.2445
 5786TIP3    H138773   6.446   3.683   1.331 -0.9388 -3.1929 -1.0966
 5786TIP3    H238774   6.581   3.732   1.283 -1.5245  1.6872  1.5971
 5787TIP3   OH238775   5.998   0.788  17.313  0.4224  0.1584 -0.5271
 5787TIP3    H138776   5.931   0.723  17.288 -0.4843  0.0939  1.7862
 5787TIP3    H238777   6.048   0.745  17.382  2.1900  0.6304 -1.4671
 5788TIP3   OH238778   4.710   5.875   4.764  1.0227  0.4450 -0.6557
 5788TIP3    H138779   4.758   5.921   4.696 -0.5453  0.2011 -1.9957
 5788TIP3    H238780   4.649   5.818   4.717 -0.4938  0.6414  0.9381
 5789TIP3   OH238781   2.612   5.010   6.760  0.4606  0.4501  0.3993
 5789TIP3    H138782   2.577   4.972   6.840 -0.0563  1.3395  0.6086
 5789TIP3    H238783   2.692   4.960   6.742  0.0839 -0.3638  0.9479
 5790TIP3   OH238784   3.162   0.243  11.727 -0.3016 -0.5840  0.8221
 5790TIP3    H138785   3.235   0.209  11.676 -0.3732  0.9734 -0.4237
 5790TIP3    H238786   3.191   0.330  11.755 -1.7693  0.2115  0.0076
 5791TIP3   OH238787   5.926   0.936   6.300 -0.6781  0.3986  0.0017
 5791TIP3    H138788   5.862   0.866   6.290 -1.5280  1.3031 -1.1476
 5791TIP3    H238789   6.007   0.901   6.262 -0.2310 -0.9905  2.0385
 5792TIP3   OH238790   4.366   1.276   3.402 -0.3175  0.1343  0.2530
 5792TIP3    H138791   4.377   1.254   3.310 -0.0525  0.2191  0.2636
 5792TIP3    H238792   4.287   1.229   3.429 -0.8328  0.7265 -0.2131
 5793TIP3   OH238793   6.088   0.423  15.080  0.2701 -0.6000  0.2485
 5793TIP3    H138794   6.136   0.505  15.073  2.4490 -1.7115  1.1755
 5793TIP3    H238795   6.051   0.424  15.168 -1.0785  0.0407 -0.2954
 5794TIP3   OH238796   5.222   3.300  14.856 -0.0078 -0.3279 -0.2319
 5794TIP3    H138797   5.262   3.350  14.785 -0.2429  0.0251 -0.1198
 5794TIP3    H238798   5.228   3.208  14.827 -0.8279 -0.1311 -1.0780
 5795TIP3   OH238799   4.371   2.945   0.322 -0.2022 -0.1282  0.1650
 5795TIP3    H138800   4.442   2.911   0.377  0.4611  0.1039 -0.5321
 5795TIP3    H238801   4.332   3.016   0.373  1.4972  1.2221 -0.3294
 5796TIP3   OH238802   0.632   3.058   6.292 -0.6006 -0.3694 -0.6368
 5796TIP3    H138803   0.583   2.977   6.305  3.0563 -2.7615 -0.2283
 5796TIP3    H238804   0.622   3.078   6.199 -1.1320 -1.6573 -0.8730
 5797TIP3   OH238805   0.374   0.379   3.625 -0.0880  0.2221  0.4842
 5797TIP3    H138806   0.398   0.361   3.534 -1.3069 -0.4489  0.2662
 5797TIP3    H238807   0.401   0.470   3.640  1.2576 -0.0552 -0.1370
 5798TIP3   OH238808   3.346   3.904   2.003  0.3536 -0.7091 -0.0327
 5798TIP3    H138809   3.375   3.813   2.002  0.2020 -0.7500 -1.5995
 5798TIP3    H238810   3.408   3.947   2.063  1.7363 -1.4232 -0.8934
 5799TIP3   OH238811   4.315   5.954   0.097 -0.0395  0.2968  0.3389
 5799TIP3    H138812   4.245   5.987   0.154 -0.7278  2.5200 -1.6302
 5799TIP3    H238813   4.382   6.023   0.100  0.3652 -0.0474 -0.7203
 5800TIP3   OH238814   1.028   4.218  14.312 -0.4130  0.2174  0.3290
 5800TIP3    H138815   1.025   4.305  14.273  0.7944 -0.5107 -1.5379
 5800TIP3    H238816   1.119   4.206  14.338 -0.5057 -0.5708  0.3193
 5801TIP3   OH238817   1.159   4.741   1.513  0.7019  0.1490  0.0494
 5801TIP3    H138818   1.169   4.698   1.428 -1.5264 -2.6899  1.0565
 5801TIP3    H238819   1.068   4.771   1.514 -0.2520 -2.4286  2.3690
 5802TIP3   OH238820   0.298   5.506  16.880  0.6768 -0.1420 -0.5935
 5802TIP3    H138821   0.212   5.522  16.841  0.8607  1.4216 -0.4279
 5802TIP3    H238822   0.288   5.424  16.928 -0.4942 -0.3832 -1.2254
 5803TIP3   OH238823   1.702   6.561   5.168 -0.3085  0.2412  0.4433
 5803TIP3    H138824   1.701   6.465   5.168 -0.6455  0.2353 -0.3982
 5803TIP3    H238825   1.739   6.584   5.082 -1.6560  0.8661  0.0051
 5804TIP3   OH238826   0.891   5.427  13.383  0.2740  0.0152 -0.2230
 5804TIP3    H138827   0.958   5.371  13.344 -0.4768 -0.5046 -0.8004
 5804TIP3    H238828   0.897   5.410  13.477  1.2084  0.2744 -0.2256
 5805TIP3   OH238829   1.763   6.460  13.672  0.1099  0.1827 -0.1389
 5805TIP3    H138830   1.670   6.480  13.682 -0.1716  0.5726 -2.8403
 5805TIP3    H238831   1.793   6.520  13.603  1.9473 -1.1232 -0.5328
 5806TIP3   OH238832   0.553   3.195  16.364  0.2710  0.3406 -0.4031
 5806TIP3    H138833   0.647   3.189  16.350  0.1203  0.8493 -1.7375
 5806TIP3    H238834   0.544   3.249  16.443  1.0894  0.3491 -0.3114
 5807TIP3   OH238835   2.489   1.385  15.758 -0.8394  0.0363  0.3958
 5807TIP3    H138836   2.479   1.448  15.829 -0.7550 -0.4890  0.8756
 5807TIP3    H238837   2.583   1.381  15.742 -0.9420  1.1531 -0.6663
 5808TIP3   OH238838   1.441   0.399  17.267 -0.6984  0.3830 -0.2235
 5808TIP3    H138839   1.436   0.486  17.308  1.2742  0.2614  0.3783
 5808TIP3    H238840   1.532   0.372  17.279 -1.2667 -1.8050 -0.3480
 5809TIP3   OH238841   6.184   5.564   5.042  0.1529 -0.4140 -0.0521
 5809TIP3    H138842   6.150   5.486   4.997  0.0551 -0.2145 -0.3213
 5809TIP3    H238843   6.216   5.621   4.973 -0.8142  0.2876  0.0543
 5810TIP3   OH238844   0.909   4.679  15.416 -0.1905 -0.3015  0.1179
 5810TIP3    H138845   0.972   4.659  15.346 -0.6273 -0.8662 -0.1177
 5810TIP3    H238846   0.937   4.765  15.448  0.3041 -0.2453 -0.4289
 5811TIP3   OH238847   3.249   5.505   6.633  0.2129 -0.2513 -0.1668
 5811TIP3    H138848   3.197   5.570   6.586  0.7088  0.8141  0.7106
 5811TIP3    H238849   3.191   5.429   6.641 -0.1785 -0.1484 -1.7116
 5812TIP3   OH238850   1.860   2.340  12.542 -0.1352  0.0233  0.4161
 5812TIP3    H138851   1.849   2.358  12.448 -0.0755  3.1034  0.8759
 5812TIP3    H238852   1.777   2.302  12.569 -0.8318  0.7687 -0.5876
 5813TIP3   OH238853   1.709   5.140  12.361  0.1118  0.3903  0.2275
 5813TIP3    H138854   1.754   5.185  12.290  0.8703 -0.2004  0.3153
 5813TIP3    H238855   1.638   5.092  12.318  0.6178 -0.0300 -0.1449
 5814TIP3   OH238856   5.944   4.600   0.704  0.6613  0.2336  0.0469
 5814TIP3    H138857   6.039   4.602   0.718  0.7731  1.2422 -0.7316
 5814TIP3    H238858   5.913   4.684   0.738  0.1859  0.3174 -0.5724
 5815TIP3   OH238859   0.483   4.841  12.599  0.0035  0.1158 -0.5042
 5815TIP3    H138860   0.491   4.935  12.616  0.3863  0.2744 -1.5099
 5815TIP3    H238861   0.414   4.813  12.659 -0.8312  1.2420 -0.8891
 5816TIP3   OH238862   0.190   6.618  16.673  0.0530  0.5030 -0.1513
 5816TIP3    H138863   0.148   6.665  16.745 -0.9438  0.0317 -0.4139
 5816TIP3    H238864   0.132   6.545  16.654  1.6215 -0.9465  0.3247
 5817TIP3   OH238865   4.694   2.958  11.825  0.5177 -0.1664  0.3293
 5817TIP3    H138866   4.761   2.953  11.757 -0.7737 -1.5481 -0.9137
 5817TIP3    H238867   4.634   2.886  11.806 -3.4486  3.0882 -0.9172
 5818TIP3   OH238868   6.643   3.660  11.634  0.0137 -0.4965 -0.2802
 5818TIP3    H138869   6.552   3.688  11.623 -0.6005 -0.0291  4.1288
 5818TIP3    H238870   6.636   3.567  11.658  0.5074 -0.1574  1.2889
 5819TIP3   OH238871   3.113   4.682   4.252 -0.1607  0.0585 -0.4367
 5819TIP3    H138872   3.165   4.618   4.301 -1.1183 -0.4217 -0.0113
 5819TIP3    H238873   3.121   4.654   4.161  1.5025  0.8609 -0.5819
 5820TIP3   OH238874   5.644   1.181  11.461 -0.2105  0.0518  0.3316
 5820TIP3    H138875   5.672   1.271  11.442 -1.1128 -0.0601 -1.8623
 5820TIP3    H238876   5.724   1.129  11.451 -0.4290  0.1063 -2.9790
 5821TIP3   OH238877   2.677   4.253  14.962 -0.0871  0.5931  0.4184
 5821TIP3    H138878   2.685   4.336  14.915 -1.8900 -0.4026 -1.8828
 5821TIP3    H238879   2.761   4.209  14.946  0.1266  1.1577 -0.0877
 5822TIP3   OH238880   3.969   0.010  13.088 -0.2937  0.5776  0.4023
 5822TIP3    H138881   3.943  -0.073  13.128  1.7699  0.0178  0.7171
 5822TIP3    H238882   3.926   0.011  13.002  0.6645 -1.4702 -0.1554
 5823TIP3   OH238883   0.486   1.211  12.498 -0.4435  0.2250 -0.0747
 5823TIP3    H138884   0.574   1.247  12.503  0.1265 -1.2008  0.3983
 5823TIP3    H238885   0.451   1.220  12.587  0.4870 -2.2591  0.6023
 5824TIP3   OH238886   1.932   2.395  16.927 -0.2628 -0.1681 -0.5417
 5824TIP3    H138887   1.960   2.483  16.901 -0.5986 -0.1931 -1.0075
 5824TIP3    H238888   1.846   2.408  16.967 -0.2694 -0.2692 -0.5226
 5825TIP3   OH238889   1.379   6.487  17.106  0.4996  0.8023 -0.0570
 5825TIP3    H138890   1.466   6.506  17.140 -0.2517  1.2577  1.6954
 5825TIP3    H238891   1.340   6.427  17.170  0.4867 -1.7270 -2.2281
 5826TIP3   OH238892   0.940   4.836  15.066  0.3206 -0.0799  0.2124
 5826TIP3    H138893   0.851   4.804  15.079 -1.4080  3.1083 -2.4002
 5826TIP3    H238894   0.947   4.912  15.124  1.1949 -0.0317  0.0554
 5827TIP3   OH238895   0.260   3.729   5.167 -0.1247  0.5499 -0.0084
 5827TIP3    H138896   0.334   3.712   5.110  0.3763  1.2946  0.4007
 5827TIP3    H238897   0.249   3.824   5.165 -0.0368  0.6004  1.2002
 5828TIP3   OH238898   1.419   1.654  13.990 -0.3292  0.2636 -0.4529
 5828TIP3    H138899   1.459   1.733  13.952  0.5459 -1.3508 -3.1878
 5828TIP3    H238900   1.404   1.597  13.915 -2.8861 -1.3908  1.1784
 5829TIP3   OH238901   4.253   0.288  14.522  0.0505  0.1743  0.1803
 5829TIP3    H138902   4.235   0.240  14.441 -0.1624 -1.4916  1.1550
 5829TIP3    H238903   4.346   0.272  14.539 -0.8794 -4.0244  2.8823
 5830TIP3   OH238904   5.390   3.188  11.678 -0.3030  0.1678 -0.5325
 5830TIP3    H138905   5.410   3.182  11.585  0.9309  0.1589 -0.2720
 5830TIP3    H238906   5.342   3.271  11.686  1.0445  1.0148 -0.9351
 5831TIP3   OH238907   5.406   3.315  14.148 -0.3166 -0.4834 -0.2752
 5831TIP3    H138908   5.394   3.344  14.057 -1.0381  0.8766  0.2238
 5831TIP3    H238909   5.496   3.342  14.169 -0.5094  0.1532 -0.2563
 5832TIP3   OH238910   0.976   4.815   0.303 -0.1410 -0.3624  0.8044
 5832TIP3    H138911   0.967   4.722   0.323 -0.6956 -0.1724  1.4560
 5832TIP3    H238912   0.958   4.821   0.209 -0.9611 -0.7959  0.9305
 5833TIP3   OH238913   1.525   3.704  13.224 -0.2159 -0.0449  0.1245
 5833TIP3    H138914   1.610   3.741  13.247 -0.3571  0.6551 -0.4478
 5833TIP3    H238915   1.545   3.619  13.185  0.1532 -0.3116  0.8743
 5834TIP3   OH238916   3.353   3.372  15.816 -0.2243  0.4619  0.1170
 5834TIP3    H138917   3.443   3.373  15.785 -0.4312 -0.8391 -0.5628
 5834TIP3    H238918   3.300   3.393  15.738 -0.5727  0.1218  0.2593
 5835TIP3   OH238919   4.415   4.512  15.161  0.2049 -0.2313  0.1219
 5835TIP3    H138920   4.444   4.515  15.070 -0.3841  1.2035 -0.0360
 5835TIP3    H238921   4.353   4.584  15.169  0.1753 -0.3995  1.6429
 5836TIP3   OH238922   3.089   0.684   0.304 -0.5128 -0.0419 -0.4041
 5836TIP3    H138923   3.166   0.631   0.323 -0.2576  0.6426  0.5182
 5836TIP3    H238924   3.031   0.669   0.379 -0.1787  1.4415  0.1823
 5837TIP3   OH238925   6.193   1.531  14.083 -0.2108 -0.0451 -0.3080
 5837TIP3    H138926   6.180   1.546  14.177  0.2576  0.7588 -0.3668
 5837TIP3    H238927   6.274   1.576  14.062  0.1072 -0.8895 -0.9495
 5838TIP3   OH238928   6.649   3.519   1.055  1.0060 -0.3452 -0.2760
 5838TIP3    H138929   6.573   3.572   1.082  0.7203 -0.6532 -0.4740
 5838TIP3    H238930   6.611   3.444   1.011  1.4807  0.9044 -2.9999
 5839TIP3   OH238931   5.244   3.355  12.397  0.3653  0.5708 -0.2604
 5839TIP3    H138932   5.262   3.449  12.400  0.0643  0.6165  0.2433
 5839TIP3    H238933   5.267   3.329  12.308  0.8540  1.0385 -0.2741
 5840TIP3   OH238934   4.347   2.315   5.185  0.2718  0.3962 -0.1910
 5840TIP3    H138935   4.371   2.223   5.186  0.8563  0.4733 -2.0062
 5840TIP3    H238936   4.288   2.327   5.260  0.1884 -1.4325  0.0619
 5841TIP3   OH238937   0.375   5.655   0.613 -0.0882 -0.0511  0.1294
 5841TIP3    H138938   0.415   5.714   0.549  0.8688 -0.3925  0.3965
 5841TIP3    H238939   0.385   5.700   0.697  0.7648 -0.6410  0.3535
 5842TIP3   OH238940   6.430   0.026  11.480 -0.0834  0.0777  0.1887
 5842TIP3    H138941   6.422   0.019  11.575 -0.8535 -2.1799  0.0274
 5842TIP3    H238942   6.344   0.003  11.447  0.6331 -0.9100 -1.0855
 5843TIP3   OH238943   2.123   6.422   4.820  0.0582 -0.6349  0.0792
 5843TIP3    H138944   2.044   6.414   4.767 -0.9702  1.3701  1.1770
 5843TIP3    H238945   2.104   6.494   4.880  2.9790  0.3954 -0.0666
 5844TIP3   OH238946   6.002   2.202  12.261 -0.4716 -0.1903 -0.3063
 5844TIP3    H138947   6.010   2.236  12.350  1.4228 -0.2255 -0.4073
 5844TIP3    H238948   5.927   2.247  12.224  0.0194  1.4702  0.6232
 5845TIP3   OH238949   5.909   5.119   1.574 -0.2642 -0.3038  0.3508
 5845TIP3    H138950   5.839   5.073   1.528 -0.0904  1.0046 -1.2802
 5845TIP3    H238951   5.864   5.176   1.636 -0.6494  0.2747 -0.4457
 5846TIP3   OH238952   6.491   5.041   2.077  0.2658  0.0596  0.5992
 5846TIP3    H138953   6.405   5.080   2.091  0.3019  0.7543 -0.9385
 5846TIP3    H238954   6.526   5.085   1.999  0.9953 -1.8853 -0.2427
 5847TIP3   OH238955   2.029   5.493   3.826  0.1134 -0.1495 -0.1495
 5847TIP3    H138956   1.989   5.437   3.759  0.0011  0.8682 -0.9539
 5847TIP3    H238957   1.999   5.456   3.909 -1.9958  0.1686 -0.7086
 5848TIP3   OH238958   3.454   5.250   4.775  0.6228 -0.2636  0.2290
 5848TIP3    H138959   3.520   5.214   4.835  0.5358 -2.4572 -0.8839
 5848TIP3    H238960   3.391   5.295   4.832  2.3826  0.8202  1.4219
 5849TIP3   OH238961   4.662   2.177   4.845 -0.5044  0.2825 -0.4887
 5849TIP3    H138962   4.571   2.176   4.815 -0.7997  1.3898  0.3350
 5849TIP3    H238963   4.656   2.189   4.940  0.5043  0.4616 -0.4395
 5850TIP3   OH238964   2.576   6.665   3.150 -0.1889  0.1410  0.4533
 5850TIP3    H138965   2.582   6.571   3.134 -3.2046 -0.1158  0.3532
 5850TIP3    H238966   2.628   6.679   3.230  2.0230 -1.1829 -0.6668
 5851TIP3   OH238967   6.284   1.040  10.430 -0.2193  0.0059  0.2350
 5851TIP3    H138968   6.216   1.087  10.479 -0.9435 -2.7274  2.1614
 5851TIP3    H238969   6.251   0.950  10.426  2.1560 -0.8771 -1.0289
 5852TIP3   OH238970   4.862   1.892  17.143  0.1387  0.0282  0.0938
 5852TIP3    H138971   4.786   1.911  17.198  1.0479  2.2294  0.7097
 5852TIP3    H238972   4.857   1.798  17.126 -2.4169  0.0141  0.5307
 5853TIP3   OH238973   5.173   6.582   3.755 -0.0873 -0.0747 -0.0090
 5853TIP3    H138974   5.263   6.590   3.789  0.8223 -1.2104 -2.0005
 5853TIP3    H238975   5.181   6.603   3.662 -1.7945 -0.8115 -0.3402
 5854TIP3   OH238976   6.050   1.296  16.676  0.1323 -0.2175 -0.3385
 5854TIP3    H138977   6.070   1.388  16.696 -1.0657 -0.4011  2.0418
 5854TIP3    H238978   5.970   1.300  16.624 -0.4706  0.0980  0.5797
 5855TIP3   OH238979   2.080   5.285  14.732  0.2803  0.0410  0.5347
 5855TIP3    H138980   2.008   5.345  14.749 -0.4057 -0.5688 -0.1554
 5855TIP3    H238981   2.146   5.308  14.798 -0.4428  0.7530  1.0333
 5856TIP3   OH238982   6.572   2.635   0.954  0.5301  0.1047  0.6156
 5856TIP3    H138983   6.618   2.583   0.888 -0.2211  1.0649 -0.7157
 5856TIP3    H238984   6.636   2.700   0.982 -0.1661  2.0003 -1.8786
 5857TIP3   OH238985   0.967   4.013   4.125 -0.5220  0.0663 -0.6915
 5857TIP3    H138986   1.063   4.018   4.130 -0.5466  3.0693 -1.6788
 5857TIP3    H238987   0.939   4.004   4.216  0.6561  2.2753 -0.0349
 5858TIP3   OH238988   1.427   0.934  13.553 -0.0770  1.0240 -0.6023
 5858TIP3    H138989   1.448   1.003  13.489  3.7000  0.3435 -0.3558
 5858TIP3    H238990   1.496   0.869  13.542 -0.9278 -0.5528  2.2166
 5859TIP3   OH238991   5.005   0.415  12.578 -0.3278 -0.0222  0.3800
 5859TIP3    H138992   4.966   0.339  12.535 -0.8695 -0.5351  1.7236
 5859TIP3    H238993   4.966   0.491  12.534 -1.6977 -0.5310  0.6734
 5860TIP3   OH238994   4.927   4.157   3.494  0.1091  0.4338 -0.0021
 5860TIP3    H138995   4.928   4.162   3.590 -0.2391 -2.3630  0.2277
 5860TIP3    H238996   4.888   4.072   3.475 -0.6608  1.2907 -2.6871
 5861TIP3   OH238997   1.945   4.209   0.648 -0.0690 -0.0616  0.0436
 5861TIP3    H138998   1.983   4.296   0.643  0.5443 -0.2393  1.3037
 5861TIP3    H238999   1.853   4.224   0.670 -0.2919  0.2903 -1.0302
 5862TIP3   OH239000   3.090   3.185  11.083 -0.1674 -0.1040 -0.4768
 5862TIP3    H139001   3.094   3.267  11.132 -2.1438  0.2455 -0.7850
 5862TIP3    H239002   3.101   3.211  10.992  2.9696 -0.6927 -0.3801
 5863TIP3   OH239003   2.847   4.327  11.937  0.1554 -0.1083  0.4800
 5863TIP3    H139004   2.850   4.407  11.990  0.4939 -1.0304  1.9276
 5863TIP3    H239005   2.855   4.357  11.847 -1.3686  1.6093  0.8655
 5864TIP3   OH239006   0.904   2.748  10.459 -0.3819 -0.5630  0.1944
 5864TIP3    H139007   0.892   2.726  10.366 -2.2088  1.4374 -0.1304
 5864TIP3    H239008   0.977   2.811  10.459 -1.9220  1.3032 -0.2667
 5865TIP3   OH239009   2.295   2.340  11.646 -0.4948  0.3112  0.2650
 5865TIP3    H139010   2.242   2.339  11.566  0.3179  0.4129 -0.2830
 5865TIP3    H239011   2.363   2.274  11.630  0.9634  1.8289 -0.0173
 5866TIP3   OH239012   1.754   3.710   4.261 -0.1766 -0.1205  0.6298
 5866TIP3    H139013   1.815   3.730   4.332 -1.1818  0.3558  1.3805
 5866TIP3    H239014   1.800   3.645   4.208  1.1564  0.5490  0.9225
 5867TIP3   OH239015   3.961   5.879   1.409 -0.7871 -0.1898  0.3625
 5867TIP3    H139016   3.950   5.793   1.451  1.7184 -0.6454  0.2286
 5867TIP3    H239017   3.921   5.941   1.470 -0.9688 -1.2571  1.3646
 5868TIP3   OH239018   0.191   5.361   4.543 -0.1114 -0.1400 -0.0592
 5868TIP3    H139019   0.180   5.378   4.637 -1.0508  1.9038 -0.4936
 5868TIP3    H239020   0.282   5.333   4.535  0.5430  1.4004  1.2774
 5869TIP3   OH239021   3.353   0.606   4.891  1.0530 -0.9161  0.1173
 5869TIP3    H139022   3.351   0.542   4.962  0.5452 -0.0475  0.9149
 5869TIP3    H239023   3.349   0.554   4.811 -1.6629 -1.8325  0.7546
 5870TIP3   OH239024   5.578   4.785  16.483 -0.6289  0.2794 -0.5511
 5870TIP3    H139025   5.506   4.730  16.515 -3.5495  0.9204 -5.0057
 5870TIP3    H239026   5.632   4.726  16.430  0.1660  0.4652  0.0352
 5871TIP3   OH239027   6.461   5.827  16.999  0.1389 -0.0963  0.3824
 5871TIP3    H139028   6.555   5.849  16.994  0.2407 -0.5210  0.3986
 5871TIP3    H239029   6.418   5.911  17.014  0.5520  0.0579  0.7466
 5872TIP3   OH239030   4.396   0.721   4.142 -0.4342 -0.2283 -0.3115
 5872TIP3    H139031   4.447   0.781   4.088  0.2033 -0.3589  0.1317
 5872TIP3    H239032   4.393   0.639   4.091  1.4945 -0.8559  0.4890
 5873TIP3   OH239033   5.978   6.134   1.292 -0.4016  0.5496  0.3498
 5873TIP3    H139034   6.038   6.153   1.364  0.6773  0.4981 -0.4982
 5873TIP3    H239035   5.998   6.044   1.268 -0.4499  0.6989 -0.2710
 5874TIP3   OH239036   4.058   3.117   0.800  0.1584  0.2400 -0.0908
 5874TIP3    H139037   4.002   3.193   0.787  1.8559  1.4302 -0.7983
 5874TIP3    H239038   4.022   3.074   0.878 -0.9430  1.6738  0.2338
 5875TIP3   OH239039   1.728   3.911  11.147 -0.3732  0.2789  0.1115
 5875TIP3    H139040   1.769   3.914  11.060 -0.6858  1.4225 -0.0098
 5875TIP3    H239041   1.777   3.843  11.194  1.9951  1.8825  0.1182
 5876TIP3   OH239042   0.607   0.979  16.118  0.4440  0.0231  0.4440
 5876TIP3    H139043   0.560   1.060  16.134 -0.5056 -0.5863  0.7851
 5876TIP3    H239044   0.549   0.910  16.150  0.9920 -0.8318 -0.3421
 5877TIP3   OH239045   1.584   1.275  16.349 -0.5223  0.0953 -0.5290
 5877TIP3    H139046   1.570   1.327  16.271 -2.3870 -2.6576 -2.2062
 5877TIP3    H239047   1.497   1.263  16.387 -0.1319 -1.4590 -0.0271
 5878TIP3   OH239048   3.656   4.405  12.240  0.0962  0.3629 -0.1802
 5878TIP3    H139049   3.671   4.413  12.146 -0.7730  0.6858 -0.3012
 5878TIP3    H239050   3.737   4.438  12.280  1.1165 -1.2799 -0.8085
 5879TIP3   OH239051   4.335   1.653   4.871  0.6311  0.0998 -0.1116
 5879TIP3    H139052   4.345   1.561   4.893 -0.8550  0.3657  2.0471
 5879TIP3    H239053   4.394   1.699   4.932  0.1492  0.6390 -0.0380
 5880TIP3   OH239054   1.866   1.498  12.480 -1.1223 -0.2484  0.1847
 5880TIP3    H139055   1.823   1.546  12.551  0.3073  0.4088  0.6338
 5880TIP3    H239056   1.951   1.473  12.516 -0.5894 -0.3896 -1.1185
 5881TIP3   OH239057   2.707   1.428  10.745 -0.0179 -0.3517 -0.2752
 5881TIP3    H139058   2.651   1.505  10.751 -0.7783 -0.9593  0.7633
 5881TIP3    H239059   2.652   1.356  10.775  0.2730 -1.5291 -2.3532
 5882TIP3   OH239060   3.799   4.698   0.028  0.0987 -0.3134 -0.1192
 5882TIP3    H139061   3.777   4.674   0.118  0.5059 -0.1002  0.0441
 5882TIP3    H239062   3.743   4.644  -0.027 -3.4640  2.5974  0.2626
 5883TIP3   OH239063   0.445   0.660   4.717  0.9893 -0.0879 -0.4747
 5883TIP3    H139064   0.351   0.638   4.719  0.5923  1.4612 -0.7648
 5883TIP3    H239065   0.487   0.580   4.685 -0.3595 -0.4749 -1.4125
 5884TIP3   OH239066   5.715   3.280   5.505  0.1612 -0.1249  0.0209
 5884TIP3    H139067   5.759   3.222   5.443  1.0052 -0.0943  0.5779
 5884TIP3    H239068   5.782   3.343   5.531 -1.0776  2.0144 -1.6023
 5885TIP3   OH239069   6.729   4.090   5.965  0.7393  0.0527  0.1497
 5885TIP3    H139070   6.762   4.173   6.001  2.1322 -0.6018  0.4376
 5885TIP3    H239071   6.786   4.072   5.891  0.0080 -0.3260 -0.3324
 5886TIP3   OH239072   1.449   2.007  14.421  0.4651  1.2305 -0.4283
 5886TIP3    H139073   1.529   1.971  14.459 -0.3896 -0.2044  0.0843
 5886TIP3    H239074   1.411   1.935  14.371 -1.8476  0.9828  1.4879
 5887TIP3   OH239075   0.196   3.146  15.620  0.2366  0.2794  0.1967
 5887TIP3    H139076   0.116   3.161  15.671  0.9215 -2.5687  2.3524
 5887TIP3    H239077   0.265   3.191  15.670  1.0112 -3.0022  2.4343
 5888TIP3   OH239078   1.882   5.862  14.954  0.3901  0.2232  0.3455
 5888TIP3    H139079   1.841   5.937  14.999  1.4507  1.4470 -0.6523
 5888TIP3    H239080   1.974   5.869  14.976  0.6330 -0.2765 -0.4788
 5889TIP3   OH239081   5.824   3.051  16.801 -0.0701 -0.5328  0.2159
 5889TIP3    H139082   5.773   3.126  16.770 -0.5673 -1.3348 -0.9417
 5889TIP3    H239083   5.914   3.071  16.775 -0.4598 -1.1625 -1.8132
 5890TIP3   OH239084   2.270   3.713   0.883 -0.8604 -0.2918 -0.9074
 5890TIP3    H139085   2.197   3.664   0.922 -1.7608 -0.8308 -3.1398
 5890TIP3    H239086   2.282   3.673   0.797  1.0821  0.8120 -1.1845
 5891TIP3   OH239087   6.637   6.159  11.944 -0.0648 -0.2902 -0.2288
 5891TIP3    H139088   6.727   6.147  11.974  0.2848  1.4780 -0.4403
 5891TIP3    H239089   6.583   6.140  12.021  0.6728  1.4145  0.7895
 5892TIP3   OH239090   3.350   3.660  15.083  0.0471 -0.0651  0.5140
 5892TIP3    H139091   3.299   3.708  15.148  1.0164  1.0498  0.4839
 5892TIP3    H239092   3.345   3.713  15.004 -0.3576 -0.9435 -0.0662
 5893TIP3   OH239093   4.948   4.668   0.771 -0.3749 -0.3059 -0.0967
 5893TIP3    H139094   4.908   4.581   0.774  0.2328 -0.5622  1.2699
 5893TIP3    H239095   4.906   4.715   0.843 -0.2849  0.3651 -0.4741
 5894TIP3   OH239096   2.405   2.864  16.405  0.7147 -0.5699 -0.4743
 5894TIP3    H139097   2.340   2.845  16.337  0.6487 -1.7979 -0.1003
 5894TIP3    H239098   2.370   2.822  16.484  1.2662 -0.0077  0.0806
 5895TIP3   OH239099   5.709   0.174   4.802 -0.3840  0.3004  0.7285
 5895TIP3    H139100   5.667   0.195   4.718  0.1337  1.7738  0.8053
 5895TIP3    H239101   5.754   0.091   4.786  0.5537  1.0498 -0.8065
 5896TIP3   OH239102   1.496   5.664   2.033  0.2139 -0.5853  0.5110
 5896TIP3    H139103   1.547   5.658   2.114  0.9499  0.6671  0.1662
 5896TIP3    H239104   1.417   5.612   2.050  2.0633 -3.5228  0.6594
 5897TIP3   OH239105   3.222   0.576  16.546  0.4190 -0.2183  0.1446
 5897TIP3    H139106   3.191   0.486  16.537  0.5763 -0.3349  0.7524
 5897TIP3    H239107   3.192   0.604  16.632  1.7190 -0.2398  0.6315
 5898TIP3   OH239108   2.998   3.967   3.196 -0.3168 -0.4895 -0.5377
 5898TIP3    H139109   3.032   3.982   3.284 -1.6905  0.2098 -0.1032
 5898TIP3    H239110   2.944   3.888   3.204 -0.0493 -0.7076 -0.8650
 5899TIP3   OH239111   5.673   5.151  15.420  0.2914 -0.2442  0.1024
 5899TIP3    H139112   5.716   5.228  15.383 -0.1742 -0.0233  0.0198
 5899TIP3    H239113   5.704   5.078  15.365 -0.8418  0.1510 -1.1230
 5900TIP3   OH239114   0.974   1.961  10.462 -0.2426  0.5561  0.0291
 5900TIP3    H139115   0.999   2.024  10.529  1.3522  1.4428 -1.3108
 5900TIP3    H239116   0.878   1.964  10.460 -0.2312  2.5377  0.4102
 5901TIP3   OH239117   5.279   4.920   1.812  0.1874 -0.1530 -0.5919
 5901TIP3    H139118   5.187   4.896   1.796  0.4481 -0.5193 -1.5846
 5901TIP3    H239119   5.327   4.879   1.741  1.4094 -1.8162  1.0897
 5902TIP3   OH239120   6.758   2.884   5.532 -0.1229 -0.2000  0.0571
 5902TIP3    H139121   6.820   2.896   5.604  1.8915 -3.0714 -1.0258
 5902TIP3    H239122   6.797   2.931   5.459  0.0503 -0.7859 -0.2359
 5903TIP3   OH239123   0.383   5.043   3.097  0.3813 -0.3148  0.0738
 5903TIP3    H139124   0.316   4.977   3.114  1.2503 -0.8317  1.7603
 5903TIP3    H239125   0.449   5.029   3.166  2.4018 -0.0417 -1.6865
 5904TIP3   OH239126   5.809   5.617  16.408 -0.3525 -0.0864 -0.3660
 5904TIP3    H139127   5.779   5.699  16.447 -1.1118 -0.0709 -0.9533
 5904TIP3    H239128   5.833   5.562  16.482 -1.0964  0.1954  0.0942
 5905TIP3   OH239129   0.243   3.178  12.667 -0.5722 -0.5081 -0.4251
 5905TIP3    H139130   0.267   3.270  12.664 -0.4220 -0.5422 -0.2895
 5905TIP3    H239131   0.304   3.139  12.730  0.9538 -1.1624 -2.2054
 5906TIP3   OH239132   6.000   5.005   0.897  0.0311 -0.5465 -0.5868
 5906TIP3    H139133   5.975   5.094   0.923  1.3797  0.1666 -1.5863
 5906TIP3    H239134   6.078   4.986   0.949  0.8548 -0.3796 -1.7365
 5907TIP3   OH239135   2.927   3.786   0.210 -0.2607  0.5192 -0.4191
 5907TIP3    H139136   2.932   3.727   0.286 -2.1377 -1.3258 -1.6060
 5907TIP3    H239137   2.834   3.809   0.205 -0.3154 -0.0023 -2.5503
 5908TIP3   OH239138   5.784   2.357  13.406  0.2776 -0.4591 -0.7082
 5908TIP3    H139139   5.852   2.424  13.396 -0.6343  0.6551  0.2484
 5908TIP3    H239140   5.762   2.333  13.316  0.8582  0.2767 -1.0653
 5909TIP3   OH239141   5.007   0.979   1.898  0.7621 -0.3147 -0.9505
 5909TIP3    H139142   5.026   0.902   1.843  0.0893 -1.2097  0.0302
 5909TIP3    H239143   5.050   0.960   1.981 -3.1605 -1.9190  0.9779
 5910TIP3   OH239144   5.540   3.941   5.537  0.1850  0.5460 -0.0052
 5910TIP3    H139145   5.558   3.952   5.444  0.5980  1.1605  0.1414
 5910TIP3    H239146   5.469   3.876   5.540  1.8626 -1.4218 -0.6226
 5911TIP3   OH239147   4.461   1.675  15.453 -0.0692 -0.9780  0.6405
 5911TIP3    H139148   4.525   1.728  15.405 -0.6490 -1.8425 -1.1912
 5911TIP3    H239149   4.460   1.591  15.406 -2.7562 -0.8976  0.4056
 5912TIP3   OH239150   4.673   4.771  16.433 -0.1023 -0.4439 -0.0894
 5912TIP3    H139151   4.643   4.720  16.509 -0.0568 -0.8701 -0.3525
 5912TIP3    H239152   4.594   4.809  16.396 -0.1790 -0.5970 -0.0844
 5913TIP3   OH239153   4.905   1.730  15.408 -0.0494  0.3557 -0.4801
 5913TIP3    H139154   4.929   1.791  15.479 -0.6180 -2.2171  2.1052
 5913TIP3    H239155   4.988   1.693  15.379  0.0701  0.3663 -0.1540
 5914TIP3   OH239156   4.024   6.715   2.653  0.2289  0.1578  0.0985
 5914TIP3    H139157   4.079   6.755   2.586  1.1107  0.9260  1.2593
 5914TIP3    H239158   4.043   6.621   2.647 -1.3526 -0.1053 -2.1790
 5915TIP3   OH239159   5.408   4.574  11.402  0.2993 -0.5226 -0.2717
 5915TIP3    H139160   5.370   4.593  11.316 -0.5839 -1.0862 -0.0147
 5915TIP3    H239161   5.345   4.608  11.465  0.5578 -0.8293  0.1627
 5916TIP3   OH239162   1.060   5.971   5.492 -0.1594 -0.1901 -0.0096
 5916TIP3    H139163   1.064   6.002   5.583  0.3018 -0.1172 -0.0514
 5916TIP3    H239164   1.064   5.876   5.499  0.7125 -0.1614  0.0131
 5917TIP3   OH239165   0.577   2.231   1.050  0.1961 -0.2287 -0.1779
 5917TIP3    H139166   0.538   2.243   1.137 -1.1771 -1.4754 -0.5852
 5917TIP3    H239167   0.545   2.306   0.999  0.2669  0.0178  0.1362
 5918TIP3   OH239168   1.471   4.765  16.114 -0.3624  0.2587 -0.0862
 5918TIP3    H139169   1.514   4.680  16.112 -1.2760 -0.2105 -0.5903
 5918TIP3    H239170   1.405   4.760  16.045 -1.5644  0.7545  0.9883
 5919TIP3   OH239171   4.579   5.902   3.455 -0.3202 -0.0839  0.3070
 5919TIP3    H139172   4.650   5.937   3.401 -0.8005  1.5935  0.7181
 5919TIP3    H239173   4.605   5.811   3.472  1.5502  0.3752  0.1568
 5920TIP3   OH239174   3.767   0.019   0.653 -0.0177 -0.0539 -0.6286
 5920TIP3    H139175   3.702  -0.002   0.720  0.7854 -0.4205  0.0520
 5920TIP3    H239176   3.730   0.092   0.605 -0.5241  0.3428  0.3439
 5921TIP3   OH239177   4.671   3.818  12.591  0.4440 -0.2596  0.4894
 5921TIP3    H139178   4.646   3.817  12.684  0.4772  2.8171  0.6402
 5921TIP3    H239179   4.591   3.845  12.545  0.6207 -1.0630 -0.3114
 5922TIP3   OH239180   5.255   4.068   1.673  0.6783 -0.1356  0.1737
 5922TIP3    H139181   5.208   3.995   1.715 -2.1251  1.2773 -0.2866
 5922TIP3    H239182   5.232   4.061   1.580  0.6829  1.0817  0.0658
 5923TIP3   OH239183   0.086   4.944   4.448 -0.0720 -0.0299 -0.6623
 5923TIP3    H139184   0.007   4.914   4.404 -0.0248 -1.1921 -0.0178
 5923TIP3    H239185   0.131   4.863   4.474  2.4706  0.5016 -2.9349
 5924TIP3   OH239186   4.745   4.511  16.182  0.2075 -0.2343  0.6542
 5924TIP3    H139187   4.818   4.566  16.209  1.2747 -0.8036 -0.9510
 5924TIP3    H239188   4.748   4.436  16.242 -0.0043  0.4491  1.5402
 5925TIP3   OH239189   6.627   4.875  11.506 -0.2196 -0.1044 -0.2436
 5925TIP3    H139190   6.651   4.825  11.428  0.5638  0.3337 -0.2961
 5925TIP3    H239191   6.531   4.877  11.505 -0.2322 -0.8330 -0.7247
 5926TIP3   OH239192   3.750   1.277   4.948 -0.2287  0.1022  0.0367
 5926TIP3    H139193   3.782   1.345   5.007  0.0598 -0.8643  1.0285
 5926TIP3    H239194   3.793   1.296   4.864  1.6415 -0.1519  0.8886
 5927TIP3   OH239195   6.676   6.407   3.704  0.9727 -0.3621 -0.6006
 5927TIP3    H139196   6.747   6.470   3.715  1.2205 -0.3891 -1.8383
 5927TIP3    H239197   6.688   6.374   3.615 -0.6669 -0.2908 -0.8708
 5928TIP3   OH239198   5.041   0.232  15.455  0.5074  0.4499  0.1066
 5928TIP3    H139199   5.037   0.166  15.524  0.2055 -0.7839 -1.0566
 5928TIP3    H239200   4.952   0.266  15.449  0.3857  0.0831 -0.1347
 5929TIP3   OH239201   4.065   3.236  11.374  0.3717 -0.3478  0.0134
 5929TIP3    H139202   3.998   3.248  11.307  0.5192 -1.0423 -0.2679
 5929TIP3    H239203   4.017   3.211  11.453  0.1780  0.7163  0.2409
 5930TIP3   OH239204   1.803   4.839  14.233 -0.1433  0.2322 -0.6859
 5930TIP3    H139205   1.744   4.857  14.160  0.8639  1.4004 -1.2456
 5930TIP3    H239206   1.770   4.893  14.305 -1.0399 -0.7987 -0.2845
 5931TIP3   OH239207   5.857   6.147   0.110 -0.0371 -0.1338  0.2441
 5931TIP3    H139208   5.827   6.058   0.090  0.1665 -0.0620 -0.4026
 5931TIP3    H239209   5.941   6.135   0.153 -1.4186 -0.3930  3.0938
 5932TIP3   OH239210   5.586   2.179  11.891 -0.0815 -0.5326 -0.0639
 5932TIP3    H139211   5.589   2.085  11.870 -0.8207 -0.7236  0.6179
 5932TIP3    H239212   5.498   2.192  11.927  0.7205 -0.0132  1.8164
 5933TIP3   OH239213   0.480   4.234  14.349  0.2263 -0.2692  0.6240
 5933TIP3    H139214   0.563   4.256  14.305  0.6388  0.4712  1.7385
 5933TIP3    H239215   0.467   4.141  14.329  1.3319 -0.4037  0.4389
 5934TIP3   OH239216   4.110   2.316   2.404 -0.1627 -0.6284  0.3105
 5934TIP3    H139217   4.040   2.253   2.422  0.1705 -1.7704 -2.0017
 5934TIP3    H239218   4.096   2.341   2.313  1.7028  0.0815  0.1906
 5935TIP3   OH239219   1.423   1.222  10.496  0.1397 -0.0830  0.0250
 5935TIP3    H139220   1.495   1.282  10.475 -0.0366 -0.2641 -1.1522
 5935TIP3    H239221   1.455   1.172  10.571  1.5110 -0.5888 -0.8527
 5936TIP3   OH239222   0.253   3.596  13.266  0.1191  0.1890  0.1818
 5936TIP3    H139223   0.301   3.637  13.194 -0.5868  1.1859  0.2667
 5936TIP3    H239224   0.296   3.629  13.345  0.9384 -0.9580  0.2537
 5937TIP3   OH239225   6.549   2.890  14.853  0.3492 -0.0982 -0.0575
 5937TIP3    H139226   6.464   2.871  14.815  1.5954 -2.0943 -2.0551
 5937TIP3    H239227   6.606   2.908  14.778  2.0676 -0.5073  1.0878
 5938TIP3   OH239228   3.331   1.016   5.215 -0.4724 -0.4563 -0.6794
 5938TIP3    H139229   3.389   1.070   5.160 -0.8294  1.1571  0.4535
 5938TIP3    H239230   3.323   0.934   5.167  0.6235  0.2463 -2.1700
 5939TIP3   OH239231   6.751   2.189   1.042 -0.9216 -0.3265  0.0044
 5939TIP3    H139232   6.770   2.214   0.952  0.7179 -1.3692  0.0164
 5939TIP3    H239233   6.774   2.096   1.047  3.5042  0.6283  2.5630
 5940TIP3   OH239234   0.482   4.306   0.376 -0.0555 -0.6509 -0.2630
 5940TIP3    H139235   0.446   4.374   0.433  0.6362  0.2716 -0.9125
 5940TIP3    H239236   0.515   4.240   0.437  0.6642  0.3122  0.4226
 5941TIP3   OH239237   5.153   2.830  12.258 -0.0392  0.2270 -0.0538
 5941TIP3    H139238   5.215   2.891  12.297  1.7329 -0.1604 -2.1105
 5941TIP3    H239239   5.191   2.744  12.273 -1.2802 -0.2277  0.6592
 5942TIP3   OH239240   2.227   5.943   3.661 -0.0031 -0.1026  0.1016
 5942TIP3    H139241   2.175   5.864   3.672  0.4225 -0.1316  2.5507
 5942TIP3    H239242   2.179   6.011   3.708  0.1123  0.8888 -1.1585
 5943TIP3   OH239243   3.691   5.615   0.309  0.0136  0.0053  0.0875
 5943TIP3    H139244   3.665   5.563   0.233  0.7266  0.0416 -0.1887
 5943TIP3    H239245   3.785   5.598   0.319  0.1833  0.9684  0.2014
 5944TIP3   OH239246   4.618   3.996   4.349 -0.0857 -0.0890 -0.5763
 5944TIP3    H139247   4.523   3.989   4.338 -0.2191 -2.0405  1.1203
 5944TIP3    H239248   4.654   3.968   4.265 -1.0261 -1.0677 -0.6830
 5945TIP3   OH239249   0.035   5.200   4.374 -0.3525 -0.7040 -0.6057
 5945TIP3    H139250   0.104   5.249   4.418 -0.8145 -1.2607  0.7960
 5945TIP3    H239251   0.049   5.110   4.400 -1.8446 -0.7734  0.0515
 5946TIP3   OH239252   3.950   5.429  13.437  0.8427  0.8986  0.4132
 5946TIP3    H139253   3.915   5.340  13.437 -0.5645  1.4266  0.9296
 5946TIP3    H239254   3.895   5.476  13.374  2.0701  1.2479 -0.4492
 5947TIP3   OH239255   1.975   4.212  12.985 -0.2077 -0.5253 -0.1070
 5947TIP3    H139256   2.009   4.299  12.965  1.2667 -1.2148 -0.7368
 5947TIP3    H239257   2.050   4.154  12.974 -1.0658 -1.8361  0.6895
 5948TIP3   OH239258   4.132   2.497  12.559 -0.5651 -0.3485  0.0237
 5948TIP3    H139259   4.160   2.456  12.477 -0.1366  0.6772 -0.3597
 5948TIP3    H239260   4.154   2.589  12.548  0.5102 -0.3587  1.7350
 5949TIP3   OH239261   1.318   3.113   5.997 -0.4046  0.6937 -0.0604
 5949TIP3    H139262   1.373   3.034   6.001 -1.6487 -0.2479 -0.7882
 5949TIP3    H239263   1.377   3.182   5.967  0.2280 -0.4648 -1.6558
 5950TIP3   OH239264   6.690   5.268  12.902 -0.7979 -0.3927 -0.3605
 5950TIP3    H139265   6.641   5.188  12.921 -1.8772 -0.0667 -1.5958
 5950TIP3    H239266   6.731   5.252  12.817  0.1219 -0.1260  0.0132
 5951TIP3   OH239267   2.575   0.904  14.752 -0.3662 -0.3385 -0.2215
 5951TIP3    H139268   2.560   0.820  14.707 -2.4102  0.6480 -1.5571
 5951TIP3    H239269   2.488   0.931  14.780  0.0849  1.7907 -0.7119
 5952TIP3   OH239270   5.323   5.619   1.340  0.3194 -0.2405 -0.5435
 5952TIP3    H139271   5.348   5.652   1.426 -0.9391 -4.2288  1.5855
 5952TIP3    H239272   5.380   5.666   1.279  2.1592  1.8716  2.5252
 5953TIP3   OH239273   0.661   4.689  13.269 -0.6019  0.4918  0.4403
 5953TIP3    H139274   0.595   4.704  13.201 -0.9270  1.9001  1.0233
 5953TIP3    H239275   0.738   4.659  13.222 -1.0248  0.8001 -0.4761
 5954TIP3   OH239276   6.251   2.312  10.558  0.7880 -0.3029  0.4668
 5954TIP3    H139277   6.250   2.277  10.469  0.1271 -0.4060  0.5117
 5954TIP3    H239278   6.199   2.250  10.609 -1.2401  1.2113  0.3533
 5955TIP3   OH239279   5.255   4.453   6.016  0.2433  0.1101 -0.1186
 5955TIP3    H139280   5.180   4.436   5.959  0.6516 -0.0430 -0.6128
 5955TIP3    H239281   5.218   4.500   6.091 -0.4627 -0.5620 -0.0306
 5956TIP3   OH239282   1.032   3.194   4.762 -0.2612 -0.1808 -0.1000
 5956TIP3    H139283   0.938   3.188   4.782 -0.3136 -0.0891 -0.3180
 5956TIP3    H239284   1.065   3.261   4.822 -0.4065  0.0535 -0.2820
 5957TIP3   OH239285   1.693   2.427  13.371  0.2604 -0.4390 -0.1305
 5957TIP3    H139286   1.662   2.518  13.369  0.9707 -0.1320  1.2368
 5957TIP3    H239287   1.777   2.430  13.325  0.7646 -0.1750  0.7764
 5958TIP3   OH239288   6.075   4.728   5.568  0.2752 -0.0160 -0.1770
 5958TIP3    H139289   6.022   4.668   5.621  0.8423  0.6042  1.1623
 5958TIP3    H239290   6.054   4.815   5.603  1.2845  0.3405 -0.4141
 5959TIP3   OH239291   2.140   0.383   5.546  0.7326  0.2768  0.2195
 5959TIP3    H139292   2.065   0.344   5.500  0.5306  2.0402 -1.0432
 5959TIP3    H239293   2.183   0.309   5.588 -0.8442 -0.9930 -0.2955
 5960TIP3   OH239294   6.306   2.755   5.039  0.1210  0.1387  0.1292
 5960TIP3    H139295   6.348   2.670   5.030  0.4050  0.2796  0.1171
 5960TIP3    H239296   6.320   2.799   4.955 -1.1865 -0.3125 -0.3597
 5961TIP3   OH239297   6.652   5.131   6.186  0.3361  0.3624 -0.0997
 5961TIP3    H139298   6.562   5.154   6.209  0.2649  0.6271 -0.6206
 5961TIP3    H239299   6.644   5.078   6.107  0.6865  1.2483 -0.7457
 5962TIP3   OH239300   2.904   2.911   1.748  0.2679  0.5688 -0.6622
 5962TIP3    H139301   2.925   2.820   1.771  0.1531  1.0817  1.7661
 5962TIP3    H239302   2.830   2.904   1.688  0.5169 -0.9391 -0.8435
 5963TIP3   OH239303   3.868   2.546  12.689  0.7225 -0.4295 -0.1158
 5963TIP3    H139304   3.955   2.506  12.699  0.8395 -0.2236 -0.2879
 5963TIP3    H239305   3.848   2.536  12.596  0.5090 -0.5852 -0.0525
 5964TIP3   OH239306   4.113   4.485   6.008 -0.2258  0.0919 -0.4111
 5964TIP3    H139307   4.053   4.458   5.939  0.0300 -2.1727  0.1778
 5964TIP3    H239308   4.186   4.423   6.002  1.6373  2.1762 -0.4861
 5965TIP3   OH239309   3.468   5.730   1.889  0.2919  0.3463  0.0139
 5965TIP3    H139310   3.479   5.776   1.805 -0.8293  1.8983  0.6600
 5965TIP3    H239311   3.383   5.761   1.922 -0.4163 -2.0827  0.6211
 5966TIP3   OH239312   0.827   0.067   5.626  0.5733 -0.1185 -0.1775
 5966TIP3    H139313   0.843   0.117   5.705  0.0931  1.8108 -1.2246
 5966TIP3    H239314   0.897   0.093   5.566  1.6321 -2.4471 -0.0363
 5967TIP3   OH239315   5.314   1.575  15.704  0.1760  0.2321  0.9201
 5967TIP3    H139316   5.374   1.639  15.665  1.0456 -0.5982  0.8819
 5967TIP3    H239317   5.335   1.493  15.661 -2.2437  0.2335 -0.4592
 5968TIP3   OH239318   6.222   1.548  17.219  0.4082 -0.3017  0.0721
 5968TIP3    H139319   6.287   1.570  17.286  0.1429 -0.2504  0.3150
 5968TIP3    H239320   6.153   1.614  17.231 -1.1653 -2.1301  1.8357
 5969TIP3   OH239321   5.425   4.701  16.215 -0.0310 -0.6138 -0.2380
 5969TIP3    H139322   5.405   4.766  16.148 -1.6198 -1.2563 -0.4348
 5969TIP3    H239323   5.435   4.619  16.166  1.8583 -0.5741  0.0152
 5970TIP3   OH239324   4.459   0.943  13.462  0.2997 -0.7908  0.5914
 5970TIP3    H139325   4.378   0.942  13.411  1.1972 -1.6368 -0.8714
 5970TIP3    H239326   4.472   1.035  13.484 -0.7564 -0.5698  0.3603
 5971TIP3   OH239327   0.388   1.925  11.353 -0.3206 -0.1083 -0.2518
 5971TIP3    H139328   0.339   1.936  11.272 -0.0551  0.8106 -0.2981
 5971TIP3    H239329   0.439   2.005  11.362 -1.2984  0.3798  1.4803
 5972TIP3   OH239330   0.011   4.697   2.632 -0.4684 -0.1014  0.1836
 5972TIP3    H139331  -0.060   4.751   2.597  0.0253  0.0149 -0.6594
 5972TIP3    H239332  -0.013   4.607   2.609 -1.6016 -0.3670  2.1187
 5973TIP3   OH239333   1.788   5.410   2.121 -0.5152 -0.0040  0.1739
 5973TIP3    H139334   1.711   5.405   2.065 -0.5338  2.6176 -0.1505
 5973TIP3    H239335   1.757   5.452   2.201  0.6118  1.4393 -0.1062
 5974TIP3   OH239336   1.555   2.601  15.825  0.3079 -0.1210  0.6689
 5974TIP3    H139337   1.464   2.625  15.805 -0.3674 -0.7585  2.6929
 5974TIP3    H239338   1.604   2.622  15.745 -2.0007 -2.0610 -1.4196
 5975TIP3   OH239339   3.469   4.024   1.466 -0.0694 -0.6370 -0.1992
 5975TIP3    H139340   3.381   4.049   1.496  0.4832  0.2572  0.7287
 5975TIP3    H239341   3.470   3.929   1.470 -0.3052 -0.5931  1.8694
 5976TIP3   OH239342   2.625   3.882   4.663 -0.3257 -0.0752  0.2806
 5976TIP3    H139343   2.629   3.853   4.754  1.0368  2.0622  0.9732
 5976TIP3    H239344   2.531   3.892   4.644 -0.5998  0.2020  1.7169
 5977TIP3   OH239345   6.019   4.611  12.171  0.6624 -0.4887  0.2384
 5977TIP3    H139346   6.090   4.674  12.157  0.3066  0.3909  2.0865
 5977TIP3    H239347   5.957   4.629  12.100  1.1297  0.4025  0.0356
 5978TIP3   OH239348   2.654   3.442  13.396  0.0493  0.0337  0.0987
 5978TIP3    H139349   2.679   3.452  13.304  1.0811  0.4890  0.4055
 5978TIP3    H239350   2.643   3.532  13.427 -1.4022 -0.1436  0.1450
 5979TIP3   OH239351   0.719   6.447   2.472 -0.0261 -0.2468 -0.1915
 5979TIP3    H139352   0.636   6.440   2.424  0.0452  0.0420 -0.3668
 5979TIP3    H239353   0.778   6.389   2.425  0.5282  1.3019 -1.5490
 5980TIP3   OH239354   0.155   2.212  16.274 -0.6169 -0.2602 -0.6011
 5980TIP3    H139355   0.110   2.286  16.233 -0.4404  0.7033  0.8583
 5980TIP3    H239356   0.129   2.136  16.222 -0.7188  0.8278 -2.2169
 5981TIP3   OH239357   3.988   2.340  15.665 -0.1175 -0.4762  0.5549
 5981TIP3    H139358   3.980   2.395  15.588  0.2790  0.7220  1.3452
 5981TIP3    H239359   3.897   2.319  15.689 -0.3631  1.1218  1.1272
 5982TIP3   OH239360   2.645   5.893  15.116  0.1055  0.2852  0.1333
 5982TIP3    H139361   2.551   5.889  15.099  0.1786  0.5176 -0.3452
 5982TIP3    H239362   2.683   5.831  15.055  0.3738  1.1200 -0.5615
 5983TIP3   OH239363   3.856   4.057   0.846  0.1762  0.2039  0.1906
 5983TIP3    H139364   3.786   3.994   0.867  1.4808 -1.4372 -0.1756
 5983TIP3    H239365   3.841   4.080   0.755 -1.2386  1.7169  0.7566
 5984TIP3   OH239366   1.307   0.582  15.684 -0.6736  0.1511  0.1043
 5984TIP3    H139367   1.375   0.641  15.717 -1.8034  0.6474  1.6370
 5984TIP3    H239368   1.340   0.494  15.703  1.5616  0.0960 -3.2337
 5985TIP3   OH239369   5.646   6.393   0.445 -0.2574 -0.7859  0.5685
 5985TIP3    H139370   5.670   6.473   0.491 -1.2892 -0.0710 -0.0931
 5985TIP3    H239371   5.592   6.344   0.507  0.5309 -1.0855  1.0414
 5986TIP3   OH239372   1.895   2.889  12.929 -0.1881  0.4945 -0.3629
 5986TIP3    H139373   1.828   2.951  12.957 -0.8439 -0.7834  0.9845
 5986TIP3    H239374   1.847   2.819  12.885  0.3371 -0.0430 -0.0890
 5987TIP3   OH239375   4.478   3.990   6.310 -0.2201 -0.1021 -0.3448
 5987TIP3    H139376   4.568   3.971   6.337 -0.3474 -0.4816 -0.1770
 5987TIP3    H239377   4.477   4.084   6.292  0.0476  0.0262  0.2980
 5988TIP3   OH239378   3.232   0.694   2.058  0.2672  0.0630 -0.1350
 5988TIP3    H139379   3.296   0.697   1.987 -0.4948  1.6914 -0.8093
 5988TIP3    H239380   3.163   0.636   2.027 -0.1060  0.8374 -0.7946
 5989TIP3   OH239381   2.643   1.293   4.951  0.7101  0.0719 -0.2921
 5989TIP3    H139382   2.561   1.332   4.922  0.5538  0.7758  1.0352
 5989TIP3    H239383   2.631   1.277   5.044  1.7739 -0.6431 -0.2514
 5990TIP3   OH239384   4.764   5.268  15.068 -0.0161  0.1153  0.2980
 5990TIP3    H139385   4.756   5.205  15.140 -0.0330  1.3220  1.3865
 5990TIP3    H239386   4.676   5.305  15.060  0.1827  0.5712  0.2097
 5991TIP3   OH239387   2.782   2.935   3.313  0.0631  0.1551 -0.5404
 5991TIP3    H139388   2.828   2.977   3.386  0.2185  0.4245 -0.7868
 5991TIP3    H239389   2.744   3.008   3.264  0.2679  0.0028 -0.9323
 5992TIP3   OH239390   0.450   2.099   3.530  0.0919  0.4134  0.0105
 5992TIP3    H139391   0.471   2.094   3.623  1.8816 -1.1158 -0.4104
 5992TIP3    H239392   0.513   2.163   3.495 -0.4956  0.8903 -0.1901
 5993TIP3   OH239393   4.801   6.262  10.486  0.2217 -0.0912 -0.0666
 5993TIP3    H139394   4.723   6.261  10.430 -2.2876 -0.1355  3.1266
 5993TIP3    H239395   4.823   6.170  10.498  1.9399 -0.0618 -2.2522
 5994TIP3   OH239396   1.391   1.780  14.256 -0.0174 -0.5560  0.7363
 5994TIP3    H139397   1.400   1.858  14.202 -0.7781 -0.7318  0.3374
 5994TIP3    H239398   1.438   1.712  14.209 -2.1175 -1.1453 -0.6542
 5995TIP3   OH239399   1.598   1.404   3.017 -0.1628 -0.3233 -0.1388
 5995TIP3    H139400   1.512   1.428   2.983 -0.2785  1.0066  1.0364
 5995TIP3    H239401   1.610   1.457   3.095  1.2751 -1.2809  0.3508
 5996TIP3   OH239402   5.395   5.911  12.018  0.2162 -0.2006  0.2129
 5996TIP3    H139403   5.434   5.831  12.053  0.4838 -0.3149 -0.3380
 5996TIP3    H239404   5.300   5.896  12.025  0.2621 -0.6236 -0.0123
 5997TIP3   OH239405   1.709   1.569  14.285  0.0559 -0.1703 -0.2353
 5997TIP3    H139406   1.630   1.522  14.259  0.2154 -1.7765  1.9714
 5997TIP3    H239407   1.762   1.504  14.332  2.4995  0.9729 -1.2178
 5998TIP3   OH239408   0.975   6.730   4.427  0.0928 -0.3855  0.1379
 5998TIP3    H139409   1.001   6.640   4.407  0.8944  0.0972 -1.1178
 5998TIP3    H239410   0.992   6.740   4.521 -3.6685 -2.7054  1.2711
 5999TIP3   OH239411   5.308   5.566  13.382  0.0022 -0.3404  0.2855
 5999TIP3    H139412   5.349   5.503  13.322 -1.1988 -1.0862  0.2124
 5999TIP3    H239413   5.316   5.649  13.336  1.6589 -0.3891  0.4012
 6000TIP3   OH239414   2.709   4.892   5.012  0.2332 -0.3321  0.3261
 6000TIP3    H139415   2.759   4.812   5.025  0.1524 -0.2570  1.1304
 6000TIP3    H239416   2.630   4.863   4.965  0.2691 -0.6970  0.4902
 6001TIP3   OH239417   2.914   1.033   4.955 -0.0944  0.0803  0.1116
 6001TIP3    H139418   2.835   1.045   5.008  0.1495  0.1251  0.4721
 6001TIP3    H239419   2.983   1.076   5.005 -0.0819  1.1976 -0.8340
 6002TIP3   OH239420   3.098   3.997  15.072 -0.0429  0.4046  0.2433
 6002TIP3    H139421   3.097   4.022  15.165  0.8902  2.2194 -0.1700
 6002TIP3    H239422   3.191   3.988  15.051 -0.2654 -0.4414 -0.4203
 6003TIP3   OH239423   5.939   4.815  16.019  0.6003 -0.4589  0.2088
 6003TIP3    H139424   5.917   4.723  16.031  2.9297 -1.4612 -2.2609
 6003TIP3    H239425   6.011   4.830  16.081  0.3596 -0.3291  0.4618
 6004TIP3   OH239426   2.512   1.103  14.321  0.6577  0.4039  0.0247
 6004TIP3    H139427   2.553   1.189  14.315  0.1428  0.7399  1.1220
 6004TIP3    H239428   2.537   1.070  14.407  1.1010 -0.6867 -0.5042
 6005TIP3   OH239429   5.792   4.373  12.256  0.6222  0.5389 -0.0344
 6005TIP3    H139430   5.848   4.308  12.298  0.0339 -1.4149 -2.0457
 6005TIP3    H239431   5.841   4.455  12.262  2.9505 -0.7401 -0.2823
 6006TIP3   OH239432   4.230   2.393   5.712  0.0793 -0.2423  0.2992
 6006TIP3    H139433   4.156   2.383   5.772  1.2702 -0.4697  1.8156
 6006TIP3    H239434   4.214   2.476   5.668 -0.4166  0.4002  1.6230
 6007TIP3   OH239435   2.645   1.677  13.758 -0.3172 -0.3159 -0.0773
 6007TIP3    H139436   2.590   1.750  13.730 -1.7291 -0.7438  1.4505
 6007TIP3    H239437   2.722   1.719  13.797  0.4441  0.2869 -2.1018
 6008TIP3   OH239438   3.421   5.438  16.822 -0.2940 -0.0932  0.1989
 6008TIP3    H139439   3.375   5.420  16.904  0.1731 -1.3115  0.2232
 6008TIP3    H239440   3.442   5.351  16.787 -1.1575  0.3751 -1.6026
 6009TIP3   OH239441   6.292   3.990   6.775 -0.1692 -1.1397  0.0101
 6009TIP3    H139442   6.361   3.992   6.841 -1.0435  0.4772  0.9603
 6009TIP3    H239443   6.338   3.988   6.691  1.1056  0.7784  0.5791
 6010TIP3   OH239444   1.227   5.727   1.344 -0.2957  0.1376  0.0069
 6010TIP3    H139445   1.203   5.635   1.334 -1.1372  0.1826  1.3988
 6010TIP3    H239446   1.180   5.756   1.422  1.2726  1.2995  0.5718
 6011TIP3   OH239447   6.463   0.150   2.579 -0.3984  0.6178  0.0555
 6011TIP3    H139448   6.545   0.171   2.534  0.0766 -2.2838 -0.6413
 6011TIP3    H239449   6.491   0.112   2.663 -1.1149  1.2487  0.5922
 6012TIP3   OH239450   1.505   0.660  16.279  0.0558  0.2690  0.2559
 6012TIP3    H139451   1.475   0.619  16.197 -0.4589 -0.6196  0.8718
 6012TIP3    H239452   1.546   0.589  16.328 -0.0365  0.7001  0.9720
 6013TIP3   OH239453   0.215   4.589  11.585  0.0892 -0.7002  0.4450
 6013TIP3    H139454   0.225   4.543  11.668  3.2457 -2.2831 -0.6426
 6013TIP3    H239455   0.196   4.679  11.609  2.3666 -0.7904  2.9879
 6014TIP3   OH239456   0.713   1.594  17.319 -0.1091 -0.7965 -0.2418
 6014TIP3    H139457   0.642   1.656  17.337  0.2310 -0.6870  0.7783
 6014TIP3    H239458   0.680   1.541  17.246 -1.0435 -0.4382 -0.0982
 6015TIP3   OH239459   2.014   5.688   4.105  0.7694 -0.3995 -0.4227
 6015TIP3    H139460   2.047   5.757   4.162 -0.8712  1.5126 -1.6472
 6015TIP3    H239461   1.924   5.673   4.134  0.8593 -1.5205 -0.6570
 6016TIP3   OH239462   4.772   0.279  11.874  0.4505 -0.5172 -0.0331
 6016TIP3    H139463   4.698   0.295  11.816  0.8941 -0.3534 -0.5607
 6016TIP3    H239464   4.732   0.249  11.956 -0.3246  1.2527  0.2959
 6017TIP3   OH239465   4.307   1.591   4.474  0.0397 -0.7901  0.0929
 6017TIP3    H139466   4.340   1.536   4.546  0.7339 -2.1448 -1.2128
 6017TIP3    H239467   4.327   1.680   4.501  0.8787 -1.3101  1.2807
 6018TIP3   OH239468   6.229   1.658   4.783  0.3280  0.2969  0.0480
 6018TIP3    H139469   6.290   1.605   4.733 -0.3426 -0.8501  0.4017
 6018TIP3    H239470   6.177   1.704   4.717  0.7654  0.3426 -0.2673
 6019TIP3   OH239471   0.935   2.325   3.915 -0.4750  0.4847 -0.1218
 6019TIP3    H139472   0.927   2.240   3.872 -0.1732  0.6697 -0.5495
 6019TIP3    H239473   0.872   2.322   3.987  0.9229 -0.8817  1.1118
 6020TIP3   OH239474   6.499   2.826   5.606  0.1984  0.1520 -0.4121
 6020TIP3    H139475   6.574   2.864   5.561  0.2284 -0.8864 -1.2868
 6020TIP3    H239476   6.531   2.743   5.640 -0.0461  0.5632  0.8829
 6021TIP3   OH239477   4.862   3.207   6.380 -0.2570 -0.2028 -0.2194
 6021TIP3    H139478   4.938   3.197   6.437  0.3568 -0.5236 -1.0743
 6021TIP3    H239479   4.793   3.241   6.438  0.8409  1.2103  0.3164
 6022TIP3   OH239480   0.224   0.804  13.894 -0.3859 -0.4333 -0.3242
 6022TIP3    H139481   0.200   0.719  13.856  0.4978 -1.8898  2.1210
 6022TIP3    H239482   0.177   0.806  13.977 -0.6487  1.6939 -0.4754
 6023TIP3   OH239483   0.883   6.239   2.179  0.5856 -0.0931  0.5205
 6023TIP3    H139484   0.940   6.264   2.106 -0.7999  2.0810  0.0656
 6023TIP3    H239485   0.827   6.170   2.143 -2.4133  3.1747 -1.8710
 6024TIP3   OH239486   6.693   5.098   0.325  0.2872 -0.2100 -0.3171
 6024TIP3    H139487   6.704   5.058   0.238 -3.2275 -0.5420 -0.7501
 6024TIP3    H239488   6.601   5.126   0.327  0.8053  1.6684  2.5697
 6025TIP3   OH239489   5.786   0.568   2.850 -0.1387  0.5616 -0.3638
 6025TIP3    H139490   5.696   0.594   2.828  0.4328  0.8988 -2.5647
 6025TIP3    H239491   5.807   0.619   2.928 -1.0165  2.4790 -1.2934
 6026TIP3   OH239492   1.806   5.953   0.546  0.1596 -0.3937 -0.2533
 6026TIP3    H139493   1.816   5.886   0.478 -3.8388 -0.5366 -0.9549
 6026TIP3    H239494   1.787   6.033   0.497 -0.6836 -0.0259  0.6551
 6027TIP3   OH239495   1.132   4.210   5.170 -0.6058 -0.1436 -0.3875
 6027TIP3    H139496   1.160   4.167   5.251  0.5480  1.5382  0.1564
 6027TIP3    H239497   1.072   4.147   5.129  0.9191 -2.2288  0.3864
 6028TIP3   OH239498   2.948   1.872   3.589  0.0956 -0.2935  0.1887
 6028TIP3    H139499   2.882   1.823   3.539  0.0171 -0.9356  0.8984
 6028TIP3    H239500   3.028   1.820   3.580  0.1608 -0.2396  0.4362
 6029TIP3   OH239501   4.579   0.192   0.855 -0.2958  0.0270 -0.2276
 6029TIP3    H139502   4.487   0.220   0.864 -0.3706 -0.5532  1.1751
 6029TIP3    H239503   4.627   0.248   0.916  0.0003 -0.8097  0.3410
 6030TIP3   OH239504   1.875   1.945   2.175 -0.1485  0.5426  0.1164
 6030TIP3    H139505   1.916   1.859   2.163  1.3581  1.3765 -0.9242
 6030TIP3    H239506   1.781   1.928   2.165  0.2266 -0.7125 -1.7972
 6031TIP3   OH239507   4.960   6.574  16.506 -0.3257  0.0886 -0.2071
 6031TIP3    H139508   4.897   6.621  16.561 -1.5540 -0.7191 -0.8678
 6031TIP3    H239509   4.964   6.626  16.426  1.5503  1.3271  0.6359
 6032TIP3   OH239510   6.676   3.725   2.238  0.4813 -0.2065 -0.9829
 6032TIP3    H139511   6.647   3.703   2.327 -1.3664  0.3481 -1.4055
 6032TIP3    H239512   6.608   3.690   2.181  0.0428  2.1269 -1.9761
 6033TIP3   OH239513   4.155   1.976  13.043 -0.0049  0.2174 -0.5724
 6033TIP3    H139514   4.148   2.071  13.039 -0.4848  0.2217  0.1679
 6033TIP3    H239515   4.202   1.952  12.963  2.3359  1.2885  0.3731
 6034TIP3   OH239516   4.558   3.143  15.490 -0.0015 -0.0373  0.7728
 6034TIP3    H139517   4.571   3.179  15.403  0.3443 -0.3794  0.6781
 6034TIP3    H239518   4.569   3.217  15.549 -1.4885  0.4756  0.4735
 6035TIP3   OH239519   2.071   6.222   5.396 -0.7384 -0.3566  0.4646
 6035TIP3    H139520   2.134   6.156   5.369 -1.3504 -0.7293 -0.0853
 6035TIP3    H239521   2.023   6.244   5.316 -1.4219 -0.2140  0.9004
 6036TIP3   OH239522   5.618   0.896   5.958 -0.3458  0.4787 -0.4225
 6036TIP3    H139523   5.587   0.980   5.994 -1.5371 -0.2027  0.2223
 6036TIP3    H239524   5.600   0.833   6.027 -2.0227 -0.7589 -1.8800
 6037TIP3   OH239525   4.647   3.515  15.854 -0.0914  0.2262 -0.3732
 6037TIP3    H139526   4.740   3.512  15.877  0.5785 -1.4968 -2.8578
 6037TIP3    H239527   4.605   3.458  15.919  0.6251  0.6622  0.5011
 6038TIP3   OH239528   2.359   4.808   4.619  0.5896  0.2396 -0.1190
 6038TIP3    H139529   2.404   4.816   4.535  1.5542 -2.0212  0.1170
 6038TIP3    H239530   2.427   4.820   4.685 -0.1627  2.0172  0.4038
 6039TIP3   OH239531   5.261   1.859   3.275  0.3345  0.0236 -0.0142
 6039TIP3    H139532   5.235   1.778   3.318  2.1739 -0.3758  0.4346
 6039TIP3    H239533   5.291   1.916   3.347  0.9967  0.3139 -0.5024
 6040TIP3   OH239534   5.926   4.650  14.403  0.2353  0.2592 -0.5764
 6040TIP3    H139535   5.977   4.598  14.464 -1.6420 -0.2461  0.6469
 6040TIP3    H239536   5.960   4.739  14.412 -1.2695  0.6183  2.7507
 6041TIP3   OH239537   5.992   4.421  11.442 -0.8133  0.2577 -0.1920
 6041TIP3    H139538   5.940   4.502  11.441 -0.2162  0.6669  0.7578
 6041TIP3    H239539   6.021   4.412  11.533  1.2011  0.3231 -0.7881
 6042TIP3   OH239540   5.386   4.387  15.494  0.3967  0.0817  0.3758
 6042TIP3    H139541   5.467   4.351  15.458  1.8153  2.8074  0.5657
 6042TIP3    H239542   5.323   4.380  15.422  1.0294 -1.2404 -0.0854
 6043TIP3   OH239543   3.175   2.996  16.925 -0.2991  0.2336  0.0697
 6043TIP3    H139544   3.236   2.926  16.949  0.0119  0.5422  0.1895
 6043TIP3    H239545   3.174   2.995  16.829 -0.0937  0.2376  0.0670
 6044TIP3   OH239546   2.163   3.410   0.552  0.1286 -0.5446 -0.0181
 6044TIP3    H139547   2.207   3.372   0.476 -0.7992 -1.1617 -0.2500
 6044TIP3    H239548   2.235   3.433   0.612  0.8172 -0.7432 -0.7526
 6045TIP3   OH239549   2.396   2.850   0.202  0.0357 -0.1850 -0.8052
 6045TIP3    H139550   2.347   2.932   0.205  1.8656  0.9649 -0.0402
 6045TIP3    H239551   2.379   2.809   0.287 -0.5642 -0.4038 -1.0283
 6046TIP3   OH239552   4.382   6.469   2.408 -0.1113  0.0376  0.1664
 6046TIP3    H139553   4.311   6.409   2.386 -0.3419  0.3735 -0.0176
 6046TIP3    H239554   4.359   6.551   2.364  0.8733 -0.1227 -0.7102
 6047TIP3   OH239555   0.026   2.759   4.469  0.5451 -0.1198 -0.0519
 6047TIP3    H139556  -0.040   2.709   4.420  1.3046  0.9035 -2.2659
 6047TIP3    H239557   0.023   2.846   4.429  2.2627  0.3297  0.7444
 6048TIP3   OH239558   0.131   4.943  13.981 -0.5455  0.1150  0.5311
 6048TIP3    H139559   0.116   5.005  13.910  0.4579  0.0214  0.2340
 6048TIP3    H239560   0.057   4.882  13.976 -0.1443 -0.2848 -0.8483
 6049TIP3   OH239561   4.167   2.168  13.549 -0.4213  0.0882  0.3390
 6049TIP3    H139562   4.258   2.139  13.551  0.2341  1.9391  0.2055
 6049TIP3    H239563   4.120   2.098  13.504  1.1882 -0.3208 -0.7948
 6050TIP3   OH239564   4.674   1.242  16.378  0.1241  0.7447  0.2644
 6050TIP3    H139565   4.691   1.301  16.452  1.5665 -0.0360  0.5913
 6050TIP3    H239566   4.682   1.298  16.301  3.3777  0.7055  0.4465
 6051TIP3   OH239567   4.706   6.300  14.626  0.0756 -0.6861  0.5441
 6051TIP3    H139568   4.733   6.275  14.537 -0.1484  0.0049  0.2721
 6051TIP3    H239569   4.614   6.275  14.631  0.9690 -4.1580  1.8871
 6052TIP3   OH239570   5.400   3.797   1.289  0.3999 -0.0774  0.6651
 6052TIP3    H139571   5.458   3.744   1.343  1.1101 -0.6059 -0.5640
 6052TIP3    H239572   5.416   3.766   1.200  1.0400  2.3600 -0.1462
 6053TIP3   OH239573   6.398   5.129  12.975  0.8641  0.6057 -0.7313
 6053TIP3    H139574   6.384   5.221  12.999  1.4257  0.4663  0.1714
 6053TIP3    H239575   6.321   5.106  12.923  0.0648  1.2103  0.1480
 6054TIP3   OH239576   1.502   4.175  15.184 -0.1747 -0.0767  0.2547
 6054TIP3    H139577   1.479   4.173  15.091 -1.3236  2.8118  0.3647
 6054TIP3    H239578   1.585   4.223  15.187  0.8618 -1.8083  0.6393
 6055TIP3   OH239579   5.081   3.294  14.059  0.1707  0.2449  0.1377
 6055TIP3    H139580   5.041   3.372  14.097 -2.1877  0.5785 -2.6949
 6055TIP3    H239581   5.082   3.230  14.131  0.6312  2.3118  2.0547
 6056TIP3   OH239582   2.770   0.811   6.213 -0.2101  0.2713  0.3303
 6056TIP3    H139583   2.784   0.735   6.270 -0.0929  0.9241  1.1964
 6056TIP3    H239584   2.840   0.806   6.149 -0.7765 -0.8867 -0.2232
 6057TIP3   OH239585   2.505   5.672  15.618 -0.2289  0.1812  0.0106
 6057TIP3    H139586   2.600   5.668  15.607 -0.1954 -4.0840  0.2104
 6057TIP3    H239587   2.475   5.583  15.600 -4.2585  1.3977 -0.2216
 6058TIP3   OH239588   1.325   4.757   0.227 -0.2101  0.2263 -0.4622
 6058TIP3    H139589   1.294   4.843   0.201 -0.5884  0.5332  0.8902
 6058TIP3    H239590   1.417   4.770   0.249  0.1260 -0.0454 -1.6295
 6059TIP3   OH239591   4.402   4.937  16.082  0.3120 -0.6787  0.2918
 6059TIP3    H139592   4.481   4.906  16.039  0.1513  1.4460 -1.7624
 6059TIP3    H239593   4.366   5.003  16.021 -1.6229  0.2847  2.3300
 6060TIP3   OH239594   3.578   6.190   1.699 -0.3414  0.0425 -0.1997
 6060TIP3    H139595   3.492   6.179   1.658  0.3580  1.3768 -2.2186
 6060TIP3    H239596   3.636   6.133   1.648  0.5997  1.9319 -1.3630
 6061TIP3   OH239597   4.684   2.045   5.985 -0.3783  0.2019  0.3606
 6061TIP3    H139598   4.618   1.993   6.032  0.2769 -1.5235 -0.5496
 6061TIP3    H239599   4.726   2.097   6.053 -1.7639  0.3152  1.1622
 6062TIP3   OH239600   4.121   3.731   1.456 -0.0966 -0.1602 -0.1852
 6062TIP3    H139601   4.092   3.811   1.413 -0.7913  0.3638  1.2060
 6062TIP3    H239602   4.062   3.663   1.421  0.1368  0.0232 -0.9528
 6063TIP3   OH239603   0.303   4.988   1.911  0.0130 -0.3082  0.1564
 6063TIP3    H139604   0.217   5.025   1.931  0.3235  0.7112 -0.3342
 6063TIP3    H239605   0.285   4.903   1.873 -0.8933  0.6874 -1.7554
 6064TIP3   OH239606   5.838   4.345   0.362 -0.0945 -0.4970  0.4239
 6064TIP3    H139607   5.773   4.325   0.294  1.0456 -2.1407 -0.2548
 6064TIP3    H239608   5.838   4.440   0.368 -1.0168 -0.3612 -1.1149
 6065TIP3   OH239609   5.812   6.386   4.693  0.3999 -0.0141 -0.3823
 6065TIP3    H139610   5.888   6.429   4.734 -1.0587  0.9884  1.4350
 6065TIP3    H239611   5.769   6.455   4.644 -1.3155  0.4584  1.6109
 6066TIP3   OH239612   5.766   1.415   4.580 -0.0866  0.0700  0.6035
 6066TIP3    H139613   5.861   1.400   4.580  0.2274  1.8403 -0.0142
 6066TIP3    H239614   5.756   1.508   4.559 -1.9700 -0.0585  0.7412
 6067TIP3   OH239615   5.057   0.398   3.792 -0.6557 -0.5744  0.2443
 6067TIP3    H139616   5.061   0.303   3.780  0.0059 -0.5522  0.2706
 6067TIP3    H239617   5.140   0.420   3.834 -0.3346  0.1619 -0.7668
 6068TIP3   OH239618   5.746   2.657  12.010  0.1455  0.1043 -0.7537
 6068TIP3    H139619   5.822   2.713  12.024  0.8752 -0.8624 -0.7718
 6068TIP3    H239620   5.714   2.637  12.098  0.8925 -0.7933 -0.6757
 6069TIP3   OH239621   4.379   6.076   2.232 -0.3182  0.0128 -0.0768
 6069TIP3    H139622   4.435   6.017   2.182 -0.7147 -0.7772  0.4015
 6069TIP3    H239623   4.393   6.052   2.323 -0.7415  0.4287  0.1030
 6070TIP3   OH239624   4.280   2.706  16.113  0.3472 -0.1750 -0.3404
 6070TIP3    H139625   4.267   2.680  16.022 -1.8825 -1.8758  0.3401
 6070TIP3    H239626   4.191   2.727  16.144  1.3152  2.4969  0.8970
 6071TIP3   OH239627   1.933   4.671  13.361 -0.7501 -0.3852 -0.6817
 6071TIP3    H139628   1.977   4.680  13.445 -0.0558 -1.4077 -0.9272
 6071TIP3    H239629   1.992   4.712  13.298 -0.6273 -0.8510 -0.8687
 6072TIP3   OH239630   0.219   2.390  15.994 -0.5664  0.2693  0.0759
 6072TIP3    H139631   0.242   2.448  15.921  0.5191 -0.9494 -0.5731
 6072TIP3    H239632   0.283   2.319  15.991  0.5254  0.9565  3.1839
 6073TIP3   OH239633   0.137   4.160   4.650  0.0288  0.4771  0.5193
 6073TIP3    H139634   0.197   4.125   4.585 -0.2323 -0.8359  0.9629
 6073TIP3    H239635   0.056   4.110   4.639  0.0970 -0.0256  2.0756
 6074TIP3   OH239636   4.139   2.513   2.645 -0.2023 -0.5164  0.1487
 6074TIP3    H139637   4.099   2.455   2.580  0.8751 -0.8873 -0.1939
 6074TIP3    H239638   4.151   2.596   2.598 -1.0472 -0.2320  0.4148
 6075TIP3   OH239639   3.162   0.497  15.874 -0.0885 -0.1508  0.0581
 6075TIP3    H139640   3.179   0.585  15.840  0.5680 -0.2671  0.0821
 6075TIP3    H239641   3.140   0.446  15.796 -0.8588  0.1153  0.0868
 6076TIP3   OH239642   4.140   3.612   4.994 -0.2124 -0.7930  0.1594
 6076TIP3    H139643   4.158   3.518   4.995 -1.9519 -1.1671  1.3185
 6076TIP3    H239644   4.150   3.639   5.085 -2.0954 -0.3912  0.2859
 6077TIP3   OH239645   4.877   6.041  16.191 -0.2409 -0.0488 -0.0573
 6077TIP3    H139646   4.862   5.989  16.269  0.6805 -1.6029 -0.8718
 6077TIP3    H239647   4.946   5.995  16.143 -0.9895  0.6640 -1.9494
 6078TIP3   OH239648   3.656   6.166  13.380  0.0518  0.3937  0.3784
 6078TIP3    H139649   3.642   6.130  13.467  0.5463 -0.5619  0.0700
 6078TIP3    H239650   3.567   6.181  13.345 -0.1457  0.2975  0.8375
 6079TIP3   OH239651   0.973   4.365   6.792 -0.1041  0.5204  0.1651
 6079TIP3    H139652   1.047   4.359   6.731 -0.8550  0.1582 -0.7282
 6079TIP3    H239653   0.938   4.276   6.797  0.4302  0.3624  1.7715
 6080TIP3   OH239654   3.874   2.531  11.370 -0.1083  0.2579  0.2901
 6080TIP3    H139655   3.919   2.615  11.360  2.4626 -1.0367  0.1275
 6080TIP3    H239656   3.942   2.472  11.403 -2.7504 -0.9145  4.2053
 6081TIP3   OH239657   3.127   3.136   1.333 -1.1320  0.3104  0.3728
 6081TIP3    H139658   3.075   3.104   1.407 -3.1644  2.4559 -0.0303
 6081TIP3    H239659   3.086   3.096   1.256 -0.3110 -0.2842  0.2314
 6082TIP3   OH239660   2.938   6.520   1.043 -0.5195 -0.3666  0.6426
 6082TIP3    H139661   2.868   6.498   0.981 -0.1013  0.9412 -0.3270
 6082TIP3    H239662   3.006   6.455   1.026 -0.0560  0.4615 -0.9045
 6083TIP3   OH239663   5.547   5.800   4.038  0.6689  0.3901 -0.0619
 6083TIP3    H139664   5.493   5.877   4.020  0.5183  0.2269 -0.3133
 6083TIP3    H239665   5.500   5.728   3.996 -0.5078 -0.2837  2.1878
 6084TIP3   OH239666   4.316   5.560  11.202  0.2729 -0.7452 -0.3547
 6084TIP3    H139667   4.400   5.536  11.164 -0.3785  0.0876 -2.4817
 6084TIP3    H239668   4.251   5.524  11.141 -0.8136  1.1575 -0.4102
 6085TIP3   OH239669   2.425   3.039  17.229 -0.7261  0.2459  0.3304
 6085TIP3    H139670   2.507   3.015  17.186 -1.0719 -0.3250 -0.0233
 6085TIP3    H239671   2.403   3.125  17.192 -0.2884  0.4032  0.4301
 6086TIP3   OH239672   5.500   0.850   0.507 -0.1457 -0.2062 -0.0647
 6086TIP3    H139673   5.528   0.930   0.552 -0.4199  1.0492 -2.0086
 6086TIP3    H239674   5.562   0.841   0.435 -0.9560 -0.9564 -0.6817
 6087TIP3   OH239675   5.573   2.327   2.358  0.2855 -0.3630 -0.0668
 6087TIP3    H139676   5.596   2.242   2.319  0.2535 -1.0228  1.2812
 6087TIP3    H239677   5.653   2.355   2.402 -0.4866 -1.1427  1.9665
 6088TIP3   OH239678   2.354   2.764   2.538  0.2632 -0.7565  0.5356
 6088TIP3    H139679   2.277   2.744   2.484  0.3873 -0.6723  0.3272
 6088TIP3    H239680   2.318   2.804   2.617 -0.0141 -2.0629  1.0930
 6089TIP3   OH239681   3.716   2.101   4.338  0.6934  0.0346  0.1065
 6089TIP3    H139682   3.705   2.194   4.316  1.5724 -0.1050 -1.0356
 6089TIP3    H239683   3.804   2.095   4.375  1.3574 -0.5817 -1.4628
 6090TIP3   OH239684   6.140   3.032   5.454  0.5047  0.4379  0.1072
 6090TIP3    H139685   6.158   2.971   5.383  1.2081  0.8149 -0.0540
 6090TIP3    H239686   6.045   3.039   5.457  0.4503 -0.0775 -0.3706
 6091TIP3   OH239687   3.110   0.136  16.292  0.5368  0.2446 -0.4528
 6091TIP3    H139688   3.206   0.131  16.302  0.3534 -0.7830  1.2664
 6091TIP3    H239689   3.076   0.107  16.377 -1.3156  0.4999 -1.0664
 6092TIP3   OH239690   5.089   6.338   5.432  0.2657 -0.1589  0.6358
 6092TIP3    H139691   5.111   6.251   5.397 -2.3613 -1.0582  0.9393
 6092TIP3    H239692   5.166   6.391   5.414  1.8541 -2.4541  0.1072
 6093TIP3   OH239693   2.018   6.465   0.624  0.1770 -0.3871 -0.1737
 6093TIP3    H139694   1.929   6.429   0.621  0.1744 -0.4073  0.0871
 6093TIP3    H239695   2.075   6.390   0.604  0.0697 -0.0374 -1.9334
 6094TIP3   OH239696   6.080   0.213  15.657  0.2303  0.2652 -0.1908
 6094TIP3    H139697   6.042   0.301  15.661 -0.5357 -0.1101  2.1642
 6094TIP3    H239698   6.155   0.217  15.715 -0.9802 -1.1174  1.5568
 6095TIP3   OH239699   5.450   0.330   2.799 -0.0237 -0.1533 -0.1596
 6095TIP3    H139700   5.465   0.421   2.824 -0.6366 -0.3659  1.0936
 6095TIP3    H239701   5.534   0.287   2.814  0.9066  0.5825 -2.8166
 6096TIP3   OH239702   4.493   5.304  15.070 -0.2770  0.7038  0.5542
 6096TIP3    H139703   4.531   5.392  15.076 -1.5969  1.2528  1.3351
 6096TIP3    H239704   4.400   5.320  15.057 -0.3745 -0.6005 -0.5366
 6097TIP3   OH239705   2.180   6.310  13.775 -0.6752 -0.3226 -0.1043
 6097TIP3    H139706   2.106   6.361  13.806  0.2183  1.2587 -0.4435
 6097TIP3    H239707   2.249   6.327  13.839 -0.0899 -0.3858 -0.7013
 6098TIP3   OH239708   0.808   4.907   3.417  0.0798 -0.6864 -0.1519
 6098TIP3    H139709   0.788   4.821   3.380 -1.7104 -0.4707  0.2143
 6098TIP3    H239710   0.895   4.897   3.455 -0.0333 -2.2859 -0.2334
 6099TIP3   OH239711   0.945   6.471  16.446  0.0889  0.5310 -0.1581
 6099TIP3    H139712   1.038   6.453  16.442  0.2277  1.2528 -0.2732
 6099TIP3    H239713   0.936   6.561  16.415 -0.6444  0.4634 -0.1671
 6100TIP3   OH239714   2.477   5.830  11.449  0.1016  0.6137 -0.0846
 6100TIP3    H139715   2.391   5.864  11.425 -0.4617 -0.5399  0.2363
 6100TIP3    H239716   2.463   5.785  11.532  1.2777  1.4456  0.6011
 6101TIP3   OH239717   2.157   3.981  14.780 -0.0305  0.0056  0.3525
 6101TIP3    H139718   2.080   3.966  14.835 -0.1686  2.3275  0.8726
 6101TIP3    H239719   2.154   4.074  14.759  2.5114  0.1026  0.1650
 6102TIP3   OH239720   4.282   2.628   0.559  0.2650 -0.3518 -0.0185
 6102TIP3    H139721   4.267   2.541   0.598  1.1649 -0.3422  0.3851
 6102TIP3    H239722   4.233   2.688   0.615  2.4457 -0.1994  1.8848
 6103TIP3   OH239723   1.639   6.228   6.357  0.1292  0.1122  0.0558
 6103TIP3    H139724   1.720   6.210   6.404 -0.2423 -1.3441  0.1889
 6103TIP3    H239725   1.594   6.294   6.410 -0.2438 -1.4230  1.7415
 6104TIP3   OH239726   1.282   0.604  13.496  0.0195 -0.4435  0.4064
 6104TIP3    H139727   1.377   0.614  13.502 -0.0425 -0.4840  1.7236
 6104TIP3    H239728   1.247   0.670  13.555 -0.7990 -0.1399 -0.3929
 6105TIP3   OH239729   0.106   4.913  15.912 -0.6195 -0.0793  0.0156
 6105TIP3    H139730   0.097   4.930  16.006  0.7972 -1.2362  0.4097
 6105TIP3    H239731   0.049   4.977  15.870  0.1298  1.7267  1.5866
 6106TIP3   OH239732   4.741   3.207   0.366 -0.7799  0.1859  0.1502
 6106TIP3    H139733   4.687   3.195   0.445 -1.0215 -1.9122 -0.2721
 6106TIP3    H239734   4.827   3.233   0.399 -0.7673 -1.0553  1.1640
 6107TIP3   OH239735   4.067   4.212   0.261  0.8222  0.1758 -0.3776
 6107TIP3    H139736   4.136   4.205   0.328  2.2652 -1.0113 -1.9202
 6107TIP3    H239737   4.098   4.281   0.202 -0.6688  1.5432  0.3506
 6108TIP3   OH239738   0.033   4.015  13.923 -0.1960 -0.4904  0.2866
 6108TIP3    H139739   0.054   4.074  13.850  0.4798 -0.9195  0.1217
 6108TIP3    H239740  -0.013   3.942  13.881 -0.1452 -0.5550  0.3437
 6109TIP3   OH239741   1.208   6.617   2.914  0.0521 -0.1353 -0.0615
 6109TIP3    H139742   1.275   6.652   2.856  0.3588 -0.8669 -0.1561
 6109TIP3    H239743   1.256   6.590   2.993  0.0820 -1.7922 -0.6049
 6110TIP3   OH239744   0.217   1.166  13.270  0.4447 -0.3021  0.3125
 6110TIP3    H139745   0.195   1.183  13.179 -0.1253  1.7451  0.7766
 6110TIP3    H239746   0.134   1.139  13.310  0.6428 -0.9586  0.2950
 6111TIP3   OH239747   2.917   0.830  11.230 -0.4985  0.0838 -0.2726
 6111TIP3    H139748   3.007   0.857  11.208 -0.4359 -0.5805 -0.8429
 6111TIP3    H239749   2.921   0.735  11.235 -1.2836  0.0154 -0.7986
 6112TIP3   OH239750   1.439   5.664   5.137  0.6036  0.0669 -0.3173
 6112TIP3    H139751   1.528   5.657   5.172  0.4666 -4.0737 -0.2235
 6112TIP3    H239752   1.386   5.695   5.211  1.7130  1.0381  0.0934
 6113TIP3   OH239753   6.298   6.444   2.146  0.0262  0.2298 -0.0711
 6113TIP3    H139754   6.275   6.454   2.239  0.7595 -0.1688  0.1626
 6113TIP3    H239755   6.283   6.352   2.128 -2.0660  0.6768 -0.9174
 6114TIP3   OH239756   5.018   0.924   0.935 -0.0135  0.5301  0.4002
 6114TIP3    H139757   4.997   0.901   0.844  2.2661 -0.4023  0.0550
 6114TIP3    H239758   5.060   1.010   0.929  1.5886 -0.2314  0.3459
 6115TIP3   OH239759   4.067   0.519   4.028 -0.2855  0.1013 -0.1273
 6115TIP3    H139760   4.001   0.555   3.968 -0.0079  1.5834  0.4159
 6115TIP3    H239761   4.080   0.588   4.094  1.8597 -0.1115 -0.2560
 6116TIP3   OH239762   2.299   0.089   2.498  0.0376  0.3925  0.2585
 6116TIP3    H139763   2.310   0.005   2.454 -1.3831 -0.2817  1.0991
 6116TIP3    H239764   2.341   0.153   2.441  0.9466 -0.8607 -0.5066
 6117TIP3   OH239765   2.346   4.306  14.984  0.7192  0.1984  0.7127
 6117TIP3    H139766   2.442   4.300  14.987  0.6409 -1.1194  1.4397
 6117TIP3    H239767   2.316   4.235  15.040 -0.6982  0.6866  0.6093
 6118TIP3   OH239768   1.407   0.499  14.033 -0.1884  0.0449  0.3302
 6118TIP3    H139769   1.420   0.431  14.099  0.7899 -0.2047 -0.0893
 6118TIP3    H239770   1.349   0.459  13.968 -0.2859 -0.0912  0.4992
 6119TIP3   OH239771   4.598   1.800  13.630  0.0801 -0.7715  0.1627
 6119TIP3    H139772   4.542   1.841  13.563 -0.0113 -0.8592  0.1851
 6119TIP3    H239773   4.635   1.874  13.677  1.8635 -0.6189 -1.3473
 6120TIP3   OH239774   4.097   3.856   2.891 -0.2580 -0.4672 -0.3603
 6120TIP3    H139775   4.151   3.906   2.952 -0.9141  0.3216 -0.4125
 6120TIP3    H239776   4.012   3.848   2.935 -1.1427  1.1605 -1.6169
 6121TIP3   OH239777   1.350   4.464  11.391 -0.9791  0.2083  0.7715
 6121TIP3    H139778   1.319   4.545  11.433 -0.8256  1.0246 -0.6510
 6121TIP3    H239779   1.419   4.492  11.332 -2.1895 -0.6812 -1.1664
 6122TIP3   OH239780   1.829   4.614  12.085  0.0617 -0.2177 -0.1767
 6122TIP3    H139781   1.778   4.690  12.055  1.3995  0.6491 -0.3413
 6122TIP3    H239782   1.899   4.605  12.021 -0.1145 -1.6589 -0.1930
 6123TIP3   OH239783   6.665   3.665  12.016  0.4072 -0.5738  0.0312
 6123TIP3    H139784   6.595   3.725  11.989  0.3406 -0.1356  1.1413
 6123TIP3    H239785   6.633   3.578  11.990 -0.6926 -0.4156  0.7560
 6124TIP3   OH239786   0.282   3.784  12.143  0.0467 -0.3471  0.1333
 6124TIP3    H139787   0.349   3.777  12.074  0.0906 -0.2224  0.1630
 6124TIP3    H239788   0.221   3.850  12.111 -0.9274 -1.5626 -0.6037
 6125TIP3   OH239789   1.419   0.117   0.268  0.0581 -0.2947 -0.3223
 6125TIP3    H139790   1.376   0.193   0.230  1.4490  1.1529  0.8530
 6125TIP3    H239791   1.387   0.043   0.217 -1.2756  1.0741 -1.5656
 6126TIP3   OH239792   3.325   2.880  13.376  0.2507 -0.5798 -0.1514
 6126TIP3    H139793   3.340   2.849  13.465  0.9665  0.3364  0.0479
 6126TIP3    H239794   3.246   2.935  13.383 -1.2937 -2.6070 -0.5846
 6127TIP3   OH239795   6.528   2.154  12.291  0.3122  0.3204 -0.2258
 6127TIP3    H139796   6.585   2.217  12.247  0.2810 -0.5426 -1.5626
 6127TIP3    H239797   6.588   2.087  12.323  0.8457  2.6764  4.5018
 6128TIP3   OH239798   6.247   0.666   5.580  0.3184 -0.5567 -0.7179
 6128TIP3    H139799   6.223   0.580   5.544 -0.4766 -1.2231  1.2630
 6128TIP3    H239800   6.282   0.714   5.506  1.3136 -2.7880 -1.7733
 6129TIP3   OH239801   1.262   0.127   5.583  0.5454 -0.0466 -0.0651
 6129TIP3    H139802   1.353   0.138   5.556  0.5228 -0.9766 -0.5581
 6129TIP3    H239803   1.241   0.036   5.561 -0.6583  0.2996 -0.4098
 6130TIP3   OH239804   0.362   3.566  17.299  0.2791  0.6317 -0.0869
 6130TIP3    H139805   0.285   3.534  17.252 -0.1710  1.2183  0.2229
 6130TIP3    H239806   0.368   3.510  17.376 -0.4402  1.1841  0.3971
 6131TIP3   OH239807   4.155   1.146   3.495  0.2523  0.1667 -0.1151
 6131TIP3    H139808   4.184   1.143   3.586 -0.0037 -1.0354 -0.0545
 6131TIP3    H239809   4.082   1.207   3.495  0.2769  0.2062  0.4849
 6132TIP3   OH239810   6.714   1.689  15.741 -0.1169  0.6017 -0.7734
 6132TIP3    H139811   6.779   1.667  15.674 -0.1012 -0.9616 -0.2925
 6132TIP3    H239812   6.763   1.686  15.823 -0.8356 -1.0104 -0.3572
 6133TIP3   OH239813   1.546   4.847  11.811 -0.3358  0.0269  0.0010
 6133TIP3    H139814   1.494   4.927  11.810  0.1558  0.3494 -0.2876
 6133TIP3    H239815   1.496   4.784  11.759 -2.0696 -0.7419  2.4032
 6134TIP3   OH239816   5.414   4.331  13.436  0.3581  0.5492 -0.4211
 6134TIP3    H139817   5.401   4.314  13.529  0.3580 -1.6405 -0.7710
 6134TIP3    H239818   5.483   4.398  13.433  0.0981  0.9270  1.1337
 6135TIP3   OH239819   4.026   3.294   3.475  0.7022 -0.2294  0.2919
 6135TIP3    H139820   4.054   3.351   3.403 -0.2730  0.5866  0.5271
 6135TIP3    H239821   3.941   3.259   3.446  0.3343  0.0551  1.0027
 6136TIP3   OH239822   0.650   2.880  16.307  0.3807  0.1091  0.2911
 6136TIP3    H139823   0.609   2.904  16.391 -0.3404 -1.2496  0.3491
 6136TIP3    H239824   0.578   2.843  16.255  0.7533  1.2030 -1.0686
 6137TIP3   OH239825   4.748   1.057   0.864  0.8009  0.0466  0.4216
 6137TIP3    H139826   4.808   1.111   0.915 -1.0103  2.9688 -0.2926
 6137TIP3    H239827   4.770   1.075   0.773  0.4675 -0.8412  0.1536
 6138TIP3   OH239828   5.105   4.892  10.383  0.1735  0.1257 -0.1172
 6138TIP3    H139829   5.169   4.961  10.397  1.0533 -0.8030  0.5837
 6138TIP3    H239830   5.066   4.877  10.469 -0.3301  0.0490 -0.3550
 6139TIP3   OH239831   4.710   1.505  15.407  0.3963 -1.0212  0.6659
 6139TIP3    H139832   4.755   1.421  15.411 -2.1512 -2.6962 -1.9972
 6139TIP3    H239833   4.743   1.546  15.327 -1.2289 -1.3746 -0.2228
 6140TIP3   OH239834   5.474   2.169  14.126  0.4362  0.0410 -0.4708
 6140TIP3    H139835   5.401   2.159  14.065 -0.2334  1.6118  0.0242
 6140TIP3    H239836   5.513   2.082  14.130 -0.5012 -0.4838 -1.8761
 6141TIP3   OH239837   3.261   4.395  11.428  0.1888  0.2512 -0.2764
 6141TIP3    H139838   3.228   4.309  11.455 -1.1283  0.5514 -0.8087
 6141TIP3    H239839   3.349   4.378  11.395 -0.1359 -0.9440 -0.5956
 6142TIP3   OH239840   6.070   2.485   3.050  0.8355  0.4955 -0.5296
 6142TIP3    H139841   6.013   2.538   2.995 -2.3517 -1.0872  1.0082
 6142TIP3    H239842   6.097   2.413   2.994  1.0718  1.0605 -1.1643
 6143TIP3   OH239843   4.738   5.645   1.376  0.2993 -0.0786  0.3447
 6143TIP3    H139844   4.717   5.706   1.306  0.8672 -1.0029 -0.6640
 6143TIP3    H239845   4.741   5.560   1.333  1.5511 -0.5507  1.3080
 6144TIP3   OH239846   5.745   6.017  13.677  0.1113  0.2246  0.2090
 6144TIP3    H139847   5.812   6.081  13.651 -0.5977  1.3488  1.0089
 6144TIP3    H239848   5.705   5.989  13.594  1.6019 -0.5287 -0.2816
 6145TIP3   OH239849   0.264   1.002   2.761 -0.5262 -0.1492  0.8586
 6145TIP3    H139850   0.347   1.032   2.723 -0.8460  0.8550  0.9061
 6145TIP3    H239851   0.207   0.987   2.685 -0.4697 -0.3095  0.8481
 6146TIP3   OH239852   1.236   3.522   0.123 -0.5362 -0.2449 -0.3752
 6146TIP3    H139853   1.269   3.572   0.049  2.4149  0.6433  1.3606
 6146TIP3    H239854   1.192   3.446   0.084  1.9905 -0.4879 -3.0460
 6147TIP3   OH239855   3.944   2.467   3.194 -0.3086  0.3692  0.4995
 6147TIP3    H139856   3.895   2.534   3.147  1.5551  0.8509 -0.8741
 6147TIP3    H239857   3.968   2.508   3.277  0.7817  1.4558 -0.3097
 6148TIP3   OH239858   0.008   2.661  12.903 -0.3031 -0.3202 -0.3923
 6148TIP3    H139859  -0.073   2.610  12.905 -0.8856  0.5891  1.3916
 6148TIP3    H239860   0.042   2.655  12.992  1.1124  0.0893 -0.8784
 6149TIP3   OH239861   3.585   5.827   4.015 -0.0463 -0.1273 -0.3947
 6149TIP3    H139862   3.542   5.828   3.929  0.3975 -0.7091 -0.6281
 6149TIP3    H239863   3.533   5.765   4.066 -1.3583  1.4850  0.3261
 6150TIP3   OH239864   3.003   3.515  12.558 -0.1629  0.2682  0.0363
 6150TIP3    H139865   3.085   3.465  12.557 -0.1517  0.2840  0.1157
 6150TIP3    H239866   2.950   3.470  12.624  0.1256  0.8045  0.6399
 6151TIP3   OH239867   0.291   1.680   5.270 -0.1109 -0.2725 -0.3858
 6151TIP3    H139868   0.332   1.594   5.277 -1.3144 -0.7555  1.3499
 6151TIP3    H239869   0.356   1.740   5.307 -0.5875 -0.9365  1.6774
 6152TIP3   OH239870   5.185   0.608  15.209 -0.6830 -0.1952 -0.4924
 6152TIP3    H139871   5.179   0.567  15.123 -4.6035 -3.2019  0.9262
 6152TIP3    H239872   5.269   0.577  15.244  0.3281 -0.0634 -2.6021
 6153TIP3   OH239873   3.904   2.622   4.987 -0.2795 -0.1567 -0.5551
 6153TIP3    H139874   3.913   2.527   4.992 -0.6746 -0.1708 -0.0872
 6153TIP3    H239875   3.909   2.652   5.078  0.8593  0.3688 -0.7662
 6154TIP3   OH239876   4.093   6.370  17.221 -0.5197  0.2450 -0.3733
 6154TIP3    H139877   4.079   6.279  17.248  0.7775  0.1756  0.1393
 6154TIP3    H239878   4.169   6.399  17.271 -0.7897  1.5626 -0.6716
 6155TIP3   OH239879   4.923   3.581  14.675  0.1842 -0.2986 -0.0239
 6155TIP3    H139880   4.887   3.667  14.695 -0.5764 -0.2160 -1.6221
 6155TIP3    H239881   5.017   3.596  14.662  0.0808  0.2610 -0.1260
 6156TIP3   OH239882   3.470   0.682   0.329 -0.0011 -0.2836  0.2418
 6156TIP3    H139883   3.421   0.663   0.409  0.2879 -0.2418  0.4307
 6156TIP3    H239884   3.561   0.660   0.351 -0.1973 -2.2647 -0.7259
 6157TIP3   OH239885   3.092   0.578  13.940 -0.5600 -0.1321  0.1093
 6157TIP3    H139886   2.999   0.561  13.958 -1.1573  1.3081 -1.3969
 6157TIP3    H239887   3.105   0.547  13.850  0.5354 -0.6807  0.4423
 6158TIP3   OH239888   5.620   6.174  15.812  0.2036 -0.0235  0.0293
 6158TIP3    H139889   5.649   6.114  15.880  0.9642  0.7240  0.3962
 6158TIP3    H239890   5.535   6.205  15.841  0.8216  0.8207  1.0255
 6159TIP3   OH239891   4.535   2.057  13.782 -0.3260 -0.0696 -0.6457
 6159TIP3    H139892   4.578   2.141  13.799 -0.3363 -0.3193  0.7319
 6159TIP3    H239893   4.558   2.003  13.857  0.2122 -1.5301 -1.8223
 6160TIP3   OH239894   3.013   4.865  12.753 -0.3841 -0.0192  0.1126
 6160TIP3    H139895   2.918   4.858  12.749 -0.3242 -1.5715  0.8173
 6160TIP3    H239896   3.043   4.776  12.770  1.1913  0.4892  0.1549
 6161TIP3   OH239897   2.869   4.023   5.992  0.0818 -0.1508  0.1426
 6161TIP3    H139898   2.931   4.053   6.058  3.6138 -1.3210 -2.3300
 6161TIP3    H239899   2.808   3.967   6.040  0.1075  1.9929  2.9262
 6162TIP3   OH239900   5.813   3.675   0.697  0.4503 -0.2623 -0.1431
 6162TIP3    H139901   5.754   3.633   0.759 -0.9225  0.6356 -0.7864
 6162TIP3    H239902   5.884   3.611   0.684  0.5505 -0.6372  1.9653
 6163TIP3   OH239903   1.187   5.770  12.515 -0.3940  0.2572 -0.9783
 6163TIP3    H139904   1.132   5.692  12.520 -0.0417  0.0609  1.5994
 6163TIP3    H239905   1.127   5.843  12.528 -0.2945  0.1405  0.2738
 6164TIP3   OH239906   4.017   2.424  13.185  0.3294 -0.4085 -0.1788
 6164TIP3    H139907   3.980   2.336  13.188 -1.5220  0.3437  0.4146
 6164TIP3    H239908   4.101   2.416  13.231  0.0336 -1.7836  0.1561
 6165TIP3   OH239909   0.307   1.959  10.548 -0.4895  0.4164  0.2737
 6165TIP3    H139910   0.386   2.005  10.579 -0.5888 -0.3966  1.8140
 6165TIP3    H239911   0.298   1.885  10.608 -3.0484  1.0941  0.8207
 6166TIP3   OH239912   4.778   2.811   6.401 -0.5026  0.5256  0.2198
 6166TIP3    H139913   4.755   2.734   6.453  0.0286  1.9687  2.7522
 6166TIP3    H239914   4.702   2.869   6.410 -0.7842  0.4555 -1.4466
 6167TIP3   OH239915   0.171   3.416   3.337 -0.3200  0.2807  0.2562
 6167TIP3    H139916   0.176   3.362   3.416  0.8556 -0.0710 -0.0459
 6167TIP3    H239917   0.169   3.353   3.265 -1.6240  0.5918 -0.0129
 6168TIP3   OH239918   1.988   6.273  13.346 -0.2804  0.1070 -0.0699
 6168TIP3    H139919   2.024   6.303  13.429  1.5134 -0.1418 -0.7109
 6168TIP3    H239920   2.065   6.255  13.291 -1.3864 -0.7892 -1.4118
 6169TIP3   OH239921   2.045   2.647  11.218 -0.2884 -0.4101 -0.8038
 6169TIP3    H139922   2.040   2.674  11.310 -1.2275 -1.7670 -0.4164
 6169TIP3    H239923   1.963   2.599  11.203  0.8247 -2.1449 -1.6695
 6170TIP3   OH239924   3.241   4.666  14.757  0.5690  0.1494 -0.0706
 6170TIP3    H139925   3.172   4.729  14.733  0.1936  0.0488  0.7301
 6170TIP3    H239926   3.194   4.585  14.776  1.0102 -0.2317 -0.5611
 6171TIP3   OH239927   6.097   4.930  11.367  0.1930  0.2798 -0.1548
 6171TIP3    H139928   6.088   4.881  11.285  2.0575 -0.0684 -0.1923
 6171TIP3    H239929   6.025   4.897  11.422  0.1034 -0.9271 -0.9406
 6172TIP3   OH239930   2.548   0.065   4.166 -0.2414 -0.1598  0.0673
 6172TIP3    H139931   2.518   0.071   4.075 -0.6300  1.3652  0.2553
 6172TIP3    H239932   2.641   0.043   4.159 -0.5177 -1.1609 -0.6533
 6173TIP3   OH239933   3.810   1.834   6.206  0.0423  0.0984 -0.9266
 6173TIP3    H139934   3.748   1.762   6.220 -0.4398  0.6089 -0.3579
 6173TIP3    H239935   3.895   1.797   6.228 -0.0749 -0.5693 -1.5664
 6174TIP3   OH239936   2.857   0.345  17.131  0.2062 -0.2367 -0.0829
 6174TIP3    H139937   2.793   0.416  17.133  0.1432 -0.1422 -2.5889
 6174TIP3    H239938   2.819   0.277  17.187 -0.0975  1.3313  1.7236
 6175TIP3   OH239939   0.908   5.676  13.668  0.2307  0.0004  0.2702
 6175TIP3    H139940   0.912   5.717  13.582  0.9270  2.0184  1.1918
 6175TIP3    H239941   0.903   5.582  13.650 -1.2150  0.4374 -1.9589
 6176TIP3   OH239942   6.344   5.856  11.534 -0.2894  0.2803 -0.3731
 6176TIP3    H139943   6.378   5.769  11.515  0.7338  0.8487 -1.2892
 6176TIP3    H239944   6.267   5.866  11.477 -0.1968  0.1096 -0.5250
 6177TIP3   OH239945   1.536   0.914  11.973 -0.2400  0.2541  0.2528
 6177TIP3    H139946   1.542   0.986  12.035 -0.9213  0.7570 -0.2458
 6177TIP3    H239947   1.494   0.843  12.021 -1.6560  0.9656  0.1055
 6178TIP3   OH239948   0.336   3.101   1.810  0.1855  0.0058 -0.0339
 6178TIP3    H139949   0.301   3.019   1.845 -0.4419 -0.2734 -1.2398
 6178TIP3    H239950   0.266   3.165   1.825 -0.1902 -0.1708 -0.9400
 6179TIP3   OH239951   4.409   2.260   3.395  0.4609  0.4037 -0.4168
 6179TIP3    H139952   4.403   2.184   3.453 -1.6834 -0.5033 -1.6955
 6179TIP3    H239953   4.490   2.247   3.347 -0.1479 -1.4437 -1.0297
 6180TIP3   OH239954   3.439   3.279  14.224 -0.5966 -0.1523  0.7996
 6180TIP3    H139955   3.355   3.296  14.267 -2.0701 -2.1989 -1.0259
 6180TIP3    H239956   3.488   3.226  14.288 -1.0013  0.4088  1.5869
 6181TIP3   OH239957   2.626   3.574   1.493 -0.0058  0.8098 -0.0358
 6181TIP3    H139958   2.616   3.517   1.569 -0.3924  1.7774  0.6424
 6181TIP3    H239959   2.569   3.535   1.427  1.2889 -0.7708 -0.2951
 6182TIP3   OH239960   4.443   0.133  13.522 -0.4478 -0.0017  0.7843
 6182TIP3    H139961   4.363   0.103  13.478 -0.5394 -0.6096  1.3448
 6182TIP3    H239962   4.505   0.060  13.512  0.3961  0.8549 -0.5237
 6183TIP3   OH239963   6.345   0.766   4.263 -0.1698  0.0289  0.1778
 6183TIP3    H139964   6.293   0.804   4.333 -1.2134 -0.3358 -0.3782
 6183TIP3    H239965   6.298   0.687   4.237 -1.4756  1.6317 -2.9037
 6184TIP3   OH239966   5.492   2.543   2.605 -0.1607 -0.3452 -0.2034
 6184TIP3    H139967   5.560   2.574   2.545 -0.7286  1.3201 -0.0184
 6184TIP3    H239968   5.540   2.499   2.675  0.6497 -0.1983 -0.6527
 6185TIP3   OH239969   6.398   3.299   6.381  0.3654 -0.1642  0.2407
 6185TIP3    H139970   6.342   3.321   6.455 -0.8235  0.2279 -0.7384
 6185TIP3    H239971   6.445   3.221   6.409 -1.7881 -1.4207  0.5974
 6186TIP3   OH239972   0.400   6.131  13.614  0.4838  0.3426  0.1264
 6186TIP3    H139973   0.305   6.134  13.612  0.5091  2.2148 -1.4881
 6186TIP3    H239974   0.424   6.172  13.698 -0.1799  3.5998 -1.1089
 6187TIP3   OH239975   6.671   3.375   5.578  0.2184 -0.0133  0.4497
 6187TIP3    H139976   6.690   3.370   5.672  1.0488  0.3215  0.3045
 6187TIP3    H239977   6.743   3.426   5.541 -0.6853  0.8101 -0.2044
 6188TIP3   OH239978   2.050   3.931   2.628  0.3160  0.4506  0.4997
 6188TIP3    H139979   2.006   3.991   2.568  0.2798 -0.7741 -0.7337
 6188TIP3    H239980   1.990   3.857   2.636  0.6331  0.2871  1.5123
 6189TIP3   OH239981   2.884   2.583   2.570 -0.2982  0.2663  0.1757
 6189TIP3    H139982   2.940   2.525   2.622  1.4983  0.9777 -0.8599
 6189TIP3    H239983   2.854   2.649   2.632 -2.9511 -2.0354  1.5466
 6190TIP3   OH239984   5.200   0.475  12.739 -0.1837  0.0494  0.1881
 6190TIP3    H139985   5.228   0.566  12.738 -0.8046  0.2539  0.7966
 6190TIP3    H239986   5.121   0.474  12.685  0.1561 -0.2469 -0.3112
 6191TIP3   OH239987   3.105   1.813   0.868  0.0065  0.3414  0.5824
 6191TIP3    H139988   3.016   1.849   0.861 -0.1695  0.0231  1.0942
 6191TIP3    H239989   3.101   1.729   0.822  0.5577  1.1807 -1.0851
 6192TIP3   OH239990   2.589   4.907   0.043  0.3801 -0.1497 -0.0666
 6192TIP3    H139991   2.543   4.989   0.024 -0.5191 -0.8226 -0.8608
 6192TIP3    H239992   2.681   4.933   0.051  0.2918  0.7767 -1.5834
 6193TIP3   OH239993   2.717   2.210   2.292 -0.5610  0.0907 -0.1886
 6193TIP3    H139994   2.756   2.126   2.317  0.7594  0.8357  0.3211
 6193TIP3    H239995   2.789   2.259   2.252 -0.6083  1.9715  1.8588
 6194TIP3   OH239996   0.251   4.407   0.056  0.4773 -0.4336  0.4276
 6194TIP3    H139997   0.156   4.393   0.058  0.2979  0.4839 -0.2804
 6194TIP3    H239998   0.288   4.338   0.110 -0.6202 -0.6526  0.9172
 6195TIP3   OH239999   5.659   5.093   1.465  0.5745  0.1688 -0.0340
 6195TIP3    H140000   5.602   5.115   1.391 -0.1370  1.1610  0.7769
 6195TIP3    H240001   5.647   5.165   1.527  1.2442 -0.5822  1.0096
 6196TIP3   OH240002   3.797   4.737   1.597  0.4863  1.1465  0.2518
 6196TIP3    H140003   3.776   4.825   1.626  1.5233  1.8882 -1.1477
 6196TIP3    H240004   3.882   4.745   1.554 -1.1612  0.3116 -3.5287
 6197TIP3   OH240005   1.661   0.130   6.207 -0.1028  0.0752  0.3081
 6197TIP3    H140006   1.576   0.086   6.202 -0.0504  0.0599 -0.5251
 6197TIP3    H240007   1.641   0.218   6.239 -0.1347 -0.7261  2.7105
 6198TIP3   OH240008   0.118   1.929  13.799  0.5462  0.0143 -0.0812
 6198TIP3    H140009   0.044   1.872  13.779 -0.3182  1.0712  0.0430
 6198TIP3    H240010   0.159   1.888  13.875  0.6234 -1.0505 -0.6748
 6199TIP3   OH240011   4.459   5.613   6.369 -0.6380 -0.0080  0.1205
 6199TIP3    H140012   4.512   5.672   6.315 -1.4331 -0.1741 -0.8703
 6199TIP3    H240013   4.375   5.658   6.379 -0.6555 -0.1905  0.8445
 6200TIP3   OH240014   6.475   3.059   0.832 -0.6319 -0.1136  0.0036
 6200TIP3    H140015   6.538   3.130   0.845 -0.4125  0.3071 -2.8125
 6200TIP3    H240016   6.511   3.008   0.760 -2.4755 -1.1275 -0.2471
 6201TIP3   OH240017   3.074   5.643  11.216 -0.0171  0.1214  0.4759
 6201TIP3    H140018   3.081   5.737  11.201  1.0328  0.2477  1.5858
 6201TIP3    H240019   2.982   5.629  11.241 -0.6769  0.5197 -1.5875
 6202TIP3   OH240020   1.836   5.392  16.219 -0.3090  0.5394 -0.0398
 6202TIP3    H140021   1.796   5.307  16.200  0.2982  0.3611 -0.5504
 6202TIP3    H240022   1.909   5.372  16.277 -0.8144  0.8438  0.7285
 6203TIP3   OH240023   0.929   1.348  13.004 -0.0207  0.1942  0.4969
 6203TIP3    H140024   0.858   1.390  12.956  0.8125  1.0002 -0.0459
 6203TIP3    H240025   0.888   1.319  13.086 -1.5458 -1.5128 -0.7794
 6204TIP3   OH240026   0.482   1.217  15.582 -0.5725  0.5208 -0.0514
 6204TIP3    H140027   0.389   1.202  15.599 -0.4993  1.2381  1.1314
 6204TIP3    H240028   0.521   1.129  15.580 -1.0468  0.2742  0.9487
 6205TIP3   OH240029   0.984   2.783   2.394  0.1959 -1.0101 -0.7492
 6205TIP3    H140030   0.948   2.714   2.338 -0.6014 -0.8152 -0.4919
 6205TIP3    H240031   0.915   2.849   2.398  0.6481 -0.5522 -0.3650
 6206TIP3   OH240032   0.638   3.252  13.502 -0.1614  0.1322  0.2930
 6206TIP3    H140033   0.712   3.215  13.454  1.1732  3.1304 -0.1785
 6206TIP3    H240034   0.654   3.229  13.593 -0.4980 -2.0662 -0.1493
 6207TIP3   OH240035   4.577   1.540   0.750  0.4273 -0.0098  0.5076
 6207TIP3    H140036   4.565   1.512   0.659  0.7937  1.1104  0.0983
 6207TIP3    H240037   4.488   1.557   0.781  0.2625 -0.8961  0.5259
 6208TIP3   OH240038   4.981   3.879  14.909 -0.1708  0.2078 -0.3960
 6208TIP3    H140039   4.980   3.933  14.988  0.1164 -0.9499  0.4374
 6208TIP3    H240040   5.030   3.800  14.935 -0.0854 -0.2042 -1.7302
 6209TIP3   OH240041   0.170   4.848  15.613 -0.2800  0.2409 -0.1799
 6209TIP3    H140042   0.121   4.865  15.694 -0.2809  0.4255 -0.2190
 6209TIP3    H240043   0.234   4.920  15.608 -0.8459  0.7152 -0.7891
 6210TIP3   OH240044   3.799   0.316   4.271 -0.0849  0.3761  0.1778
 6210TIP3    H140045   3.739   0.352   4.336  0.0663  1.6670 -0.3693
 6210TIP3    H240046   3.885   0.322   4.312  0.0137  1.2143 -0.1266
 6211TIP3   OH240047   0.089   2.119  15.846  0.5204  0.2585  0.2673
 6211TIP3    H140048   0.138   2.075  15.776  0.5707 -0.6351  0.8394
 6211TIP3    H240049   0.146   2.114  15.922  0.1315  0.4892  0.5799
 6212TIP3   OH240050   2.203   6.450   4.526 -0.5813  0.3008  0.4810
 6212TIP3    H140051   2.119   6.407   4.543 -0.6378  0.4441  0.5649
 6212TIP3    H240052   2.200   6.530   4.579 -1.9631  2.2712 -2.3206
 6213TIP3   OH240053   2.361   6.444   1.517 -0.3502  0.2753 -0.0342
 6213TIP3    H140054   2.378   6.399   1.600  0.7328 -1.5047 -1.1494
 6213TIP3    H240055   2.441   6.494   1.500  0.3651 -1.1599 -1.0606
 6214TIP3   OH240056   2.093   2.945   1.262  0.1700  0.4221  0.3699
 6214TIP3    H140057   2.045   2.864   1.279 -1.2036  0.9288 -0.8290
 6214TIP3    H240058   2.084   2.996   1.342  0.0648 -0.1572  0.7260
 6215TIP3   OH240059   4.637   4.704   2.886  0.2834  0.0723  0.3094
 6215TIP3    H140060   4.582   4.668   2.956 -2.8341  0.7589 -1.5678
 6215TIP3    H240061   4.655   4.794   2.913 -1.2162  0.4509  0.1309
 6216TIP3   OH240062   2.302   3.977   3.627  0.0589  0.2109 -0.1504
 6216TIP3    H140063   2.305   3.967   3.722  2.6446  2.1516  0.1089
 6216TIP3    H240064   2.385   3.940   3.596 -0.4452  0.2016 -1.6085
 6217TIP3   OH240065   6.642   6.611   3.403  0.5722  0.1056 -0.0679
 6217TIP3    H140066   6.636   6.583   3.312 -0.1092  0.6666 -0.2033
 6217TIP3    H240067   6.736   6.613   3.422  0.9301  2.7934 -1.6414
 6218TIP3   OH240068   0.791   5.884   5.637 -0.5545 -0.0016 -0.1717
 6218TIP3    H140069   0.710   5.921   5.673 -0.5016 -0.0469 -0.0075
 6218TIP3    H240070   0.860   5.913   5.697 -0.4910 -0.2209 -0.1390
 6219TIP3   OH240071   0.879   3.386   6.486 -0.4429 -0.0975  0.5088
 6219TIP3    H140072   0.848   3.295   6.485 -0.8969  0.0279  1.7017
 6219TIP3    H240073   0.875   3.412   6.578  2.8716  0.0703  0.7330
 6220TIP3   OH240074   0.254   5.383  15.602 -0.1137 -0.2581  0.2294
 6220TIP3    H140075   0.194   5.442  15.648  0.9792 -2.2567  4.7691
 6220TIP3    H240076   0.341   5.421  15.618  0.2960 -0.6945 -0.8567
 6221TIP3   OH240077   2.390   0.075   0.354 -0.3814 -0.1330 -0.4967
 6221TIP3    H140078   2.340   0.069   0.273 -1.4484 -1.1365  0.2124
 6221TIP3    H240079   2.406  -0.016   0.380 -0.7295  0.1612  0.8232
 6222TIP3   OH240080   2.169   1.170  12.322  0.0727  0.3344 -0.2726
 6222TIP3    H140081   2.181   1.265  12.329 -0.4278  0.5728 -2.2519
 6222TIP3    H240082   2.137   1.144  12.409  0.3920  1.9236  0.3592
 6223TIP3   OH240083   4.620   5.652  15.488  0.5289 -0.6544  0.1697
 6223TIP3    H140084   4.593   5.706  15.414 -1.0501 -0.0319  1.1414
 6223TIP3    H240085   4.546   5.593  15.503  1.5096 -1.8907  0.2286
 6224TIP3   OH240086   1.656   0.707   2.806 -0.1316 -0.0029 -0.1258
 6224TIP3    H140087   1.736   0.658   2.825 -0.9379 -1.9069 -1.3114
 6224TIP3    H240088   1.619   0.726   2.892  1.1091  0.0831  0.4145
 6225TIP3   OH240089   3.377   0.068   0.362  0.0662  0.0448  0.5545
 6225TIP3    H140090   3.371   0.141   0.301 -0.9962 -0.6757 -0.2389
 6225TIP3    H240091   3.287   0.056   0.394  0.3652 -0.4440  1.2467
 6226TIP3   OH240092   3.167   4.349  16.537  0.4366  0.2311 -0.5848
 6226TIP3    H140093   3.203   4.392  16.615  0.0492  0.3123 -0.4488
 6226TIP3    H240094   3.186   4.409  16.465 -0.6621  0.9452 -0.3057
 6227TIP3   OH240095   1.584   6.097  14.571 -0.1909 -0.3195 -0.9712
 6227TIP3    H140096   1.546   6.133  14.652 -0.7583 -1.2972 -0.7992
 6227TIP3    H240097   1.552   6.008  14.567  0.1374 -0.3936 -2.1047
 6228TIP3   OH240098   0.222   5.243   5.285  0.3334  0.4735  0.1579
 6228TIP3    H140099   0.211   5.304   5.357  0.7449 -0.3694  0.9574
 6228TIP3    H240100   0.290   5.182   5.315  0.5485  0.1371 -0.9594
 6229TIP3   OH240101   1.681   1.255  13.926  0.2324 -0.4416  0.0813
 6229TIP3    H140102   1.728   1.255  14.009  0.5384  4.1929  0.1679
 6229TIP3    H240103   1.709   1.336  13.883 -3.8989  0.0971 -2.1008
 6230TIP3   OH240104   1.907   6.052   1.884  0.1754  0.6483 -0.2571
 6230TIP3    H140105   1.956   6.006   1.952 -0.6537 -0.0384 -0.1138
 6230TIP3    H240106   1.947   6.023   1.802 -1.1404 -1.3850 -0.2554
 6231TIP3   OH240107   1.370   5.113   3.719 -0.2453  0.3714 -0.2505
 6231TIP3    H140108   1.320   5.147   3.645 -0.4927  2.6712  0.8615
 6231TIP3    H240109   1.316   5.135   3.795  0.1650 -1.6066  0.6749
 6232TIP3   OH240110   4.962   2.484  16.754 -0.1584  0.4272 -0.5778
 6232TIP3    H140111   4.952   2.400  16.799 -2.3094  0.5009 -0.8365
 6232TIP3    H240112   4.938   2.465  16.663 -0.9252  1.3668 -0.5825
 6233TIP3   OH240113   4.401   2.187   6.157 -0.1935 -0.1050 -0.1643
 6233TIP3    H140114   4.373   2.101   6.127  0.6360 -0.8505  1.0741
 6233TIP3    H240115   4.479   2.169   6.211 -0.6570  1.2863  1.0366
 6234TIP3   OH240116   1.194   1.291  13.200 -0.9719  0.1200 -0.1407
 6234TIP3    H140117   1.281   1.327  13.215 -0.7493  1.9367 -4.1856
 6234TIP3    H240118   1.137   1.339  13.260  0.5543  0.0910  1.3971
 6235TIP3   OH240119   5.852   3.594   1.222  0.5599  0.0661  0.3109
 6235TIP3    H140120   5.859   3.689   1.231  0.4077  0.7690 -4.3644
 6235TIP3    H240121   5.758   3.578   1.214  0.6900  0.1781 -2.4487
 6236TIP3   OH240122   3.632   1.981  12.529  0.1216  0.3475  0.0717
 6236TIP3    H140123   3.715   1.958  12.569  0.3043  2.2064  0.8689
 6236TIP3    H240124   3.583   1.899  12.527  1.2285 -0.3920  1.4110
 6237TIP3   OH240125   5.141   1.938  12.026  0.0742 -0.2924 -0.3714
 6237TIP3    H140126   5.103   1.859  12.064  0.2287  0.1408  0.7215
 6237TIP3    H240127   5.070   2.003  12.030 -0.1505 -0.4261 -1.5375
 6238TIP3   OH240128   1.368   6.470   5.308 -0.1310 -0.3935  0.6285
 6238TIP3    H140129   1.386   6.490   5.216 -0.0685 -0.9137  0.5247
 6238TIP3    H240130   1.369   6.375   5.312 -3.1178 -0.5310  0.5683
 6239TIP3   OH240131   4.141   4.243   1.504 -0.1678 -0.1979 -1.0722
 6239TIP3    H140132   4.099   4.315   1.456  1.8600  0.4254 -2.0217
 6239TIP3    H240133   4.088   4.233   1.583 -0.1197  2.8418 -0.5402
 6240TIP3   OH240134   6.286   5.227   5.593  0.7040  0.8535 -0.0969
 6240TIP3    H140135   6.344   5.303   5.598  0.3715  1.1950 -1.1907
 6240TIP3    H240136   6.255   5.215   5.682  0.3974  2.2936  0.0173
 6241TIP3   OH240137   4.664   2.697   2.069  0.8447 -0.0924 -0.1079
 6241TIP3    H140138   4.589   2.707   2.011 -0.4516 -0.4423  1.4408
 6241TIP3    H240139   4.653   2.610   2.108  2.2330 -0.2772 -0.0649
 6242TIP3   OH240140   6.011   0.949  14.523 -0.3022 -0.2491 -0.2199
 6242TIP3    H140141   5.995   1.001  14.445 -0.1099  0.9195  0.5084
 6242TIP3    H240142   6.058   1.007  14.583  2.0031 -1.9635 -0.2553
 6243TIP3   OH240143   0.292   1.933  17.217 -0.4004  0.0464  0.3298
 6243TIP3    H140144   0.233   1.917  17.143  0.0449  0.5493 -0.1468
 6243TIP3    H240145   0.364   1.984  17.179  0.0978 -0.1409  1.0035
 6244TIP3   OH240146   0.793   2.583   5.419  0.4259 -0.0327  0.6592
 6244TIP3    H140147   0.777   2.654   5.480 -0.2953  1.3995 -1.0861
 6244TIP3    H240148   0.881   2.551   5.441  0.0362  0.1705  2.6287
 6245TIP3   OH240149   2.458   3.234   2.238  0.2308 -0.7820 -0.1426
 6245TIP3    H140150   2.535   3.286   2.259 -0.1410 -0.0896 -0.4577
 6245TIP3    H240151   2.442   3.180   2.316  0.7276 -0.5632  0.1106
 6246TIP3   OH240152   3.462   0.729  11.519  0.0558 -0.0703 -0.0928
 6246TIP3    H140153   3.369   0.728  11.541  0.5154  1.1718  2.2372
 6246TIP3    H240154   3.468   0.788  11.444 -1.0503 -0.3880 -0.4545
 6247TIP3   OH240155   2.186   0.829   5.671  0.3228  0.8713  0.7701
 6247TIP3    H140156   2.134   0.835   5.591  1.3446 -0.0671  0.0111
 6247TIP3    H240157   2.151   0.752   5.716  1.2566  0.0272  0.0859
 6248TIP3   OH240158   5.571   5.400  16.081 -0.0982 -0.0849 -0.5162
 6248TIP3    H140159   5.504   5.438  16.138  0.5028 -1.0599  0.9001
 6248TIP3    H240160   5.578   5.462  16.008 -2.1806  0.2852 -0.4731
 6249TIP3   OH240161   4.004   1.069  12.790 -0.1563 -0.4450 -0.3701
 6249TIP3    H140162   4.016   0.993  12.847 -1.0999 -1.4045 -1.4168
 6249TIP3    H240163   3.976   1.139  12.850  0.2987 -1.0273  0.5414
 6250TIP3   OH240164   5.862   2.254  11.915  0.1209  0.1744  0.4220
 6250TIP3    H140165   5.775   2.216  11.907 -0.5150  1.1958  2.1373
 6250TIP3    H240166   5.856   2.338  11.869  0.0184  0.4961  1.0109
 6251TIP3   OH240167   3.163   1.964   5.673 -0.1212 -0.3687 -0.4557
 6251TIP3    H140168   3.147   1.994   5.584 -2.3703 -1.6709 -0.5718
 6251TIP3    H240169   3.076   1.954   5.711  0.7733 -0.2411  1.7687
 6252TIP3   OH240170   0.130   0.041  11.028  0.6489  0.4232  0.1190
 6252TIP3    H140171   0.098   0.123  10.990  1.0549 -0.0843 -1.4075
 6252TIP3    H240172   0.207   0.066  11.079  1.0828  0.9394 -0.7679
 6253TIP3   OH240173   6.599   1.155   2.249  0.2459  0.3502 -0.6477
 6253TIP3    H140174   6.563   1.132   2.164  1.2255  0.9604 -1.2427
 6253TIP3    H240175   6.672   1.094   2.262  1.3299  1.4960 -1.1481
 6254TIP3   OH240176   1.461   3.143  16.575  0.0808 -0.2356  0.3158
 6254TIP3    H140177   1.484   3.050  16.575 -0.5326 -0.3982  1.3008
 6254TIP3    H240178   1.399   3.151  16.502 -0.0171 -0.6469  0.3478
 6255TIP3   OH240179   4.860   3.891  11.734  0.0867 -0.1416 -0.2731
 6255TIP3    H140180   4.951   3.919  11.747  0.0484  0.2541 -0.8411
 6255TIP3    H240181   4.829   3.870  11.822  0.2029  1.3619  0.1457
 6256TIP3   OH240182   5.425   4.954   4.297 -0.1567  0.1463  0.2409
 6256TIP3    H140183   5.361   4.988   4.359  0.0070 -0.8687  0.9904
 6256TIP3    H240184   5.509   4.965   4.342  0.3244  2.0808 -0.9902
 6257TIP3   OH240185   4.353   5.011   0.688 -0.3602 -0.0639 -0.2939
 6257TIP3    H140186   4.279   5.017   0.628 -1.0193 -1.1418  0.3780
 6257TIP3    H240187   4.383   4.920   0.680 -0.8456 -0.4017  1.4241
 6258TIP3   OH240188   6.344   5.312   0.906 -0.1725  0.2098  0.2228
 6258TIP3    H140189   6.397   5.388   0.883 -0.3615  0.2123 -0.1966
 6258TIP3    H240190   6.408   5.248   0.938  0.0900  0.1940 -0.3249
 6259TIP3   OH240191   3.534   6.069   6.044 -0.2768 -0.6515 -0.7775
 6259TIP3    H140192   3.522   6.141   6.106  1.9827  1.4074 -2.5168
 6259TIP3    H240193   3.501   6.102   5.961 -0.6348 -2.2497 -1.3112
 6260TIP3   OH240194   0.105   3.996   5.739 -0.0871 -0.6674  0.1480
 6260TIP3    H140195   0.043   3.924   5.730  0.2356 -0.9168 -0.0915
 6260TIP3    H240196   0.108   4.036   5.652 -1.0813  0.3130  0.5429
 6261TIP3   OH240197   1.896   5.199   7.052 -0.6966 -0.4102  0.0016
 6261TIP3    H140198   1.882   5.210   6.958  0.1344  0.7836 -0.0106
 6261TIP3    H240199   1.897   5.288   7.087  2.0879 -0.6103  0.6663
 6262TIP3   OH240200   5.853   5.446   4.000  0.2823  0.2932  0.6253
 6262TIP3    H140201   5.768   5.424   4.038  0.1509  1.2887  0.9324
 6262TIP3    H240202   5.849   5.412   3.911 -0.9971  1.5863  0.1585
 6263TIP3   OH240203   1.157   5.186   4.611  0.9800  0.6289  0.8510
 6263TIP3    H140204   1.068   5.218   4.598  1.1286  0.7377  0.0374
 6263TIP3    H240205   1.147   5.112   4.671  0.5996  1.9275  2.4408
 6264TIP3   OH240206   0.687   1.272   0.531 -0.5195  0.2095 -0.0522
 6264TIP3    H140207   0.616   1.247   0.591 -0.5110  0.7101  0.1716
 6264TIP3    H240208   0.755   1.307   0.588  0.1941 -0.8870 -0.2063
 6265TIP3   OH240209   6.392   2.276  13.516 -0.0251  0.0046  0.4931
 6265TIP3    H140210   6.423   2.188  13.534 -1.0045 -0.3345  0.5793
 6265TIP3    H240211   6.461   2.333  13.551  0.3227 -0.7118  1.0062
 6266TIP3   OH240212   1.798   0.621   4.599 -0.4879  0.6703 -0.2707
 6266TIP3    H140213   1.743   0.544   4.581 -2.0409  1.9486 -1.2927
 6266TIP3    H240214   1.841   0.639   4.516  0.7138  0.3185  0.2490
 6267TIP3   OH240215   6.087   3.581  13.239 -0.3193  0.0785 -0.3142
 6267TIP3    H140216   6.090   3.676  13.223 -0.6134  0.2889  0.7838
 6267TIP3    H240217   6.173   3.560  13.276  0.3729 -0.4111 -2.0904
 6268TIP3   OH240218   6.315   5.173   2.277 -0.0161  0.4116  0.1944
 6268TIP3    H140219   6.290   5.082   2.260  0.9258 -0.0329  1.0225
 6268TIP3    H240220   6.234   5.222   2.270 -0.4777 -0.4413 -0.6421
 6269TIP3   OH240221   0.251   4.735   1.782  0.1797  0.2266  0.3204
 6269TIP3    H140222   0.243   4.641   1.766  1.7072  0.1355 -0.1382
 6269TIP3    H240223   0.303   4.767   1.708 -1.5551  1.7193 -0.3017
 6270TIP3   OH240224   2.993   4.402  14.064  0.0516 -0.4891  0.2057
 6270TIP3    H140225   3.014   4.477  14.007 -1.0109 -0.6375 -0.3946
 6270TIP3    H240226   2.900   4.409  14.081  0.0716 -1.2945  0.7205
 6271TIP3   OH240227   0.245   0.446   5.398  0.4104 -0.2833  0.3057
 6271TIP3    H140228   0.318   0.446   5.459 -1.0585  0.3309  2.1453
 6271TIP3    H240229   0.207   0.359   5.404 -0.7064  0.2545  1.5511
 6272TIP3   OH240230   3.673   6.547  12.574 -0.2912  0.3960  0.2367
 6272TIP3    H140231   3.624   6.624  12.547  1.0177  1.0667 -0.2880
 6272TIP3    H240232   3.721   6.576  12.652  2.8353  1.2210 -1.8530
 6273TIP3   OH240233   5.661   0.803   0.280 -0.0671 -0.6409  0.6062
 6273TIP3    H140234   5.723   0.741   0.320  0.3428  0.0109  0.9857
 6273TIP3    H240235   5.716   0.860   0.226 -0.5817 -1.3434 -0.7070
 6274TIP3   OH240236   5.369   5.297   5.654 -0.1782  0.1359 -0.2415
 6274TIP3    H140237   5.361   5.382   5.611 -1.9146  0.0703 -0.1186
 6274TIP3    H240238   5.388   5.236   5.582 -0.1347  0.4465 -0.4971
 6275TIP3   OH240239   2.397   2.061  15.950 -0.4726  0.0499 -0.0998
 6275TIP3    H140240   2.485   2.068  15.986  1.1697 -2.5837 -3.0899
 6275TIP3    H240241   2.363   2.150  15.950  3.6613  1.8736 -2.0973
 6276TIP3   OH240242   0.953   4.731  16.437  0.1600  0.2054 -0.3530
 6276TIP3    H140243   0.953   4.706  16.529  0.2033  0.8051 -0.1809
 6276TIP3    H240244   0.893   4.670  16.395  0.4423 -0.3205  0.0026
 6277TIP3   OH240245   5.784   0.069  15.469  0.7833  0.4947  0.0900
 6277TIP3    H140246   5.762   0.162  15.459 -0.2882  0.4865  1.8131
 6277TIP3    H240247   5.728   0.024  15.406  1.3716  1.0138 -0.8165
 6278TIP3   OH240248   4.120   2.615  14.536 -0.4294  0.4548  0.5928
 6278TIP3    H140249   4.209   2.608  14.571  0.0640 -0.7281 -0.8592
 6278TIP3    H240250   4.078   2.532  14.559 -0.0385 -0.4403 -1.6688
 6279TIP3   OH240251   2.491   6.381  14.514 -0.2004 -0.4947 -0.0872
 6279TIP3    H140252   2.450   6.365  14.599  0.2384  1.2128  0.4983
 6279TIP3    H240253   2.514   6.474  14.516 -0.9927 -0.1809 -2.4430
 6280TIP3   OH240254   6.316   4.414  11.651  0.1793  0.0103  0.2929
 6280TIP3    H140255   6.287   4.356  11.720 -0.6646  0.6390  0.4852
 6280TIP3    H240256   6.318   4.360  11.572 -4.3479  0.4547 -0.3813
 6281TIP3   OH240257   3.078   3.683  16.053 -0.4663 -0.6004 -0.0426
 6281TIP3    H140258   3.024   3.743  16.104 -1.2483 -1.4311  0.1364
 6281TIP3    H240259   3.109   3.619  16.118 -1.0597 -1.3794 -0.5158
 6282TIP3   OH240260   1.901   0.502  16.260  0.3566 -0.5382  0.4014
 6282TIP3    H140261   1.933   0.446  16.330 -0.2913 -2.0210 -0.4364
 6282TIP3    H240262   1.817   0.463  16.235 -0.3414  1.0840  0.0830
 6283TIP3   OH240263   3.194   0.893  12.306  0.3302 -0.1036 -0.0245
 6283TIP3    H140264   3.193   0.971  12.361  0.5235  0.6554 -1.0701
 6283TIP3    H240265   3.286   0.866  12.304  0.5514  0.6491 -1.0128
 6284TIP3   OH240266   2.454   2.017  16.762  0.1373 -0.0231  0.9756
 6284TIP3    H140267   2.359   2.031  16.763  0.0226 -0.7575  1.7866
 6284TIP3    H240268   2.468   1.953  16.692  0.5410  3.0022 -1.9740
 6285TIP3   OH240269   3.791   6.707  13.814 -0.1735  0.3031  0.5612
 6285TIP3    H140270   3.753   6.635  13.863 -0.6707 -0.4621 -0.9004
 6285TIP3    H240271   3.852   6.666  13.753 -0.7396  1.0460 -0.5501
 6286TIP3   OH240272   5.136   5.799  14.467 -0.5582  0.9223  0.1155
 6286TIP3    H140273   5.231   5.802  14.472 -0.6119  1.3721  1.7195
 6286TIP3    H240274   5.107   5.871  14.525 -1.8611  0.1869  0.4214
 6287TIP3   OH240275   5.915   5.927   2.025  0.3182 -0.5605 -0.2586
 6287TIP3    H140276   5.867   6.004   1.995  1.0446 -0.2464 -0.6345
 6287TIP3    H240277   5.863   5.893   2.097 -2.0442 -1.9257 -2.4505
 6288TIP3   OH240278   6.494   3.100  14.198  0.0009  0.0825 -0.3171
 6288TIP3    H140279   6.589   3.090  14.192  0.3093  1.2165  1.6510
 6288TIP3    H240280   6.479   3.194  14.192 -0.7196  0.1501  1.6346
 6289TIP3   OH240281   4.356   6.490  15.463  0.1617  0.1012 -0.7617
 6289TIP3    H140282   4.435   6.514  15.415 -0.1197  2.5421 -0.1214
 6289TIP3    H240283   4.386   6.478  15.553  0.1427 -1.2145 -0.9116
 6290TIP3   OH240284   0.612   3.815   4.367 -0.1231 -0.2303  0.7336
 6290TIP3    H140285   0.581   3.875   4.298  1.3870  0.4221  0.5923
 6290TIP3    H240286   0.651   3.742   4.319 -0.5210 -0.5581  0.9076
 6291TIP3   OH240287   2.731   1.458  14.801 -0.2984 -0.2539 -0.1967
 6291TIP3    H140288   2.727   1.482  14.894 -1.7611 -0.2203 -0.2502
 6291TIP3    H240289   2.697   1.534  14.754 -0.5837 -0.6705 -0.6789
 6292TIP3   OH240290   4.945   6.686   2.602  0.4463  0.2971 -0.1269
 6292TIP3    H140291   4.884   6.703   2.673 -0.0661  0.0888 -0.5115
 6292TIP3    H240292   5.019   6.642   2.643 -0.6412 -1.4752  0.0004
 6293TIP3   OH240293   4.717   5.878   1.180  0.0512  0.2716 -0.1123
 6293TIP3    H140294   4.799   5.838   1.209  0.1966  0.0728 -0.7842
 6293TIP3    H240295   4.682   5.817   1.115 -1.7585 -0.7629  1.7405
 6294TIP3   OH240296   6.030   5.299   0.938 -0.1376  0.1465  0.2317
 6294TIP3    H140297   6.070   5.326   1.020  0.9299  0.4862 -0.3832
 6294TIP3    H240298   6.103   5.267   0.885 -0.4345  2.0344 -1.4251
 6295TIP3   OH240299   1.004   0.094   4.184 -0.0001 -0.0234  0.6324
 6295TIP3    H140300   0.947   0.066   4.112 -1.1672  1.8018  0.7765
 6295TIP3    H240301   0.976   0.042   4.259  1.1108 -1.8250 -0.1420
 6296TIP3   OH240302   0.693   1.774  11.606  0.1323  0.4973  0.1355
 6296TIP3    H140303   0.605   1.796  11.638 -1.3240  1.7493 -4.0566
 6296TIP3    H240304   0.722   1.852  11.560  2.6362 -0.5751 -0.2696
 6297TIP3   OH240305   5.929   1.902  11.371  0.6203 -0.3301 -0.2403
 6297TIP3    H140306   5.992   1.872  11.437 -1.6851 -2.2972  1.2548
 6297TIP3    H240307   5.884   1.823  11.343 -1.0753  0.9550 -1.3418
 6298TIP3   OH240308   6.067   0.200   1.642 -0.1966  0.6172  0.4744
 6298TIP3    H140309   6.012   0.137   1.597  0.9656 -0.9387  1.1667
 6298TIP3    H240310   6.046   0.284   1.601 -0.4214 -0.4681 -1.7709
 6299TIP3   OH240311   1.984   0.754   3.087 -0.2377 -0.3730  0.8532
 6299TIP3    H140312   1.981   0.688   3.018 -1.0257 -1.6902  2.0951
 6299TIP3    H240313   1.900   0.799   3.081  0.3380  0.6486 -0.0584
 6300TIP3   OH240314   5.000   5.094   1.633  0.3564 -0.0893 -0.4107
 6300TIP3    H140315   5.087   5.108   1.595  1.6009  0.0741  2.2646
 6300TIP3    H240316   4.959   5.181   1.630  2.1099  0.9965  2.2413
 6301TIP3   OH240317   4.405   6.252   5.368 -0.2731  0.1302  1.2126
 6301TIP3    H140318   4.385   6.342   5.395 -0.3742 -0.0415  1.7182
 6301TIP3    H240319   4.485   6.260   5.316 -1.3505  0.7630 -0.4360
 6302TIP3   OH240320   1.348   4.190   3.367 -0.5471  0.2618 -0.1867
 6302TIP3    H140321   1.417   4.128   3.391 -0.7465 -0.1075 -0.5443
 6302TIP3    H240322   1.382   4.275   3.392  0.1343  0.1102 -0.5632
 6303TIP3   OH240323   2.444   2.627  13.734 -0.1081  0.3940 -0.1700
 6303TIP3    H140324   2.367   2.646  13.681 -0.6348  1.5244  0.9567
 6303TIP3    H240325   2.475   2.713  13.763  1.6567 -0.0252 -0.6935
 6304TIP3   OH240326   3.041   3.769  13.023 -0.3798  0.3014  0.0945
 6304TIP3    H140327   3.137   3.779  13.021 -0.5598  2.2672 -0.3808
 6304TIP3    H240328   3.016   3.791  13.113 -0.2883 -1.7506  0.6725
 6305TIP3   OH240329   4.374   3.794   0.939  0.0738  0.0181  0.0825
 6305TIP3    H140330   4.321   3.827   0.867 -0.1473  1.5773  0.9116
 6305TIP3    H240331   4.414   3.714   0.905 -0.8657  0.1385 -1.3869
 6306TIP3   OH240332   5.598   5.221   3.268  0.4238 -0.1081  0.3244
 6306TIP3    H140333   5.693   5.224   3.273  0.3538 -0.0352  2.4605
 6306TIP3    H240334   5.571   5.312   3.282  0.0366  0.2799 -2.3785
 6307TIP3   OH240335   1.687   5.263  11.439 -0.3279 -0.9539 -0.0259
 6307TIP3    H140336   1.734   5.291  11.360 -0.4460 -0.0712  0.2150
 6307TIP3    H240337   1.605   5.226  11.407 -0.0101 -1.3741 -0.3681
 6308TIP3   OH240338   3.518   3.275  15.469  0.0909 -0.0287  0.1068
 6308TIP3    H140339   3.484   3.345  15.524  1.0801  0.6608 -0.1352
 6308TIP3    H240340   3.492   3.299  15.380 -1.6062 -1.1987  0.2256
 6309TIP3   OH240341   3.831   6.539  13.295 -0.1388 -0.2550 -0.7877
 6309TIP3    H140342   3.740   6.511  13.291 -0.4758  0.2785  1.6115
 6309TIP3    H240343   3.882   6.459  13.288 -0.8507 -0.7307 -0.5757
 6310TIP3   OH240344   5.151   1.791  14.538 -0.5423 -0.2715 -0.3449
 6310TIP3    H140345   5.096   1.805  14.615  1.3923  2.2497  0.7127
 6310TIP3    H240346   5.170   1.879  14.505  1.8708 -1.0586 -1.3144
 6311TIP3   OH240347   1.967   0.262  12.854  0.2440  0.7314 -0.4533
 6311TIP3    H140348   1.952   0.280  12.946  0.1628 -1.2877 -0.0103
 6311TIP3    H240349   1.914   0.184  12.837  2.5199 -0.7000 -1.4244
 6312TIP3   OH240350   4.678   0.462  15.706  0.1231  0.4205 -0.2308
 6312TIP3    H140351   4.648   0.546  15.672  0.6212  0.8860  0.4453
 6312TIP3    H240352   4.685   0.475  15.801 -1.4403 -0.9150  0.1121
 6313TIP3   OH240353   1.572   1.713   3.066 -0.0389 -0.6092 -1.2109
 6313TIP3    H140354   1.506   1.731   2.998 -0.5168  0.8174 -0.3954
 6313TIP3    H240355   1.648   1.764   3.040 -0.5461  0.7094 -0.2120
 6314TIP3   OH240356   1.242   4.056  14.573 -0.0650  0.1746 -0.4355
 6314TIP3    H140357   1.335   4.051  14.551  0.2631  0.8432  0.7284
 6314TIP3    H240358   1.202   3.983  14.525  0.9267  0.3304 -1.5411
 6315TIP3   OH240359   3.093   6.600  17.192  0.2930  0.4758  0.5848
 6315TIP3    H140360   3.001   6.608  17.166  0.5047  0.0858 -0.3258
 6315TIP3    H240361   3.092   6.617  17.286 -0.5294  1.7181  0.3762
 6316TIP3   OH240362   3.028   4.966  13.484  0.1810 -0.3758  0.6089
 6316TIP3    H140363   3.091   4.966  13.411 -0.5227 -2.8714 -0.1046
 6316TIP3    H240364   2.963   5.032  13.459  0.2186 -0.8286 -0.7983
 6317TIP3   OH240365   0.955   5.657  15.832  0.0440 -0.0094  0.2845
 6317TIP3    H140366   1.037   5.689  15.795 -0.4523  1.0359  0.0556
 6317TIP3    H240367   0.963   5.670  15.926 -0.5575  1.8319  0.1171
 6318TIP3   OH240368   1.578   6.293  14.067 -0.0014  0.2387  0.1919
 6318TIP3    H140369   1.523   6.232  14.116 -0.4400 -0.0455 -0.6297
 6318TIP3    H240370   1.617   6.240  13.998  1.8531  0.2910  1.1589
 6319TIP3   OH240371   3.975   0.386  17.310 -0.5871 -0.5394 -0.2584
 6319TIP3    H140372   3.919   0.410  17.384  0.8976 -1.1422  1.1059
 6319TIP3    H240373   3.915   0.346  17.247 -2.0217  0.7390  0.2355
 6320TIP3   OH240374   5.752   6.739   0.262  0.5263  0.3181 -0.3589
 6320TIP3    H140375   5.690   6.811   0.271 -1.6463 -1.5539  1.0042
 6320TIP3    H240376   5.752   6.719   0.169 -0.7883  0.5419 -0.4350
 6321TIP3   OH240377   6.676   3.657   3.561 -0.4192  0.6108 -0.1680
 6321TIP3    H140378   6.635   3.682   3.644 -1.5105  1.2915 -0.8786
 6321TIP3    H240379   6.700   3.565   3.572 -1.5136  0.3930  0.5452
 6322TIP3   OH240380   6.705   4.180  15.489 -0.2775  0.1234 -1.0662
 6322TIP3    H140381   6.701   4.137  15.574 -1.7085 -2.1872 -2.2153
 6322TIP3    H240382   6.614   4.185  15.460  0.2534 -0.1418 -2.9009
 6323TIP3   OH240383   2.984   4.897   5.964 -0.3364 -0.1936 -0.4328
 6323TIP3    H140384   2.951   4.924   6.050  1.5920  0.8309  0.0570
 6323TIP3    H240385   2.941   4.954   5.902 -1.3654 -0.5989 -0.1063
 6324TIP3   OH240386   1.923   0.723   4.969 -0.0229 -0.1718 -0.0381
 6324TIP3    H140387   1.893   0.642   5.009  0.6642 -0.7233 -0.6084
 6324TIP3    H240388   2.019   0.716   4.969  0.0450  0.6422 -0.0911
 6325TIP3   OH240389   1.352   5.996  15.834 -0.0553 -0.0050  0.1837
 6325TIP3    H140390   1.295   5.942  15.888  0.1622  0.3704  0.7914
 6325TIP3    H240391   1.434   5.946  15.829 -0.1448 -0.1395  0.0126
 6326TIP3   OH240392   4.304   5.914  14.577 -0.5331 -0.2258  0.1185
 6326TIP3    H140393   4.319   6.000  14.537 -1.6309 -0.5308 -1.0214
 6326TIP3    H240394   4.321   5.928  14.670  0.0953  1.0260 -0.1583
 6327TIP3   OH240395   0.529   5.276   3.366 -0.0424  0.4071 -0.5337
 6327TIP3    H140396   0.445   5.287   3.322 -1.0074  0.0417  1.1362
 6327TIP3    H240397   0.521   5.326   3.447  0.8850 -0.6335  0.2286
 6328TIP3   OH240398   3.900   2.671   5.260  0.4496  0.4330 -0.0343
 6328TIP3    H140399   3.902   2.764   5.285  1.1807  0.0148  1.5787
 6328TIP3    H240400   3.817   2.639   5.296 -0.4825  0.7406 -1.8015
 6329TIP3   OH240401   5.567   5.212  11.853  0.3178 -0.3704 -0.3075
 6329TIP3    H140402   5.525   5.183  11.772  0.3086  0.6483 -0.6768
 6329TIP3    H240403   5.660   5.193  11.840  0.4042  0.3765 -0.8255
 6330TIP3   OH240404   0.230   2.355   4.749 -0.2042  0.4015  0.3416
 6330TIP3    H140405   0.223   2.424   4.815  1.9960  0.6735  0.3725
 6330TIP3    H240406   0.210   2.274   4.797  0.9498  0.6375  1.2832
 6331TIP3   OH240407   1.944   6.245  12.634 -0.2246 -0.0718  0.1624
 6331TIP3    H140408   1.879   6.193  12.585 -0.4573 -0.6061  1.0201
 6331TIP3    H240409   2.006   6.181  12.668  0.7268  0.4277 -0.5651
 6332TIP3   OH240410   3.841   3.991  13.113 -0.0623  0.8603 -0.8069
 6332TIP3    H140411   3.926   4.005  13.071 -0.8061  1.3590 -2.1996
 6332TIP3    H240412   3.844   4.046  13.191  0.8740  0.9007 -0.8618
 6333TIP3   OH240413   5.265   2.949  11.443 -0.1981  0.2381 -0.3580
 6333TIP3    H140414   5.249   2.945  11.349 -0.6518 -1.1090 -0.2416
 6333TIP3    H240415   5.336   3.012  11.453  0.3852 -0.1868 -1.6666
 6334TIP3   OH240416   5.596   0.425   3.368  0.4677  0.7832  0.2824
 6334TIP3    H140417   5.672   0.390   3.323  0.7087  0.8259  0.6561
 6334TIP3    H240418   5.524   0.416   3.304  0.7966  0.8138 -0.0944
 6335TIP3   OH240419   0.078   2.477   2.760  0.6485 -0.0032  0.2543
 6335TIP3    H140420   0.058   2.411   2.826  0.9065 -0.6587 -0.3156
 6335TIP3    H240421   0.003   2.536   2.762  1.2135  0.7309  2.0189
 6336TIP3   OH240422   6.733   5.040   0.908 -0.0277 -0.1809 -0.1195
 6336TIP3    H140423   6.728   5.038   0.812  0.6972  2.1539 -0.2699
 6336TIP3    H240424   6.710   4.951   0.935 -2.6834 -0.3120 -2.3409
 6337TIP3   OH240425   6.761   4.037  16.947 -0.4598  0.6469  0.0034
 6337TIP3    H140426   6.747   3.955  16.994 -2.8198  0.6752 -0.4845
 6337TIP3    H240427   6.765   4.103  17.016 -0.2243  0.2999  0.3270
 6338TIP3   OH240428   1.021   1.131   4.638  0.0768 -0.1704 -0.7958
 6338TIP3    H140429   0.964   1.063   4.674  2.2734 -1.6648  0.1056
 6338TIP3    H240430   1.040   1.101   4.549  1.6386 -1.2222 -0.1529
 6339TIP3   OH240431   5.868   3.510   4.531 -0.7785  0.1437 -0.4607
 6339TIP3    H140432   5.778   3.543   4.530 -0.4393  1.1253 -0.3459
 6339TIP3    H240433   5.920   3.582   4.496  0.0577 -0.0989  0.2334
 6340TIP3   OH240434   5.090   0.513   2.029  0.1384  0.5105 -0.6230
 6340TIP3    H140435   5.022   0.510   1.962 -1.1362 -0.0393  0.6404
 6340TIP3    H240436   5.074   0.436   2.084 -0.0877  1.9393  1.4376
 6341TIP3   OH240437   0.182   1.612  14.210 -0.7459  0.8793 -0.5798
 6341TIP3    H140438   0.224   1.621  14.295 -1.8012  1.5598 -0.0937
 6341TIP3    H240439   0.209   1.690  14.162 -0.0778  0.4502 -0.9119
 6342TIP3   OH240440   5.089   1.126  14.744 -0.3213 -0.3640 -0.1963
 6342TIP3    H140441   5.133   1.065  14.804 -0.5805 -0.3055  0.0583
 6342TIP3    H240442   4.997   1.123  14.771 -0.2784  0.4091  0.0462
 6343TIP3   OH240443   1.099   2.839  12.084  0.0939  0.1368 -0.8094
 6343TIP3    H140444   1.155   2.915  12.099 -0.4109  0.0402  2.2443
 6343TIP3    H240445   1.011   2.871  12.103 -0.1801 -1.0350  0.0405
 6344TIP3   OH240446   6.752   3.252   2.605 -0.3286  0.7820 -0.3571
 6344TIP3    H140447   6.726   3.178   2.660  0.8741  0.8175  0.3075
 6344TIP3    H240448   6.680   3.315   2.614 -0.1046  0.8563  1.3380
 6345TIP3   OH240449   0.743   4.207  11.201 -0.7048 -0.7155 -0.1689
 6345TIP3    H140450   0.732   4.128  11.147  0.7954 -1.6572  0.8188
 6345TIP3    H240451   0.832   4.237  11.181 -0.7212 -0.1477  0.5801
 6346TIP3   OH240452   2.350   6.579  16.394  0.4380  0.1560  0.1296
 6346TIP3    H140453   2.342   6.583  16.299 -0.6298 -1.0333  0.1465
 6346TIP3    H240454   2.305   6.658  16.426  0.2072  0.2087 -0.3222
 6347TIP3   OH240455   5.289   1.627   4.830 -0.1614 -0.0131 -0.6755
 6347TIP3    H140456   5.223   1.642   4.898  0.6533  1.1564 -0.1005
 6347TIP3    H240457   5.317   1.536   4.844 -0.4691  0.0059  0.1572
 6348TIP3   OH240458   5.978   0.900  11.772  0.0874 -0.0266 -0.1722
 6348TIP3    H140459   5.903   0.840  11.772 -1.1419  1.4479  0.3407
 6348TIP3    H240460   5.940   0.986  11.790  1.7062  1.0342 -1.4977
 6349TIP3   OH240461   2.303   2.351   2.010 -0.7188 -0.2028 -0.6670
 6349TIP3    H140462   2.271   2.424   2.063 -1.8048 -0.3539 -1.0863
 6349TIP3    H240463   2.352   2.297   2.072 -0.1255  0.7292 -0.2925
 6350TIP3   OH240464   5.415   6.499  14.036  0.3759 -0.5895  0.2914
 6350TIP3    H140465   5.491   6.526  13.986  1.0746 -1.8957  0.5824
 6350TIP3    H240466   5.416   6.403  14.030 -0.4232 -0.6904  1.4828
 6351TIP3   OH240467   0.922   4.818  16.107 -0.5322  0.2566  0.4793
 6351TIP3    H140468   0.982   4.859  16.169  1.2184  0.7234 -1.4082
 6351TIP3    H240469   0.896   4.888  16.048 -0.5875 -0.5420 -0.4819
 6352TIP3   OH240470   4.619   6.506  10.632  0.3968 -0.5138  0.4411
 6352TIP3    H140471   4.528   6.509  10.603  1.0626  0.4770 -1.7538
 6352TIP3    H240472   4.633   6.589  10.678  0.1913 -0.6762  0.7980
 6353TIP3   OH240473   0.105   1.949   2.202  0.2346  0.3046 -0.0252
 6353TIP3    H140474   0.154   1.962   2.121 -1.0169  0.7500 -0.7339
 6353TIP3    H240475   0.025   1.999   2.190 -0.4370 -0.4669  1.0642
 6354TIP3   OH240476   3.291   3.481  15.559  0.3583 -0.1882 -0.7491
 6354TIP3    H140477   3.360   3.542  15.531  1.3971 -0.3725  1.1956
 6354TIP3    H240478   3.215   3.506  15.508  1.1169  1.8786 -0.9811
 6355TIP3   OH240479   5.204   1.412  11.218  0.0401 -0.3851 -0.5794
 6355TIP3    H140480   5.187   1.364  11.299 -1.7165  0.6692 -0.2864
 6355TIP3    H240481   5.300   1.420  11.215  0.1373 -0.3243  1.4642
 6356TIP3   OH240482   0.655   5.630   6.172  0.0804 -0.1461 -0.5452
 6356TIP3    H140483   0.731   5.650   6.227 -1.1802  1.4162  0.6988
 6356TIP3    H240484   0.679   5.548   6.128  1.3047 -1.2917  2.0377
 6357TIP3   OH240485   2.317   1.620  13.508 -0.1118 -0.5196  0.1635
 6357TIP3    H140486   2.267   1.660  13.578 -0.7284 -0.7214 -0.1594
 6357TIP3    H240487   2.374   1.690  13.475 -0.5521 -0.1482  0.1859
 6358TIP3   OH240488   1.920   3.447   5.049  0.0812  0.1480  0.1089
 6358TIP3    H140489   1.835   3.404   5.047  0.0987  0.1137  0.0996
 6358TIP3    H240490   1.924   3.496   4.967 -0.5006  1.2585  0.7259
 6359TIP3   OH240491   4.671   3.479  13.451 -0.2113  0.0456 -0.3104
 6359TIP3    H140492   4.634   3.402  13.406  1.3858 -0.6952 -0.4295
 6359TIP3    H240493   4.719   3.525  13.382  0.1236  0.2918  0.0851
 6360TIP3   OH240494   0.612   6.382  13.786 -0.0754 -0.5882  0.2545
 6360TIP3    H140495   0.607   6.450  13.853  0.9793 -0.1600 -0.0873
 6360TIP3    H240496   0.600   6.428  13.703 -3.2770 -1.3372  0.1326
 6361TIP3   OH240497   4.686   4.343   4.299  0.8369  0.2715  0.1221
 6361TIP3    H140498   4.671   4.249   4.292 -0.0042  0.3653  0.4660
 6361TIP3    H240499   4.747   4.353   4.372  0.6191  0.0093  0.3453
 6362TIP3   OH240500   3.597   2.902  14.519  0.0569  0.0268  0.4896
 6362TIP3    H140501   3.634   2.836  14.461 -1.3945 -1.7913  1.4920
 6362TIP3    H240502   3.611   2.867  14.607 -1.9270  0.3461  0.9908
 6363TIP3   OH240503   2.456   3.838   2.486  0.0809  0.4389  0.1078
 6363TIP3    H140504   2.482   3.747   2.470 -0.3717  0.0331  1.5013
 6363TIP3    H240505   2.535   3.881   2.517 -0.0551  0.1196  0.9153
 6364TIP3   OH240506   1.864   0.967   3.294  0.5170 -0.5176 -0.3458
 6364TIP3    H140507   1.945   0.922   3.270 -0.2392 -1.3629 -1.4122
 6364TIP3    H240508   1.795   0.904   3.277 -0.2755 -0.5128  2.4513
 6365TIP3   OH240509   2.862   5.177  13.946  0.4789  0.6126 -0.4087
 6365TIP3    H140510   2.829   5.098  13.903  0.1283  0.4839  0.0890
 6365TIP3    H240511   2.934   5.207  13.890 -0.8709  1.2486 -1.8657
 6366TIP3   OH240512   1.792   4.875   1.696  0.3166  0.2659 -0.4757
 6366TIP3    H140513   1.798   4.969   1.680 -1.5519  0.8454  1.7005
 6366TIP3    H240514   1.879   4.851   1.729 -0.1442  2.0816  2.4431
 6367TIP3   OH240515   6.535   1.811  13.112  0.4611 -0.1184 -0.0523
 6367TIP3    H140516   6.461   1.810  13.172  0.7541  2.2868  0.4431
 6367TIP3    H240517   6.612   1.806  13.169  0.7692  3.0889 -0.0143
 6368TIP3   OH240518   3.157   5.353  11.600  0.2799  0.1222  0.2401
 6368TIP3    H140519   3.200   5.300  11.667 -0.4190  0.5103  1.0013
 6368TIP3    H240520   3.225   5.367  11.534  1.2620  0.5320  1.3051
 6369TIP3   OH240521   4.461   4.407  14.916 -0.1773 -0.0136 -0.1209
 6369TIP3    H140522   4.418   4.329  14.880  0.9412 -0.5411 -0.3590
 6369TIP3    H240523   4.520   4.435  14.846  1.6048 -0.7062  1.0584
 6370TIP3   OH240524   2.062   4.757  14.035  0.1787  0.2657  0.1534
 6370TIP3    H140525   2.066   4.846  14.071 -1.9248  0.2713  0.4999
 6370TIP3    H240526   2.115   4.705  14.095  0.7803  1.1421  0.4112
 6371TIP3   OH240527   1.106   4.714   6.738  0.1056 -0.3530  0.0351
 6371TIP3    H140528   1.139   4.632   6.702  0.3409 -0.9261  1.5211
 6371TIP3    H240529   1.185   4.763   6.763 -0.0324  0.3226 -0.7837
 6372TIP3   OH240530   1.768   0.592  14.914  0.5164 -0.1252 -0.1979
 6372TIP3    H140531   1.686   0.585  14.962 -0.8606  0.6618 -2.2740
 6372TIP3    H240532   1.818   0.658  14.962 -0.2677 -0.2447  0.8199
 6373TIP3   OH240533   5.914   5.642   2.121  0.6559  0.1929 -0.1609
 6373TIP3    H140534   5.858   5.687   2.185  0.6247 -1.7024  1.2107
 6373TIP3    H240535   5.998   5.634   2.165  1.8991  2.3516 -1.9335
 6374TIP3   OH240536   2.801   1.370   4.411 -0.3124  0.0087 -0.5588
 6374TIP3    H140537   2.787   1.400   4.501 -0.9463  0.5319 -0.8176
 6374TIP3    H240538   2.712   1.359   4.376 -0.0909 -1.3340 -0.7607
 6375TIP3   OH240539   2.507   4.650  14.938  0.6960 -0.0370  0.3087
 6375TIP3    H140540   2.576   4.715  14.955  0.0510  0.2682  1.9410
 6375TIP3    H240541   2.431   4.683  14.987 -0.7806 -0.1149 -1.8340
 6376TIP3   OH240542   0.008   4.287  16.163 -0.3979  0.1867 -0.0065
 6376TIP3    H140543  -0.054   4.321  16.228  1.7564  0.3555  2.0848
 6376TIP3    H240544   0.046   4.210  16.205  2.0540  1.0711 -0.4302
 6377TIP3   OH240545   0.433   0.119   5.758 -0.4324 -0.3085 -0.0871
 6377TIP3    H140546   0.491   0.069   5.816  1.9665  1.1729 -1.0190
 6377TIP3    H240547   0.487   0.192   5.728 -2.1930  0.0999 -2.6109
 6378TIP3   OH240548   6.440   6.458  12.371  0.2172  0.4487  0.3462
 6378TIP3    H140549   6.403   6.546  12.379 -0.0484  0.2262  1.7955
 6378TIP3    H240550   6.456   6.430  12.461  0.9900 -0.7039 -0.1239
 6379TIP3   OH240551   4.482   6.686   1.651  0.1150 -0.1058  0.1855
 6379TIP3    H140552   4.485   6.758   1.589 -1.8104 -0.6278 -0.5975
 6379TIP3    H240553   4.481   6.607   1.597 -1.5126 -0.5749  0.8422
 6380TIP3   OH240554   3.558   3.116   5.354 -0.6023  0.0193 -0.0063
 6380TIP3    H140555   3.653   3.129   5.359 -0.0930 -2.3963 -1.7443
 6380TIP3    H240556   3.532   3.167   5.277 -0.5668  0.0026 -0.0296
 6381TIP3   OH240557   5.350   5.411   0.331 -0.7355  0.3252  0.3738
 6381TIP3    H140558   5.436   5.406   0.372  0.1736  0.5822 -1.3841
 6381TIP3    H240559   5.331   5.504   0.326 -0.1710  0.3902 -1.0190
 6382TIP3   OH240560   4.763   4.932  16.111  0.9269 -0.2244 -0.0631
 6382TIP3    H140561   4.819   4.869  16.157 -1.0600 -0.8052  1.7278
 6382TIP3    H240562   4.700   4.879  16.064 -0.0180  0.3958  0.4678
 6383TIP3   OH240563   5.075   6.173  15.655  0.3200 -0.0400 -0.1203
 6383TIP3    H140564   5.029   6.232  15.595  0.6678  0.7740  0.3983
 6383TIP3    H240565   5.118   6.231  15.717  3.3060 -0.6637 -1.4269
 6384TIP3   OH240566   2.826   1.976   2.376 -0.1787 -0.4316 -0.6848
 6384TIP3    H140567   2.892   1.990   2.444  0.6072 -0.1722 -1.4762
 6384TIP3    H240568   2.822   1.881   2.365 -2.1071 -0.6979  1.4044
 6385TIP3   OH240569   3.751   1.340   0.191 -0.0638  0.0403  0.6389
 6385TIP3    H140570   3.764   1.394   0.113  0.9530 -0.1796  0.6478
 6385TIP3    H240571   3.665   1.367   0.225 -0.3644  0.3659 -0.3644
 6386TIP3   OH240572   1.682   3.065   5.858 -0.6072  0.2100  0.0761
 6386TIP3    H140573   1.639   2.988   5.897  0.2516  0.1088  0.8640
 6386TIP3    H240574   1.726   3.107   5.931  1.3979 -0.2109 -0.8163
 6387TIP3   OH240575   2.402   3.546  17.191 -0.2235 -0.1937 -0.2275
 6387TIP3    H140576   2.361   3.598  17.122 -1.0969  1.5850  1.5363
 6387TIP3    H240577   2.369   3.457  17.176  0.3322 -0.0762 -2.5836
 6388TIP3   OH240578   6.147   3.069   3.733  0.5356 -0.2042  0.0025
 6388TIP3    H140579   6.134   2.977   3.713  1.5160 -0.7702  1.7274
 6388TIP3    H240580   6.213   3.098   3.670 -1.7188  0.1236 -2.3614
 6389TIP3   OH240581   0.646   2.496   5.696 -0.2885  0.2723  0.1548
 6389TIP3    H140582   0.624   2.571   5.751  0.0756  0.3464  0.2004
 6389TIP3    H240583   0.565   2.445   5.692 -0.0308 -0.3215  1.6796
 6390TIP3   OH240584   4.119   6.676  12.717 -0.1716 -0.1555 -0.1270
 6390TIP3    H140585   4.167   6.605  12.674 -0.6372 -1.0876  0.8360
 6390TIP3    H240586   4.137   6.664  12.810  0.1763  1.3428  0.0129
 6391TIP3   OH240587   6.153   2.615  15.698 -0.4756 -0.0077 -0.7994
 6391TIP3    H140588   6.110   2.688  15.742  0.0221 -0.2256  0.0772
 6391TIP3    H240589   6.083   2.570  15.651 -0.6720  1.4334 -1.9645
 6392TIP3   OH240590   5.697   0.100  16.720 -0.6632  0.1181  0.3360
 6392TIP3    H140591   5.729   0.190  16.723  1.4967 -0.6101  2.1172
 6392TIP3    H240592   5.776   0.046  16.718 -1.9010 -1.7645 -0.6294
 6393TIP3   OH240593   1.245   3.763  14.721 -0.3609  0.0355  0.5575
 6393TIP3    H140594   1.211   3.847  14.753 -1.0399 -0.1209  0.2614
 6393TIP3    H240595   1.340   3.774  14.721 -0.4876  1.4386 -1.1456
 6394TIP3   OH240596   5.422   0.234   4.262 -0.5686  0.1524 -0.0175
 6394TIP3    H140597   5.348   0.206   4.210  0.0391  0.1641 -0.9052
 6394TIP3    H240598   5.473   0.155   4.277 -1.4384 -0.1295  1.7737
 6395TIP3   OH240599   3.108   5.279  16.239 -0.0909 -0.5087 -0.0310
 6395TIP3    H140600   3.112   5.345  16.170 -1.0137  0.9159  1.2295
 6395TIP3    H240601   3.158   5.205  16.203 -0.9572 -0.0355 -2.4075
 6396TIP3   OH240602   1.507   0.511  11.347 -0.2561 -0.1781  0.2984
 6396TIP3    H140603   1.520   0.430  11.396  0.5177  0.4728  1.2165
 6396TIP3    H240604   1.551   0.495  11.263 -0.7186 -0.9537  0.1942
 6397TIP3   OH240605   6.535   6.486  13.236 -0.4424 -0.5090  0.5460
 6397TIP3    H140606   6.490   6.550  13.180  1.4466 -0.0272 -0.5137
 6397TIP3    H240607   6.568   6.538  13.310  3.9300  0.6649 -1.8796
 6398TIP3   OH240608   3.190   5.777  15.283 -0.2570  0.3966  0.1435
 6398TIP3    H140609   3.192   5.849  15.221  0.5259  1.8328  1.7409
 6398TIP3    H240610   3.126   5.803  15.349 -0.4110 -0.6689  0.4423
 6399TIP3   OH240611   3.812   1.954   6.484  0.0074  0.0575  0.1763
 6399TIP3    H140612   3.810   1.934   6.390 -0.7673  0.8463  0.0079
 6399TIP3    H240613   3.792   1.870   6.526  0.6911 -0.3758 -0.3459
 6400TIP3   OH240614   2.759   4.330  12.329 -0.0714  0.5937  0.1725
 6400TIP3    H140615   2.828   4.351  12.392  1.1559 -1.8436 -0.2145
 6400TIP3    H240616   2.782   4.379  12.250  1.6897 -0.6932 -0.1779
 6401TIP3   OH240617   5.601   6.309   4.469 -0.4663  0.7115 -0.1159
 6401TIP3    H140618   5.607   6.393   4.515  1.1279  0.1471  0.7716
 6401TIP3    H240619   5.543   6.256   4.523  0.8755  0.2759  0.9471
 6402TIP3   OH240620   5.574   4.300  17.257 -0.2303  0.4328 -1.0048
 6402TIP3    H140621   5.581   4.222  17.312  3.2501  0.4197 -1.2697
 6402TIP3    H240622   5.541   4.368  17.315  2.8541  0.2936  1.1010
 6403TIP3   OH240623   0.162   0.683   4.707 -0.6348 -0.1948  0.2670
 6403TIP3    H140624   0.078   0.638   4.719 -0.3944 -0.5780  0.5474
 6403TIP3    H240625   0.168   0.741   4.782 -0.7854  0.0506  0.0891
 6404TIP3   OH240626   2.629   6.188   5.152 -0.1437 -0.0804 -0.1189
 6404TIP3    H140627   2.552   6.165   5.100 -0.9604  1.9600  0.0704
 6404TIP3    H240628   2.610   6.276   5.185  1.8803  0.1013  0.7282
 6405TIP3   OH240629   1.228   3.873  13.308 -0.0580 -0.1505 -0.0169
 6405TIP3    H140630   1.235   3.864  13.213 -0.5144  2.3073 -0.3336
 6405TIP3    H240631   1.301   3.821  13.342  0.6721 -0.3225 -1.7526
 6406TIP3   OH240632   4.757   1.893  14.506 -0.5879 -0.5359  0.0953
 6406TIP3    H140633   4.784   1.803  14.523 -0.6649 -0.7841 -1.0298
 6406TIP3    H240634   4.835   1.945  14.525  0.1937 -1.0820 -1.4186
 6407TIP3   OH240635   3.580   3.611  11.442 -0.0329 -0.0785  0.2412
 6407TIP3    H140636   3.527   3.690  11.431 -1.4461 -0.8700  1.1064
 6407TIP3    H240637   3.616   3.594  11.355 -0.0328  1.2775 -0.0449
 6408TIP3   OH240638   4.581   5.239   6.434 -0.1882 -0.0415  0.5286
 6408TIP3    H140639   4.617   5.323   6.461 -1.2282  0.1861  1.2440
 6408TIP3    H240640   4.550   5.254   6.344 -0.1594  0.2780  0.5708
 6409TIP3   OH240641   0.249   5.742   3.333  0.4573 -0.0875  0.3693
 6409TIP3    H140642   0.303   5.741   3.412  0.7880  2.2660  0.2502
 6409TIP3    H240643   0.184   5.810   3.350 -0.3589 -0.5312 -0.8521
 6410TIP3   OH240644   0.294   0.192   6.780 -0.0833  0.1933 -0.0343
 6410TIP3    H140645   0.318   0.278   6.812 -0.0274  0.5007 -0.8639
 6410TIP3    H240646   0.354   0.132   6.824  0.3018  0.6482  0.0674
 6411TIP3   OH240647   4.913   6.553   2.301  0.3248  0.1301 -0.0083
 6411TIP3    H140648   4.951   6.617   2.241 -2.6912 -0.7230 -3.1374
 6411TIP3    H240649   4.964   6.474   2.287  0.4111  0.2757 -0.5212
 6412TIP3   OH240650   1.913   1.331  13.121 -0.1237 -0.1266  0.3348
 6412TIP3    H140651   1.896   1.366  13.209  1.0853  1.3905  0.0048
 6412TIP3    H240652   1.940   1.407  13.070 -3.0578 -0.4951 -2.0402
 6413TIP3   OH240653   5.186   2.097   5.899  0.2412 -0.1054  0.0827
 6413TIP3    H140654   5.165   2.164   5.965  0.4779  0.4147 -0.3610
 6413TIP3    H240655   5.199   2.017   5.949 -0.9280 -0.0286  0.5491
 6414TIP3   OH240656   0.563   1.176   3.194 -0.1828 -0.4451  0.2685
 6414TIP3    H140657   0.540   1.178   3.101 -2.3045 -0.3964  0.7452
 6414TIP3    H240658   0.651   1.212   3.197  0.3738 -1.4463 -1.8280
 6415TIP3   OH240659   1.581   0.754  13.959  0.0966  0.7223  0.1687
 6415TIP3    H140660   1.623   0.686  14.012 -1.2226 -0.8770 -0.7436
 6415TIP3    H240661   1.490   0.756  13.989  0.1303  2.2147  0.2661
 6416TIP3   OH240662   0.963   5.241   5.021  0.2500  0.0315  0.5309
 6416TIP3    H140663   0.959   5.148   5.046 -0.9677  0.0834  0.5972
 6416TIP3    H240664   1.032   5.277   5.077 -0.2562 -0.5391  1.5696
 6417TIP3   OH240665   5.068   0.530  11.722 -0.5639 -0.0016 -0.5127
 6417TIP3    H140666   5.122   0.477  11.663 -0.9322 -2.5141  1.2141
 6417TIP3    H240667   5.032   0.600  11.667  0.5918 -1.1021 -2.7845
 6418TIP3   OH240668   1.924   6.426  15.404 -0.4074  0.1813 -0.5191
 6418TIP3    H140669   1.937   6.331  15.410  2.5596  0.4451 -1.2549
 6418TIP3    H240670   1.910   6.442  15.311  0.6044  0.5797 -0.6136
 6419TIP3   OH240671   6.281   0.194   3.139  0.7534  0.3088 -0.2476
 6419TIP3    H140672   6.315   0.125   3.196  0.1641  0.6123  0.4784
 6419TIP3    H240673   6.225   0.148   3.076  0.9213  0.0448 -0.2062
 6420TIP3   OH240674   2.231   0.386   5.093 -0.1989  0.3846 -0.0683
 6420TIP3    H140675   2.174   0.444   5.143 -0.2968  1.5654 -1.5025
 6420TIP3    H240676   2.317   0.396   5.133 -0.2256  1.5099 -0.2741
 6421TIP3   OH240677   6.254   2.850  12.040 -0.0701  0.1119  0.2883
 6421TIP3    H140678   6.194   2.862  11.966 -0.6648  1.4377  0.9540
 6421TIP3    H240679   6.224   2.913  12.106  1.3848  0.0264  1.0733
 6422TIP3   OH240680   0.094   0.287  14.716 -0.1111  0.3604 -0.0595
 6422TIP3    H140681   0.030   0.234  14.763  0.7431  0.5526  1.3546
 6422TIP3    H240682   0.097   0.248  14.628 -2.5972  0.7288 -0.3807
 6423TIP3   OH240683   0.932   4.881  10.736  0.7610  0.2522  0.9015
 6423TIP3    H140684   0.914   4.936  10.812  1.4551  0.0509  1.2212
 6423TIP3    H240685   0.876   4.805  10.748  0.2496  0.6027  0.7752
 6424TIP3   OH240686   5.350   4.388  12.543  0.0535  0.3271 -0.4318
 6424TIP3    H140687   5.330   4.322  12.477 -1.1392  0.4383 -0.1982
 6424TIP3    H240688   5.445   4.400  12.537  0.0710 -0.2576 -1.5558
 6425TIP3   OH240689   6.577   3.139   5.442 -0.0332 -0.9863  0.5031
 6425TIP3    H140690   6.646   3.075   5.428 -0.3040 -0.7295 -3.1168
 6425TIP3    H240691   6.618   3.208   5.493  3.3990  0.2994 -3.3728
 6426TIP3   OH240692   6.263   5.307   3.181  0.1055  0.3104 -0.0840
 6426TIP3    H140693   6.270   5.402   3.173  0.9956  0.2421 -0.2249
 6426TIP3    H240694   6.188   5.293   3.238 -2.5837  0.9886 -3.1397
 6427TIP3   OH240695   0.418   5.042  13.445  0.2649  0.4019  0.5136
 6427TIP3    H140696   0.380   4.960  13.413 -1.7570  0.8658  1.5537
 6427TIP3    H240697   0.494   5.015  13.496 -0.8979 -0.9689  1.6323
 6428TIP3   OH240698   1.638   4.942   4.976 -0.1285 -0.1895 -0.0223
 6428TIP3    H140699   1.593   5.026   4.988  0.7651  0.2418  0.4845
 6428TIP3    H240700   1.636   4.902   5.063  1.0763  0.1676  0.1858
 6429TIP3   OH240701   2.087   1.765   2.094 -0.1140 -0.3799 -0.1509
 6429TIP3    H140702   2.101   1.837   2.033  0.1656 -0.7542 -0.5274
 6429TIP3    H240703   2.167   1.761   2.146 -0.1385 -0.4086 -0.1145
 6430TIP3   OH240704   5.597   0.365   2.305  0.2208 -0.2927 -0.0240
 6430TIP3    H140705   5.575   0.400   2.391 -0.7765 -1.4103  0.1970
 6430TIP3    H240706   5.552   0.423   2.243 -0.6143 -0.6074  0.2867
 6431TIP3   OH240707   2.908   4.803  15.485  0.0382 -0.6684  0.6174
 6431TIP3    H140708   2.915   4.821  15.391 -1.3069 -1.5300  0.3270
 6431TIP3    H240709   2.872   4.715  15.490  0.7404 -0.8991  1.9644
 6432TIP3   OH240710   2.192   6.182  16.706  0.0583 -0.2937  0.4543
 6432TIP3    H140711   2.231   6.194  16.619 -0.1514 -0.9918  0.2612
 6432TIP3    H240712   2.159   6.093  16.705  0.0605 -0.3070  1.2599
 6433TIP3   OH240713   2.624   0.562  16.123  0.3419 -0.0076 -0.7567
 6433TIP3    H140714   2.619   0.467  16.119  1.3310 -0.0441 -1.7085
 6433TIP3    H240715   2.693   0.585  16.061 -0.1568  1.3623 -0.8437
 6434TIP3   OH240716   3.848   1.136   0.009  0.3410  0.0586 -0.1183
 6434TIP3    H140717   3.774   1.080   0.030  1.7062 -1.1535  1.7596
 6434TIP3    H240718   3.822   1.223   0.039  0.0233 -0.5480  1.4361
 6435TIP3   OH240719   0.973   5.588   4.771 -0.5010 -0.2782  0.1878
 6435TIP3    H140720   0.968   5.680   4.744 -0.1158 -0.6688 -1.3662
 6435TIP3    H240721   1.022   5.546   4.700  0.3728 -1.4764  1.4532
 6436TIP3   OH240722   0.722   6.268  11.993 -0.5318  0.3731  0.5390
 6436TIP3    H140723   0.629   6.247  11.982 -0.2950 -0.0240 -0.8189
 6436TIP3    H240724   0.737   6.343  11.936  0.4876 -1.0392 -1.1605
 6437TIP3   OH240725   4.978   4.846   2.516  0.3657  0.2528  0.2613
 6437TIP3    H140726   5.011   4.779   2.575  0.1584  0.0196  0.1182
 6437TIP3    H240727   4.965   4.800   2.433  1.9510  0.8784 -0.3573
 6438TIP3   OH240728   1.929   4.151  13.280 -0.6945 -0.1828 -0.1266
 6438TIP3    H140729   1.884   4.092  13.341  0.6284 -0.2468  0.8395
 6438TIP3    H240730   1.990   4.095  13.233  0.3097  0.3348  0.5339
 6439TIP3   OH240731   1.537   2.553  11.780 -0.1824 -0.1330 -0.0927
 6439TIP3    H140732   1.460   2.608  11.793 -1.1318 -1.5922  0.6475
 6439TIP3    H240733   1.605   2.594  11.834 -1.6467 -1.1934  2.7102
 6440TIP3   OH240734   4.060   2.736  11.411  0.0511 -0.1751 -0.5392
 6440TIP3    H140735   4.076   2.644  11.432 -1.2853 -0.2564  0.2893
 6440TIP3    H240736   4.095   2.784  11.485 -0.3480 -0.1190 -0.3813
 6441TIP3   OH240737   6.569   5.834   1.089  0.3637  0.1351  0.2931
 6441TIP3    H140738   6.552   5.836   0.995  1.2870 -0.1422  0.1169
 6441TIP3    H240739   6.539   5.919   1.121 -0.4992  0.0049 -0.1482
 6442TIP3   OH240740   4.551   3.165   2.947  0.0410  0.0236 -0.0674
 6442TIP3    H140741   4.478   3.161   2.886 -0.5929  2.8202  0.3609
 6442TIP3    H240742   4.628   3.176   2.892 -0.2300  0.0339 -0.4494
 6443TIP3   OH240743   3.671   4.524  15.699 -0.0308  0.3679  0.2263
 6443TIP3    H140744   3.710   4.481  15.623 -3.1965 -0.1131 -1.2503
 6443TIP3    H240745   3.731   4.503  15.771  3.3661  1.2530 -2.0875
 6444TIP3   OH240746   5.860   1.266  12.681 -0.1696 -0.2828  0.2458
 6444TIP3    H140747   5.847   1.225  12.595  2.9864 -1.4222  0.1921
 6444TIP3    H240748   5.889   1.355  12.662 -0.0900 -0.3295  0.1523
 6445TIP3   OH240749   6.231   5.573   1.324 -0.0176  0.1411 -0.2058
 6445TIP3    H140750   6.307   5.615   1.364 -0.7862  0.8740  0.5327
 6445TIP3    H240751   6.266   5.523   1.250  1.1433  0.6381  0.0005
 6446TIP3   OH240752   0.139   5.210   5.745 -0.0491  0.0061 -0.0924
 6446TIP3    H140753   0.126   5.126   5.700  1.1208  0.3998 -1.2158
 6446TIP3    H240754   0.207   5.254   5.694 -0.5033  1.5629  0.6056
 6447TIP3   OH240755   1.118   2.076   0.251  0.0207  0.0540  0.7281
 6447TIP3    H140756   1.154   2.077   0.339  0.5468  0.7296  0.5137
 6447TIP3    H240757   1.126   2.167   0.221  1.4240 -0.4645 -0.6270
 6448TIP3   OH240758   2.121   1.136  13.050  0.7002 -0.4604  0.0254
 6448TIP3    H140759   2.064   1.202  13.088  0.1220 -1.6547  1.3416
 6448TIP3    H240760   2.190   1.185  13.007  0.1586  0.9968  0.7581
 6449TIP3   OH240761   1.800   1.544   4.205 -0.0850  0.4154 -0.1416
 6449TIP3    H140762   1.881   1.544   4.154 -1.0447 -0.4061 -1.7167
 6449TIP3    H240763   1.745   1.611   4.165 -0.5332  0.3537  0.3576
 6450TIP3   OH240764   1.180   3.902  14.365  0.2485 -0.2658  0.8938
 6450TIP3    H140765   1.211   3.910  14.274 -0.4653  0.9591  0.7391
 6450TIP3    H240766   1.154   3.810  14.373  0.0222 -0.3206 -0.2360
 6451TIP3   OH240767   1.354   1.649  15.432 -0.4392 -0.0826  0.0445
 6451TIP3    H140768   1.260   1.631  15.442 -0.4906  0.5447  0.7906
 6451TIP3    H240769   1.386   1.655  15.522 -0.2477  2.4961 -0.1395
 6452TIP3   OH240770   3.908   3.860  10.715 -0.5923 -0.1398  0.1675
 6452TIP3    H140771   3.814   3.881  10.712 -0.4323  0.5123 -0.3467
 6452TIP3    H240772   3.910   3.764  10.710 -1.2266 -0.1576  0.0698
 6453TIP3   OH240773   4.410   6.321  13.043 -0.9127 -0.9088 -0.9222
 6453TIP3    H140774   4.411   6.229  13.015  3.2623 -1.2086 -0.3962
 6453TIP3    H240775   4.411   6.316  13.139 -0.3086 -0.3656 -0.8960
 6454TIP3   OH240776   6.371   4.331  16.098 -0.0097 -0.1027  0.3977
 6454TIP3    H140777   6.346   4.350  16.008 -0.4829  0.9861  0.7416
 6454TIP3    H240778   6.448   4.386  16.114  0.9836 -1.3989  0.2055
 6455TIP3   OH240779   1.832   0.221   5.684  0.0018 -0.1445 -0.0915
 6455TIP3    H140780   1.865   0.132   5.676  0.1901 -0.1630  0.7915
 6455TIP3    H240781   1.789   0.223   5.769  0.8651  0.8731  0.3445
 6456TIP3   OH240782   6.062   6.597  15.953 -0.1078  0.2881  0.1781
 6456TIP3    H140783   6.153   6.620  15.932 -0.7913  1.9022 -1.2222
 6456TIP3    H240784   6.050   6.627  16.043  1.4510 -2.2840  1.3380
 6457TIP3   OH240785   5.242   4.019   3.339 -0.3834 -0.1887 -0.2547
 6457TIP3    H140786   5.232   3.967   3.419 -0.2014  1.6146  1.0022
 6457TIP3    H240787   5.164   4.000   3.288  0.0471 -2.2802 -0.2241
 6458TIP3   OH240788   4.050   1.860   2.560  0.1573 -0.0607 -0.1567
 6458TIP3    H140789   4.141   1.842   2.581  0.3763  0.0024 -0.9930
 6458TIP3    H240790   4.003   1.847   2.642  1.1471  1.6209  0.7157
 6459TIP3   OH240791   4.797   3.765   0.175 -0.1191  0.5339  0.3035
 6459TIP3    H140792   4.737   3.839   0.162 -2.9450 -1.5796  0.6266
 6459TIP3    H240793   4.812   3.762   0.269 -0.4852  0.3353  0.3555
 6460TIP3   OH240794   5.865   0.130   0.522 -0.7797 -0.1924 -0.4285
 6460TIP3    H140795   5.957   0.105   0.532 -1.4748 -3.2836 -0.8204
 6460TIP3    H240796   5.849   0.192   0.594  1.4539  0.0760 -0.1010
 6461TIP3   OH240797   2.440   0.921   3.392 -0.0978  0.1894 -0.1444
 6461TIP3    H140798   2.519   0.972   3.411 -0.5206  0.9063 -0.2548
 6461TIP3    H240799   2.419   0.877   3.474  0.7431 -0.4761 -0.2737
 6462TIP3   OH240800   5.609   2.892   3.881 -0.3186 -0.1034 -0.0182
 6462TIP3    H140801   5.572   2.919   3.965  0.3087 -2.0749  0.9686
 6462TIP3    H240802   5.698   2.927   3.882 -0.2932 -0.1697  0.1740
 6463TIP3   OH240803   1.242   3.825  16.918  0.0073 -0.1555 -0.0716
 6463TIP3    H140804   1.190   3.766  16.864 -0.1848  0.5392 -0.6709
 6463TIP3    H240805   1.197   3.909  16.911  1.7689  0.7419 -1.5114
 6464TIP3   OH240806   0.983   4.618  10.952  0.5582 -0.2691 -0.2709
 6464TIP3    H140807   1.035   4.656  11.023 -1.5925  1.5028  0.4859
 6464TIP3    H240808   0.904   4.585  10.995 -0.0224 -0.7129 -1.6317
 6465TIP3   OH240809   1.513   0.422  14.621  0.0395 -0.3313 -0.2596
 6465TIP3    H140810   1.600   0.384  14.613  0.1824  0.1032 -0.8497
 6465TIP3    H240811   1.455   0.347  14.636  0.3470 -0.7687 -1.1665
 6466TIP3   OH240812   2.667   3.810   0.162 -0.2282 -0.3583 -0.3818
 6466TIP3    H140813   2.613   3.758   0.103 -1.5866  1.3326 -0.6982
 6466TIP3    H240814   2.637   3.900   0.150  1.9273  0.5164  0.2549
 6467TIP3   OH240815   3.451   0.605  15.818  0.1430  0.0011 -0.2540
 6467TIP3    H140816   3.404   0.682  15.787 -1.1435 -0.5742  0.1941
 6467TIP3    H240817   3.527   0.640  15.866  0.9103  0.9251 -2.0672
 6468TIP3   OH240818   6.474   2.931   5.867 -0.0191  0.4832  0.5193
 6468TIP3    H140819   6.500   2.906   5.779 -1.4943 -0.6078  0.3631
 6468TIP3    H240820   6.483   3.026   5.869  0.1634  0.5063 -0.7618
 6469TIP3   OH240821   2.677   0.244   0.719  0.0997  0.0187 -0.4309
 6469TIP3    H140822   2.621   0.321   0.710 -1.0791 -0.4179  2.0923
 6469TIP3    H240823   2.616   0.170   0.715  0.4114 -0.4793  2.0395
 6470TIP3   OH240824   5.147   3.735   0.328 -0.3351 -0.1378  0.2632
 6470TIP3    H140825   5.070   3.730   0.384 -0.4493 -1.0789  0.0286
 6470TIP3    H240826   5.117   3.782   0.250 -0.2252  1.0031  0.8814
 6471TIP3   OH240827   1.634   6.625   3.839 -0.2651 -0.3378 -0.2825
 6471TIP3    H140828   1.554   6.612   3.891  0.2797  2.4075  1.4613
 6471TIP3    H240829   1.705   6.601   3.898  0.3207  1.9234  0.0497
 6472TIP3   OH240830   3.097   4.466  13.151  0.2845 -0.3528 -0.4676
 6472TIP3    H140831   3.020   4.520  13.131 -0.2097  0.8704  3.7577
 6472TIP3    H240832   3.171   4.525  13.143 -0.0171  0.4373  1.8574
 6473TIP3   OH240833   0.874   2.041   0.499  0.2651 -0.1806  0.3876
 6473TIP3    H140834   0.939   2.029   0.568 -0.4357 -0.8798  0.9289
 6473TIP3    H240835   0.850   1.953   0.472 -0.5125  0.0676  0.2333
 6474TIP3   OH240836   0.936   3.849   4.820  0.3255 -0.7637  0.3477
 6474TIP3    H140837   0.845   3.865   4.845  1.5384  3.9701  2.9876
 6474TIP3    H240838   0.948   3.755   4.831 -3.5697 -1.2303  2.3305
 6475TIP3   OH240839   4.926   6.270  15.445 -0.5888  0.1593 -0.7072
 6475TIP3    H140840   4.844   6.303  15.410 -1.0614  1.0445  1.1112
 6475TIP3    H240841   4.917   6.175  15.441 -1.0873  0.2329 -1.8179
 6476TIP3   OH240842   0.069   5.406   3.961  0.1245  0.0327  0.3134
 6476TIP3    H140843   0.140   5.345   3.981 -0.1180 -0.4119 -0.1519
 6476TIP3    H240844   0.054   5.396   3.867  1.7838  2.6897 -0.3240
 6477TIP3   OH240845   2.890   6.311  16.976  0.4880 -0.3296  0.4910
 6477TIP3    H140846   2.975   6.334  17.014  1.3983 -0.9437 -1.0850
 6477TIP3    H240847   2.900   6.330  16.882 -0.7233 -1.4900  0.1052
 6478TIP3   OH240848   5.933   3.462  12.391  0.2285  0.0950  0.1957
 6478TIP3    H140849   5.983   3.386  12.421  1.0102 -0.1498 -1.5925
 6478TIP3    H240850   5.983   3.538  12.421  0.0480 -0.0926  0.9975
 6479TIP3   OH240851   1.508   4.218  11.644  0.1896 -0.6737  0.6615
 6479TIP3    H140852   1.533   4.127  11.626 -0.6810 -0.8592  0.3316
 6479TIP3    H240853   1.421   4.212  11.683 -0.3306  0.0606 -0.3250
 6480TIP3   OH240854   4.024   4.143  16.358 -0.7024 -0.3638  0.4558
 6480TIP3    H140855   3.965   4.069  16.374  0.1461 -1.3721 -0.8882
 6480TIP3    H240856   4.112   4.106  16.362 -0.2936  0.3236 -1.2994
 6481TIP3   OH240857   2.559   0.846   4.981 -0.1038 -0.0482 -0.3438
 6481TIP3    H140858   2.546   0.899   4.903 -0.2371  1.2070  0.5114
 6481TIP3    H240859   2.599   0.905   5.045  1.3029 -1.4054  0.1046
 6482TIP3   OH240860   2.290   1.122  16.846 -0.4933  0.4648  0.0979
 6482TIP3    H140861   2.241   1.127  16.764  0.1623  0.8786 -0.2822
 6482TIP3    H240862   2.236   1.169  16.909 -1.0812  0.0032 -0.0517
 6483TIP3   OH240863   1.109   5.422   5.279 -0.0936 -0.5363  0.4545
 6483TIP3    H140864   1.203   5.415   5.268 -0.2743 -1.3350 -0.8002
 6483TIP3    H240865   1.092   5.516   5.288  1.0639 -0.5104  3.5950
 6484TIP3   OH240866   2.073   6.441   4.166 -0.3191  0.4058  0.8089
 6484TIP3    H140867   2.097   6.348   4.155 -2.0840  0.0188  0.0291
 6484TIP3    H240868   2.089   6.458   4.259 -2.4072 -1.4635  1.6135
 6485TIP3   OH240869   5.814   3.841   1.002 -0.1677  0.5744 -0.5730
 6485TIP3    H140870   5.891   3.848   0.945  0.6757  0.5689  0.5212
 6485TIP3    H240871   5.774   3.928   1.000 -0.1019  0.5942 -1.1039
 6486TIP3   OH240872   2.320   3.066  14.872  0.0298 -0.1258 -0.1464
 6486TIP3    H140873   2.234   3.054  14.833  0.2527 -1.9054 -0.1507
 6486TIP3    H240874   2.340   3.159  14.858 -1.9476  0.3555  0.0261
 6487TIP3   OH240875   0.803   2.701  12.619 -0.1167 -0.3284 -0.1176
 6487TIP3    H140876   0.805   2.618  12.571  0.7406 -0.5012  0.2012
 6487TIP3    H240877   0.885   2.744  12.596  0.3691 -0.4739  1.2773
 6488TIP3   OH240878   5.725   2.920   5.564  0.9532 -0.0965 -0.1106
 6488TIP3    H140879   5.800   2.907   5.623  0.2923 -0.3564  0.7014
 6488TIP3    H240880   5.745   3.001   5.518  1.2170  0.4513  0.9244
 6489TIP3   OH240881   3.182   1.990   3.899  0.0952  0.4599 -0.0258
 6489TIP3    H140882   3.163   2.022   3.811  0.1591  1.7207  0.4068
 6489TIP3    H240883   3.243   2.053   3.936  1.6566 -1.1332  0.2328
 6490TIP3   OH240884   2.746   6.721  12.625 -0.0972  0.0763 -0.5629
 6490TIP3    H140885   2.799   6.776  12.568 -0.5297 -0.5842 -1.6174
 6490TIP3    H240886   2.804   6.647  12.647  0.6354  1.0987  1.1979
 6491TIP3   OH240887   1.022   0.383   1.966  0.4212 -0.2400 -0.2397
 6491TIP3    H140888   0.986   0.339   1.889  1.4819  2.0115 -2.1526
 6491TIP3    H240889   1.116   0.365   1.962  0.5462  0.2730  0.2759
 6492TIP3   OH240890   5.085   3.863  15.294  0.4749  0.4957 -0.2127
 6492TIP3    H140891   5.165   3.853  15.243 -0.3125 -0.6657 -1.2941
 6492TIP3    H240892   5.015   3.853  15.229 -0.5587 -0.3290  0.9914
 6493TIP3   OH240893   0.287   2.072   4.412 -0.2666 -0.0434 -0.1693
 6493TIP3    H140894   0.273   2.163   4.383  0.3322 -0.2188 -1.0386
 6493TIP3    H240895   0.207   2.051   4.460 -1.2178  0.3523 -1.5143
 6494TIP3   OH240896   5.444   4.998  13.312  0.5932  0.3209  0.1675
 6494TIP3    H140897   5.479   4.921  13.268  0.9592  0.8351 -0.4493
 6494TIP3    H240898   5.350   4.980  13.319  0.4514  0.4106 -1.2147
 6495TIP3   OH240899   0.286   0.033   2.722 -0.2989 -0.1002 -0.1074
 6495TIP3    H140900   0.305   0.095   2.652 -0.3245 -1.1176 -1.0416
 6495TIP3    H240901   0.215  -0.022   2.687 -0.6851 -0.2890  0.9275
 6496TIP3   OH240902   0.431   4.066  15.842 -0.2376 -0.4576  0.4605
 6496TIP3    H140903   0.514   4.023  15.823 -0.2690 -0.7027  0.8575
 6496TIP3    H240904   0.364   4.003  15.813 -0.2975  0.1206 -0.7084
 6497TIP3   OH240905   4.620   6.007  14.471  0.0501 -0.2660  0.0565
 6497TIP3    H140906   4.550   6.072  14.458  0.1301  0.0141  0.9611
 6497TIP3    H240907   4.696   6.044  14.426  0.4044  0.8288  1.4521
 6498TIP3   OH240908   4.714   0.564  13.763  0.1805 -0.1425  0.2983
 6498TIP3    H140909   4.743   0.656  13.769  1.4289 -0.2944 -2.0720
 6498TIP3    H240910   4.717   0.545  13.669 -2.8629 -1.7861  0.4247
 6499TIP3   OH240911   3.839   1.662  11.269 -0.1092  0.2369 -0.2147
 6499TIP3    H140912   3.811   1.751  11.293  0.2069  0.5934 -1.1216
 6499TIP3    H240913   3.759   1.617  11.245 -0.2431  0.3503  0.0135
 6500TIP3   OH240914   0.054   3.638  13.898  0.5852 -0.0831 -0.2547
 6500TIP3    H140915   0.110   3.584  13.842 -0.0737 -0.9129 -0.1336
 6500TIP3    H240916   0.046   3.721  13.851 -0.8032 -1.1029 -1.9513
 6501TIP3   OH240917   6.708   1.954  16.934  0.3213 -0.1411 -0.0118
 6501TIP3    H140918   6.735   1.974  16.844 -0.4895 -0.7067 -0.4004
 6501TIP3    H240919   6.614   1.972  16.935 -0.1790 -2.4085  0.0152
 6502TIP3   OH240920   2.353   5.180  14.054  0.3036 -0.0826  0.0295
 6502TIP3    H140921   2.312   5.243  13.994 -0.1314  0.0186  0.4226
 6502TIP3    H240922   2.358   5.227  14.138 -0.0992 -0.5968  0.3503
 6503TIP3   OH240923   2.961   6.441  14.820 -0.3064  0.2872  0.4135
 6503TIP3    H140924   2.948   6.492  14.900 -0.7839  0.9430 -0.0749
 6503TIP3    H240925   2.941   6.502  14.749 -1.3571 -0.7183 -0.1817
 6504TIP3   OH240926   4.580   1.476  12.779 -0.3859 -0.2215  0.3659
 6504TIP3    H140927   4.639   1.452  12.851 -0.7382 -0.3132  0.6286
 6504TIP3    H240928   4.638   1.507  12.710 -0.0972  1.2187  1.2048
 6505TIP3   OH240929   6.211   5.710  16.667  0.4716 -0.4143  0.4711
 6505TIP3    H140930   6.229   5.642  16.733 -0.3484 -0.1791  0.9462
 6505TIP3    H240931   6.177   5.784  16.717 -2.5733 -1.0918 -0.3913
 6506TIP3   OH240932   0.442   1.810   3.097 -0.3600  0.2871 -0.4087
 6506TIP3    H140933   0.389   1.756   3.038 -0.3843  0.2743 -0.3755
 6506TIP3    H240934   0.477   1.747   3.160 -0.9918  0.4112  0.0780
 6507TIP3   OH240935   2.101   1.881  16.641  0.4702  0.3671  0.6365
 6507TIP3    H140936   2.105   1.787  16.660 -1.3751 -0.2360 -1.5371
 6507TIP3    H240937   2.011   1.906  16.661  0.8719  1.6557  0.9563
 6508TIP3   OH240938   2.464   6.590   0.431 -0.5721  0.1271 -0.1461
 6508TIP3    H140939   2.444   6.531   0.503  0.6877 -0.9536 -0.6495
 6508TIP3    H240940   2.524   6.541   0.375  0.3789  1.8242 -0.6826
 6509TIP3   OH240941   5.770   6.155   0.372  0.4902 -0.0570  0.0540
 6509TIP3    H140942   5.806   6.165   0.284  1.8245  0.2681  0.6162
 6509TIP3    H240943   5.726   6.239   0.389  0.8940  0.1681 -0.0075
 6510TIP3   OH240944   0.563   6.729  12.218  0.0469 -0.4336 -0.2562
 6510TIP3    H140945   0.528   6.812  12.184 -1.8733 -1.4950 -1.0764
 6510TIP3    H240946   0.615   6.694  12.145 -1.9640 -1.4941 -1.2817
 6511TIP3   OH240947   3.481   0.052  11.986 -0.2083 -0.3631  0.3446
 6511TIP3    H140948   3.498   0.022  11.897 -1.2636 -0.3557  0.1262
 6511TIP3    H240949   3.446  -0.025  12.031 -1.3877  0.0756  0.2326
 6512TIP3   OH240950   3.644   0.645   4.777  0.1461 -0.4969 -0.5592
 6512TIP3    H140951   3.574   0.696   4.736 -0.4058 -1.1800 -0.4880
 6512TIP3    H240952   3.636   0.664   4.871 -0.2592 -0.9479 -0.4994
 6513TIP3   OH240953   2.233   5.998  14.510  0.5203  0.1487 -0.5213
 6513TIP3    H140954   2.214   5.917  14.557  0.6519  1.2897  1.6025
 6513TIP3    H240955   2.160   6.056  14.532  2.4560  1.9894  1.5164
 6514TIP3   OH240956   4.635   4.030  16.804  0.5668  0.1969  0.1706
 6514TIP3    H140957   4.604   4.118  16.780 -0.1249 -0.1345 -0.2003
 6514TIP3    H240958   4.579   3.971  16.753 -0.4027 -0.5259  1.9687
 6515TIP3   OH240959   5.647   5.396   4.819 -0.5254  0.3816 -0.2826
 6515TIP3    H140960   5.589   5.321   4.837 -2.1640  1.6059 -0.2395
 6515TIP3    H240961   5.711   5.393   4.890 -1.3916 -0.1951  0.5149
 6516TIP3   OH240962   2.252   1.445   0.832 -0.0337  0.0112  0.0482
 6516TIP3    H140963   2.288   1.451   0.921 -0.7961  1.1713  0.2978
 6516TIP3    H240964   2.225   1.353   0.824  3.2101 -1.0527 -0.2938
 6517TIP3   OH240965   6.527   6.076  12.641 -0.0206  0.2053  0.5986
 6517TIP3    H140966   6.527   6.167  12.613  0.3593  0.1367  0.3718
 6517TIP3    H240967   6.618   6.048  12.635 -0.1183 -0.1642  0.7492
 6518TIP3   OH240968   6.309   4.938  14.729  0.1896 -0.0082  0.1302
 6518TIP3    H140969   6.324   4.970  14.818  0.1862  2.1015 -0.5705
 6518TIP3    H240970   6.249   4.864  14.740 -1.4825  1.4814  1.7548
 6519TIP3   OH240971   1.968   2.720   3.803  0.4816  0.0105 -0.0535
 6519TIP3    H140972   1.951   2.626   3.794 -2.5196  0.3706  0.5197
 6519TIP3    H240973   2.025   2.726   3.879 -0.6743 -1.3265  0.9973
 6520TIP3   OH240974   4.796   0.834   5.853  0.4075 -0.3530 -0.0232
 6520TIP3    H140975   4.836   0.913   5.888  0.8054 -0.5380 -0.0584
 6520TIP3    H240976   4.769   0.784   5.930  0.6263 -0.4259  0.0043
 6521TIP3   OH240977   3.433   4.023   2.461  0.2611 -0.2722  0.2957
 6521TIP3    H140978   3.449   4.117   2.458  2.2860 -0.5364 -3.4790
 6521TIP3    H240979   3.507   3.987   2.509 -0.6466 -0.0063  1.9683
 6522TIP3   OH240980   0.765   6.482  12.667 -0.5694 -0.5863 -0.0505
 6522TIP3    H140981   0.727   6.506  12.582 -2.4424 -0.2164  0.8354
 6522TIP3    H240982   0.839   6.425  12.645  0.0205  0.7920 -1.9741
 6523TIP3   OH240983   0.646   0.247  13.838 -0.1154 -0.4128 -0.0399
 6523TIP3    H140984   0.731   0.285  13.855  0.0550 -1.1461  0.8182
 6523TIP3    H240985   0.640   0.172  13.898 -1.2300 -0.5581 -0.3000
 6524TIP3   OH240986   1.587   0.206   1.780  0.2723 -0.7119 -0.3530
 6524TIP3    H140987   1.671   0.210   1.826  0.0415 -2.4335  0.2734
 6524TIP3    H240988   1.607   0.233   1.690  1.5463 -1.3709 -0.2772
 6525TIP3   OH240989   3.290   2.625   3.824 -0.0511 -0.1259  0.1575
 6525TIP3    H140990   3.361   2.596   3.882  0.7470 -2.2081 -1.7340
 6525TIP3    H240991   3.329   2.696   3.772 -0.6089  1.3781  1.6844
 6526TIP3   OH240992   0.765   1.533  11.517  0.2164 -0.0879  0.0201
 6526TIP3    H140993   0.747   1.614  11.564 -0.0656 -0.8074  1.1897
 6526TIP3    H240994   0.855   1.543  11.484  0.4264  0.4157  0.7437
 6527TIP3   OH240995   0.345   4.588  12.025  0.2640 -0.1453 -0.3326
 6527TIP3    H140996   0.432   4.562  12.056 -0.0677  0.5348  1.2403
 6527TIP3    H240997   0.349   4.683  12.019 -1.5537  0.4199  3.9181
 6528TIP3   OH240998   0.882   4.001  11.801 -0.1915 -0.2995  0.0709
 6528TIP3    H140999   0.827   4.078  11.816 -1.5830 -1.1751 -0.3056
 6528TIP3    H241000   0.819   3.929  11.792  1.0977 -1.6347  1.2723
 6529TIP3   OH241001   2.507   6.293  13.180 -0.8018 -0.1139 -0.0058
 6529TIP3    H141002   2.488   6.286  13.087 -1.6286 -1.4024  0.2335
 6529TIP3    H241003   2.442   6.355  13.213 -1.4598 -0.7799 -0.0385
 6530TIP3   OH241004   4.596   4.810  15.947  0.4320 -0.2048 -0.3276
 6530TIP3    H141005   4.627   4.825  15.858  2.4964  0.3700  0.4338
 6530TIP3    H241006   4.562   4.720  15.945  1.8191 -0.7519 -1.3487
 6531TIP3   OH241007   0.445   2.685   5.679 -0.3383 -0.2408 -0.6173
 6531TIP3    H141008   0.481   2.692   5.591  1.6185 -1.2454  0.0408
 6531TIP3    H241009   0.358   2.648   5.666 -1.9721  3.5830 -2.3857
 6532TIP3   OH241010   1.586   4.366  16.343  0.0479  0.1299  0.3476
 6532TIP3    H141011   1.643   4.289  16.343 -1.2950 -0.8872  0.0824
 6532TIP3    H241012   1.569   4.383  16.435 -0.1462 -0.2621  0.3844
 6533TIP3   OH241013   5.099   5.617   5.578  0.4049 -0.7006 -0.7800
 6533TIP3    H141014   5.121   5.703   5.542  3.6231 -0.0594  2.2861
 6533TIP3    H241015   5.178   5.565   5.566 -0.5128 -2.3474  0.0074
 6534TIP3   OH241016   1.923   4.718   4.681 -0.2992 -0.0336 -0.0113
 6534TIP3    H141017   1.998   4.754   4.635 -0.4458 -1.3031 -1.2948
 6534TIP3    H241018   1.864   4.792   4.693  0.7674  0.7945  0.2624
 6535TIP3   OH241019   5.997   2.216  13.494  0.5782 -0.0753 -0.0971
 6535TIP3    H141020   5.907   2.245  13.481  0.8337  1.1707  0.7242
 6535TIP3    H241021   6.033   2.278  13.557  1.6229 -1.3484  0.6085
 6536TIP3   OH241022   4.761   6.591  10.401 -0.1186  0.3073  0.0285
 6536TIP3    H141023   4.849   6.554  10.394 -0.8469 -1.4767 -0.4341
 6536TIP3    H241024   4.734   6.572  10.491 -1.5860 -3.1456 -0.9784
 6537TIP3   OH241025   1.027   3.634   6.024  0.2887 -0.2138  0.2947
 6537TIP3    H141026   1.052   3.544   6.003 -3.8290 -1.8142  1.2963
 6537TIP3    H241027   1.073   3.653   6.106  1.5858 -1.1668 -0.1782
 6538TIP3   OH241028   5.835   6.588  16.316  0.2497  0.0511 -0.7106
 6538TIP3    H141029   5.807   6.623  16.232  1.3938  1.3186 -0.5940
 6538TIP3    H241030   5.774   6.517  16.334 -0.0969 -0.1540 -2.5399
 6539TIP3   OH241031   1.419   5.340  16.081 -0.5213 -0.0718  0.6944
 6539TIP3    H141032   1.435   5.412  16.142  0.4662  0.6054 -0.3227
 6539TIP3    H241033   1.418   5.261  16.135 -0.1311  0.5640  1.6369
 6540TIP3   OH241034   6.325   5.773   2.629  0.2880  0.2838 -0.9056
 6540TIP3    H141035   6.373   5.796   2.709  2.3038 -2.2561 -1.2522
 6540TIP3    H241036   6.317   5.855   2.581 -1.2300  1.9591  1.9442
 6541TIP3   OH241037   5.234   3.771   6.343 -0.0867 -0.1143 -0.0994
 6541TIP3    H141038   5.290   3.849   6.337  0.7792 -0.6651  0.5898
 6541TIP3    H241039   5.151   3.799   6.305 -0.0627  1.4003  0.8401
 6542TIP3   OH241040   0.176   6.116   0.028 -0.1148  0.0215 -0.3803
 6542TIP3    H141041   0.097   6.115  -0.026 -0.8564 -1.9100  0.6173
 6542TIP3    H241042   0.247   6.135  -0.033 -1.3373  1.9633 -1.2778
 6543TIP3   OH241043   4.941   2.544  11.595 -0.1136  0.5708 -0.1838
 6543TIP3    H141044   4.904   2.480  11.533 -1.5023 -0.5773  1.6910
 6543TIP3    H241045   5.012   2.496  11.638  0.6797  1.2746 -0.6956
 6544TIP3   OH241046   0.463   5.899  12.419 -0.0062  0.0577  0.0109
 6544TIP3    H141047   0.550   5.881  12.383 -0.4316 -1.3939 -0.3839
 6544TIP3    H241048   0.467   5.990  12.447  1.3348  0.3114 -0.8783
 6545TIP3   OH241049   2.442   2.975   4.719  0.3755 -0.4244  0.0295
 6545TIP3    H141050   2.494   2.931   4.651  0.2037 -1.2391  0.4208
 6545TIP3    H241051   2.425   2.907   4.784 -0.0933  0.1669  0.5308
 6546TIP3   OH241052   3.715   0.616   2.568  0.4732 -0.4206 -0.4505
 6546TIP3    H141053   3.694   0.709   2.578 -0.5274 -0.7349  0.6071
 6546TIP3    H241054   3.638   0.570   2.603  1.0218 -1.6483 -0.7936
 6547TIP3   OH241055   5.146   5.548  17.285  0.2269 -0.3301 -0.3839
 6547TIP3    H141056   5.118   5.639  17.295 -1.0608 -0.4412 -2.2925
 6547TIP3    H241057   5.198   5.548  17.204 -0.5129 -1.4004 -0.8876
 6548TIP3   OH241058   6.382   5.487  11.904  0.3020  0.0833 -0.0901
 6548TIP3    H141059   6.421   5.475  11.818 -0.0163 -0.7203 -0.1316
 6548TIP3    H241060   6.294   5.521  11.886 -0.4789 -1.8332 -0.2086
 6549TIP3   OH241061   0.350   3.042  11.649 -0.4292  0.1392  0.2889
 6549TIP3    H141062   0.301   3.006  11.575 -0.7310  1.8300 -0.3644
 6549TIP3    H241063   0.412   2.973  11.672 -0.6187 -0.5882 -1.2663
 6550TIP3   OH241064   3.525   0.120   1.486  0.3415  1.0970  0.4356
 6550TIP3    H141065   3.542   0.097   1.577 -2.6578  1.4568  1.1905
 6550TIP3    H241066   3.551   0.043   1.436  1.1994  0.5500  1.6920
 6551TIP3   OH241067   0.965   4.398   3.258  0.2295  0.3140 -0.6050
 6551TIP3    H141068   1.042   4.454   3.250  0.4141  0.2778  0.7163
 6551TIP3    H241069   0.998   4.314   3.290 -0.4400  0.6252  0.9992
 6552TIP3   OH241070   1.766   1.438   6.164  0.5115 -1.0218  0.5306
 6552TIP3    H141071   1.685   1.392   6.186 -0.4079 -0.5699 -1.6189
 6552TIP3    H241072   1.766   1.515   6.220 -1.9909  0.4012 -1.2522
 6553TIP3   OH241073   2.399   5.376   4.110 -0.3112 -0.1089  0.0883
 6553TIP3    H141074   2.425   5.415   4.193 -0.7269  0.1331  0.1067
 6553TIP3    H241075   2.405   5.448   4.047 -2.3877  0.3539  0.3705
 6554TIP3   OH241076   0.980   5.357   4.132 -0.3448  0.0299  0.0420
 6554TIP3    H141077   0.892   5.388   4.153  0.1430  0.2020  1.9895
 6554TIP3    H241078   0.991   5.279   4.186  0.9327  0.3956  0.3301
 6555TIP3   OH241079   4.086   3.223  12.368  0.5161  0.1668 -0.0126
 6555TIP3    H141080   4.065   3.259  12.455 -0.1924 -1.8103  0.6831
 6555TIP3    H241081   4.067   3.295  12.308  2.8924  2.2968  1.5538
 6556TIP3   OH241082   4.378   2.083   2.968  0.4968 -0.3364  0.1807
 6556TIP3    H141083   4.421   2.014   2.917  1.1429  1.9719 -2.6708
 6556TIP3    H241084   4.287   2.081   2.939  0.9123  1.1277 -1.4096
 6557TIP3   OH241085   6.287   1.691  11.310 -0.6081  0.5009 -0.1837
 6557TIP3    H141086   6.261   1.765  11.365 -0.4988 -1.0143  2.0645
 6557TIP3    H241087   6.377   1.672  11.336 -0.4301 -0.0644 -1.1551
 6558TIP3   OH241088   4.584   2.617  15.533 -0.1134 -0.3097 -0.3976
 6558TIP3    H141089   4.641   2.681  15.491 -0.5631  0.9149  0.7801
 6558TIP3    H241090   4.521   2.670  15.582 -0.7423 -1.6624  0.3087
 6559TIP3   OH241091   2.090   5.421   1.618 -0.1336  0.0914  0.1145
 6559TIP3    H141092   2.123   5.484   1.555  0.1743 -0.5469 -0.3800
 6559TIP3    H241093   2.001   5.403   1.590  0.2377 -0.7414 -0.6035
 6560TIP3   OH241094   0.683   4.293   2.902 -0.2160  0.1652 -0.1308
 6560TIP3    H141095   0.590   4.274   2.892 -0.6007  2.0681 -0.6580
 6560TIP3    H241096   0.711   4.324   2.816  0.7003  0.3854  0.2325
 6561TIP3   OH241097   4.735   4.014   1.139  0.2320 -0.2669 -0.1844
 6561TIP3    H141098   4.764   4.015   1.048 -0.2586  0.2039 -0.3417
 6561TIP3    H241099   4.724   3.921   1.160 -0.5865 -0.3439 -0.9147
 6562TIP3   OH241100   1.901   4.949  15.543  0.2201  0.0467 -0.4108
 6562TIP3    H141101   1.930   5.033  15.506 -0.1808  0.4082  0.0852
 6562TIP3    H241102   1.965   4.886  15.511  0.3370  0.4845 -1.0643
 6563TIP3   OH241103   4.748   2.428   6.136 -0.0715 -0.3064 -0.8094
 6563TIP3    H141104   4.823   2.486   6.150 -0.8434  0.2674  1.3967
 6563TIP3    H241105   4.783   2.340   6.145  0.2369 -0.0322  1.3623
 6564TIP3   OH241106   3.107   2.014  15.129 -0.3377  0.4152  0.0306
 6564TIP3    H141107   3.109   2.022  15.224 -1.0225  0.4349  0.0430
 6564TIP3    H241108   3.175   2.075  15.098  0.8981 -0.6422  0.5630
 6565TIP3   OH241109   1.617   6.127   6.092 -0.3276  0.0951 -0.1912
 6565TIP3    H141110   1.625   6.153   6.184 -0.1674 -1.6589  0.3481
 6565TIP3    H241111   1.708   6.124   6.061 -0.2630 -0.7020  0.0442
 6566TIP3   OH241112   0.812   0.932   0.188  0.0188  0.1000 -0.4037
 6566TIP3    H141113   0.786   1.016   0.151 -0.0379  0.4185  0.3376
 6566TIP3    H241114   0.740   0.873   0.165 -0.3862  0.4820 -0.1333
 6567TIP3   OH241115   0.936   0.726  17.382  0.1572  0.3266 -0.5463
 6567TIP3    H141116   0.994   0.737  17.307  1.3194 -0.6423  0.1850
 6567TIP3    H241117   0.993   0.734  17.458 -1.0504  1.6477  0.2795
 6568TIP3   OH241118   1.179   4.261  11.759  0.3763  0.0313 -0.3113
 6568TIP3    H141119   1.245   4.330  11.754  1.1359 -0.7088 -0.7010
 6568TIP3    H241120   1.112   4.297  11.818  1.3652  0.5983  0.5042
 6569TIP3   OH241121   6.316   4.420  12.061 -1.1112  0.1039 -0.1085
 6569TIP3    H141122   6.251   4.350  12.063 -0.3030 -0.6511  0.2681
 6569TIP3    H241123   6.391   4.385  12.108 -1.0251  1.5725  0.9243
 6570TIP3   OH241124   0.213   5.070  11.809 -0.1740 -0.0136  0.7723
 6570TIP3    H141125   0.258   5.149  11.779 -0.8236 -0.3019 -1.0850
 6570TIP3    H241126   0.121   5.096  11.817 -0.4829 -0.6937 -0.3743
 6571TIP3   OH241127   1.040   1.226   4.029 -0.2427  0.2523  0.1215
 6571TIP3    H141128   1.081   1.206   3.945 -0.5218  0.5233 -0.0824
 6571TIP3    H241129   0.976   1.156   4.042 -0.8700  0.7278 -0.3531
 6572TIP3   OH241130   4.509   3.192  14.588 -0.0004 -0.5738  0.3257
 6572TIP3    H141131   4.489   3.174  14.496 -1.4834 -1.5007  0.7957
 6572TIP3    H241132   4.587   3.248  14.585 -0.5034  0.0952 -1.5085
 6573TIP3   OH241133   4.022   2.782   0.589 -0.1872  0.3500 -0.0735
 6573TIP3    H141134   3.931   2.772   0.561 -0.4781 -0.0638  0.9659
 6573TIP3    H241135   4.018   2.774   0.684  1.0546 -0.6022 -0.0845
 6574TIP3   OH241136   6.609   6.442  15.749 -0.0614 -0.6036  0.2133
 6574TIP3    H141137   6.570   6.361  15.781  0.2417 -0.2551  1.4798
 6574TIP3    H241138   6.538   6.506  15.756  0.2571 -0.3341  1.0009
 6575TIP3   OH241139   5.300   5.050   5.238  0.7795  0.0592  0.2391
 6575TIP3    H141140   5.325   5.133   5.279  0.2471  0.9355 -1.1326
 6575TIP3    H241141   5.216   5.029   5.278  1.1609 -0.0997  0.9710
 6576TIP3   OH241142   2.245   1.601   3.000 -0.3513  0.1167  0.9123
 6576TIP3    H141143   2.170   1.582   3.056 -0.5947  2.0897  1.3523
 6576TIP3    H241144   2.315   1.545   3.032 -1.9441 -2.8741 -0.4386
 6577TIP3   OH241145   1.864   4.533   1.242  0.2777  0.2156  0.1062
 6577TIP3    H141146   1.895   4.444   1.223 -1.6121 -0.3996 -0.3276
 6577TIP3    H241147   1.795   4.548   1.177 -0.1493  1.6034  0.8495
 6578TIP3   OH241148   3.482   1.735  12.937 -0.2491 -0.5783  1.0355
 6578TIP3    H141149   3.548   1.804  12.933 -0.2934 -0.5399  0.9601
 6578TIP3    H241150   3.442   1.736  12.850 -1.6293  0.6578  1.6340
 6579TIP3   OH241151   0.971   1.763  17.289 -0.0276  0.1817 -0.5362
 6579TIP3    H141152   0.945   1.803  17.372 -0.7007 -0.5645 -0.3735
 6579TIP3    H241153   1.017   1.832  17.242 -0.3526  0.8540  0.1183
 6580TIP3   OH241154   3.326   0.310  10.610 -0.2062  0.2828  0.2223
 6580TIP3    H141155   3.334   0.243  10.678 -0.4650  0.2175  0.1908
 6580TIP3    H241156   3.277   0.381  10.652  0.3416  0.5840  0.3507
 6581TIP3   OH241157   3.402   4.032  16.595 -0.1428  0.2498 -0.7044
 6581TIP3    H141158   3.392   3.992  16.509 -2.3196  1.2005 -0.9578
 6581TIP3    H241159   3.333   3.990  16.648 -0.2832  1.2670 -0.0596
 6582TIP3   OH241160   2.837   6.492  16.504 -0.5745 -0.1214  0.3754
 6582TIP3    H141161   2.754   6.526  16.537 -0.6855 -0.9869  1.0040
 6582TIP3    H241162   2.828   6.493  16.408 -0.2735  2.3503  0.3025
 6583TIP3   OH241163   3.931   1.537  14.954 -0.3921 -0.1632  0.4156
 6583TIP3    H141164   3.863   1.604  14.960 -1.2057 -1.0587  1.7134
 6583TIP3    H241165   4.011   1.586  14.937 -1.1193  1.0521  0.3788
 6584TIP3   OH241166   3.773   6.390   3.092 -0.4161 -0.3384 -0.4904
 6584TIP3    H141167   3.798   6.408   3.183 -1.2727 -0.2054 -0.2735
 6584TIP3    H241168   3.803   6.466   3.043  1.1948 -0.9670 -0.5476
 6585TIP3   OH241169   2.723   1.932   3.768  0.6555  0.1472  0.0871
 6585TIP3    H141170   2.770   1.861   3.725  0.0897 -0.9423  1.2026
 6585TIP3    H241171   2.771   2.011   3.744  0.0791 -0.3015 -2.9238
 6586TIP3   OH241172   5.359   3.464  14.659  0.0295  0.3158  0.4275
 6586TIP3    H141173   5.386   3.484  14.570 -0.0606 -1.8096 -0.1246
 6586TIP3    H241174   5.438   3.479  14.712  0.2380  1.0478 -0.0714
 6587TIP3   OH241175   4.454   1.573  13.825 -0.1567  0.3353 -0.7162
 6587TIP3    H141176   4.455   1.668  13.813  3.1412  0.4723 -0.2830
 6587TIP3    H241177   4.383   1.557  13.886 -0.3017  2.6399 -0.1957
 6588TIP3   OH241178   0.337   5.112  15.669 -0.6743  0.0229 -0.2073
 6588TIP3    H141179   0.295   5.065  15.742 -0.6786  0.6919  0.2314
 6588TIP3    H241180   0.324   5.205  15.690  1.5382  0.2866  0.2604
 6589TIP3   OH241181   0.376   2.921  15.055 -0.1964  0.5397 -0.7375
 6589TIP3    H141182   0.362   2.833  15.020 -2.1586 -0.3649  1.9591
 6589TIP3    H241183   0.288   2.956  15.068  0.5188  2.1798 -0.0074
 6590TIP3   OH241184   3.200   1.624  16.428  0.0241 -0.0458 -0.5707
 6590TIP3    H141185   3.143   1.659  16.497 -1.4773 -1.9850 -0.7318
 6590TIP3    H241186   3.265   1.571  16.475  0.3131  0.3462 -0.5246
 6591TIP3   OH241187   5.727   3.045  11.480 -0.8675  0.1997  0.5635
 6591TIP3    H141188   5.821   3.063  11.480 -0.7295 -0.4641 -0.0584
 6591TIP3    H241189   5.719   2.960  11.523 -1.1257  0.0068  0.1427
 6592TIP3   OH241190   1.878   1.037  13.675  0.2132  0.2762 -0.2514
 6592TIP3    H141191   1.793   1.070  13.703  0.4411  0.5956  0.0829
 6592TIP3    H241192   1.934   1.115  13.672  0.8507 -0.1171  0.8800
 6593TIP3   OH241193   2.230   4.299  16.017  0.6876  0.0013 -0.0722
 6593TIP3    H141194   2.208   4.225  16.072  2.5226 -0.2864  0.3598
 6593TIP3    H241195   2.213   4.376  16.071  1.0493 -0.2210  0.3696
 6594TIP3   OH241196   2.988   0.613   3.457 -0.0964 -0.0741 -0.0696
 6594TIP3    H141197   2.970   0.536   3.511 -0.6241  0.0411 -0.0833
 6594TIP3    H241198   3.028   0.675   3.518  0.3927 -0.3732 -0.0715
 6595TIP3   OH241199   4.291   0.500  11.553  0.1848  0.3659 -0.0996
 6595TIP3    H141200   4.363   0.546  11.510 -0.2653  2.0461  0.8593
 6595TIP3    H241201   4.213   0.551  11.531 -0.6607 -1.1525 -0.7180
 6596TIP3   OH241202   1.130   4.517   2.898 -0.5697  0.3294 -0.0511
 6596TIP3    H141203   1.195   4.517   2.969 -1.3362 -1.6205  0.7384
 6596TIP3    H241204   1.089   4.431   2.904 -2.3810  1.0509 -1.3323
 6597TIP3   OH241205   6.737   0.361  17.232  0.3182  0.3025  0.3279
 6597TIP3    H141206   6.789   0.374  17.153 -0.1053  0.8229  0.1259
 6597TIP3    H241207   6.785   0.409  17.300 -0.0025  0.9556  0.0972
 6598TIP3   OH241208   0.832   3.830  12.280 -0.0434 -0.5159 -0.4999
 6598TIP3    H141209   0.873   3.790  12.204 -0.7229 -0.4611 -0.9017
 6598TIP3    H241210   0.762   3.884  12.244 -0.1478 -0.2123  0.1431
 6599TIP3   OH241211   0.374   5.215   6.320 -0.2024  0.1556 -0.6389
 6599TIP3    H141212   0.366   5.144   6.384 -0.5477  0.8255  0.0724
 6599TIP3    H241213   0.315   5.283   6.351 -0.5413  0.4157 -1.7937
 6600TIP3   OH241214   1.291   0.485  10.924  0.0689  0.4336 -0.3270
 6600TIP3    H141215   1.294   0.406  10.979 -0.2346  0.1231 -0.7487
 6600TIP3    H241216   1.316   0.556  10.983 -0.3186  0.1152  0.2313
 6601TIP3   OH241217   3.748   5.245  14.274 -0.3054 -0.1421  0.5989
 6601TIP3    H141218   3.816   5.223  14.210 -0.1566 -0.1611  0.7620
 6601TIP3    H241219   3.680   5.288  14.223 -0.1330 -0.0464  0.4481
 6602TIP3   OH241220   6.248   6.090  14.566 -0.0814  0.5803 -0.1520
 6602TIP3    H141221   6.269   6.043  14.485  0.5942  1.2294 -0.3665
 6602TIP3    H241222   6.330   6.133  14.590 -0.3305  0.5454  0.7782
 6603TIP3   OH241223   4.087   2.730   4.324  0.1634  0.4514  0.5261
 6603TIP3    H141224   4.074   2.716   4.418  1.9663  0.1641  0.7608
 6603TIP3    H241225   4.000   2.750   4.291 -0.7796 -1.0597  1.9677
 6604TIP3   OH241226   5.646   4.777   0.570 -0.1673  0.0480 -0.7037
 6604TIP3    H141227   5.681   4.829   0.498 -1.4035  1.2249 -0.4932
 6604TIP3    H241228   5.697   4.805   0.646 -0.8457  1.0120 -0.5855
 6605TIP3   OH241229   5.799   0.016  13.607 -0.4554 -0.5889  0.2225
 6605TIP3    H141230   5.817  -0.075  13.585  1.3841 -0.4294  0.9064
 6605TIP3    H241231   5.875   0.045  13.657 -0.0749  1.8712 -1.5745
 6606TIP3   OH241232   2.613   4.285  13.515 -0.3991  0.1283 -0.4058
 6606TIP3    H141233   2.588   4.329  13.596 -0.1129 -0.6352  0.1129
 6606TIP3    H241234   2.601   4.192  13.534  2.1526 -0.2546 -0.3362
 6607TIP3   OH241235   0.720   2.208   3.589 -0.3683 -0.5057  0.0533
 6607TIP3    H141236   0.690   2.264   3.660 -0.6894  0.1591 -0.5889
 6607TIP3    H241237   0.764   2.135   3.632  0.1812  0.3137  0.9005
 6608TIP3   OH241238   3.887   0.433  13.087 -0.1665  0.5823  0.3493
 6608TIP3    H141239   3.981   0.437  13.067  0.1420  0.7573  1.7320
 6608TIP3    H241240   3.844   0.431  13.002  1.1067  0.2614 -0.3044
 6609TIP3   OH241241   4.631   5.603  11.383 -0.5579  0.3105 -0.4255
 6609TIP3    H141242   4.621   5.588  11.289  1.2155  0.3228 -0.6403
 6609TIP3    H241243   4.723   5.587  11.401 -0.8936  0.1602  1.3599
 6610TIP3   OH241244   3.129   2.559   5.593 -0.0507  0.1854 -0.1628
 6610TIP3    H141245   3.158   2.617   5.663 -1.3911 -0.0316  0.6042
 6610TIP3    H241246   3.087   2.617   5.529  0.6207  0.3093 -0.5005
 6611TIP3   OH241247   1.754   1.096  14.997  0.1593 -0.3170  0.3798
 6611TIP3    H141248   1.765   1.028  14.931 -0.7147  1.0731 -1.2923
 6611TIP3    H241249   1.662   1.120  14.993  0.1163 -0.0555  2.0191
 6612TIP3   OH241250   1.554   1.335   3.436 -0.2337  0.0824  0.1153
 6612TIP3    H141251   1.562   1.405   3.371 -0.1349 -0.5928 -0.6149
 6612TIP3    H241252   1.620   1.355   3.502  1.1982 -0.4176 -1.1239
 6613TIP3   OH241253   0.526   4.631  14.750  0.2683 -0.4649  0.4006
 6613TIP3    H141254   0.444   4.593  14.783  0.4137  0.3451  1.7468
 6613TIP3    H241255   0.519   4.622  14.655 -1.3773 -0.4544  0.4873
 6614TIP3   OH241256   1.897   6.714   0.864  0.5258 -0.4931 -0.4563
 6614TIP3    H141257   1.988   6.710   0.834  0.8592  1.4636  0.1574
 6614TIP3    H241258   1.850   6.756   0.792  0.3000 -0.5693 -0.3555
 6615TIP3   OH241259   2.021   5.572  11.552 -0.4514 -0.1759 -0.9956
 6615TIP3    H141260   1.933   5.598  11.526 -1.4507 -2.0812  0.1999
 6615TIP3    H241261   2.046   5.636  11.619 -1.0882  0.1631 -1.0761
 6616TIP3   OH241262   2.631   5.477   3.951 -0.2142  0.4101 -0.0534
 6616TIP3    H141263   2.615   5.525   3.870  1.3614  0.9201 -0.0998
 6616TIP3    H241264   2.656   5.389   3.922  0.1770  0.5425 -0.1286
 6617TIP3   OH241265   0.287   2.392   4.096  0.1482 -0.0287  0.0334
 6617TIP3    H141266   0.354   2.459   4.113  1.9119 -0.8159 -3.0784
 6617TIP3    H241267   0.245   2.420   4.015 -0.4658 -1.6590 -0.2440
 6618TIP3   OH241268   3.793   4.949  16.194 -0.1523  0.1656  0.2662
 6618TIP3    H141269   3.727   4.964  16.262  0.4847  2.2967  0.4924
 6618TIP3    H241270   3.810   5.036  16.157  0.6767 -0.7078 -1.5530
 6619TIP3   OH241271   4.119   1.318   1.347 -0.0253 -0.0974 -0.5896
 6619TIP3    H141272   4.163   1.247   1.393 -0.1149  0.1774 -0.0691
 6619TIP3    H241273   4.104   1.384   1.415  0.8554  0.8010 -1.2498
 6620TIP3   OH241274   2.262   5.830   5.003  0.2456 -0.4457 -0.2969
 6620TIP3    H141275   2.348   5.791   5.017  1.3787  1.8675 -0.3170
 6620TIP3    H241276   2.260   5.906   5.061 -1.3495  0.1940 -1.1058
 6621TIP3   OH241277   0.375   2.446   1.506  0.5400  0.3801  0.1739
 6621TIP3    H141278   0.365   2.419   1.597  0.2868 -0.9330 -0.2195
 6621TIP3    H241279   0.469   2.458   1.494  0.7114 -0.7653  0.2719
 6622TIP3   OH241280   3.730   4.989   4.133 -0.7187  0.4346  0.0480
 6622TIP3    H141281   3.635   4.985   4.121 -0.5817  0.6206 -1.1852
 6622TIP3    H241282   3.744   5.069   4.185 -1.3058 -0.2178  1.2525
 6623TIP3   OH241283   3.525   5.886   0.840 -0.3694  0.1139 -0.3232
 6623TIP3    H141284   3.566   5.800   0.836 -1.0444 -0.2627  0.6173
 6623TIP3    H241285   3.451   5.875   0.900 -0.6517  1.2685 -0.4381
 6624TIP3   OH241286   5.756   6.322  16.137 -0.0240 -0.4594 -0.1535
 6624TIP3    H141287   5.767   6.374  16.057 -0.1025 -0.7511 -0.3597
 6624TIP3    H241288   5.683   6.363  16.183 -1.8545 -1.8898 -1.5836
 6625TIP3   OH241289   3.532   4.271  13.317 -0.2203  0.1117 -0.5854
 6625TIP3    H141290   3.609   4.304  13.269 -1.3278  1.2210 -1.6890
 6625TIP3    H241291   3.478   4.349  13.332 -1.1841 -0.6628  0.0804
 6626TIP3   OH241292   4.738   4.947   5.003 -0.7301  0.0772 -0.4959
 6626TIP3    H141293   4.685   4.868   5.012  0.8711 -1.3994 -2.9070
 6626TIP3    H241294   4.796   4.946   5.079 -0.6429 -1.1498 -0.5577
 6627TIP3   OH241295   4.837   6.354  15.933  0.9925 -0.4150 -0.8295
 6627TIP3    H141296   4.801   6.413  15.998 -1.5090 -1.3147 -1.2810
 6627TIP3    H241297   4.814   6.394  15.849 -1.2446 -2.1404 -1.1550
 6628TIP3   OH241298   3.399   0.392  15.656  0.4246  0.4630  0.0953
 6628TIP3    H141299   3.305   0.379  15.652  0.6080 -1.6165  1.4014
 6628TIP3    H241300   3.409   0.478  15.698 -0.8523  0.8848 -0.4021
 6629TIP3   OH241301   5.711   5.772  12.510  0.8454 -0.0109  0.4396
 6629TIP3    H141302   5.757   5.809  12.585  1.4665 -0.3622  0.2416
 6629TIP3    H241303   5.698   5.846  12.451  0.0135  0.3426  1.0513
 6630TIP3   OH241304   5.481   4.756  12.789 -0.0052 -0.6777  0.0088
 6630TIP3    H141305   5.442   4.840  12.764  1.5167  0.6258  1.7398
 6630TIP3    H241306   5.557   4.747  12.732  0.1330 -0.6250  0.1858
 6631TIP3   OH241307   5.277   5.191   5.886  0.1407 -0.0397  0.0452
 6631TIP3    H141308   5.307   5.217   5.799  0.7693 -0.3566  0.1619
 6631TIP3    H241309   5.210   5.256   5.909  2.0268  1.8571  0.5489
 6632TIP3   OH241310   3.308   2.226   0.443  0.0813 -0.1139 -0.1491
 6632TIP3    H141311   3.276   2.272   0.365 -0.7280 -0.0665  0.1973
 6632TIP3    H241312   3.255   2.261   0.515 -0.4862 -1.5045  0.1406
 6633TIP3   OH241313   5.761   5.241   6.063 -0.6733 -0.2331 -0.1604
 6633TIP3    H141314   5.852   5.211   6.062 -0.2239  1.0854  0.0893
 6633TIP3    H241315   5.735   5.235   6.155 -0.1101  1.4809  0.1321
 6634TIP3   OH241316   6.624   0.458  10.966  0.0995  0.2839  0.0234
 6634TIP3    H141317   6.656   0.458  11.056  0.9956  0.7028 -0.2803
 6634TIP3    H241318   6.529   0.464  10.974  0.2030  0.9988  0.9342
 6635TIP3   OH241319   6.562   3.695  13.528  0.0334 -0.2621 -0.8250
 6635TIP3    H141320   6.637   3.636  13.519  0.9203  0.7752 -0.5312
 6635TIP3    H241321   6.562   3.746  13.447 -0.8869 -0.8259 -1.1937
 6636TIP3   OH241322   1.055   4.504   5.455  0.0137 -0.1053  0.2330
 6636TIP3    H141323   1.060   4.536   5.365 -2.3035  3.1148  1.0858
 6636TIP3    H241324   1.012   4.419   5.448 -0.2464  0.1432 -1.6678
 6637TIP3   OH241325   2.608   4.593   4.385  0.0060  0.9473 -0.2787
 6637TIP3    H141326   2.599   4.559   4.474  1.7322  0.0331 -0.4031
 6637TIP3    H241327   2.667   4.667   4.394 -1.6646  2.3477 -0.3824
 6638TIP3   OH241328   4.306   3.243  12.012 -0.2192 -0.5284 -0.1609
 6638TIP3    H141329   4.357   3.238  12.092 -0.9207 -1.0991  0.2603
 6638TIP3    H241330   4.218   3.265  12.041 -0.2598  0.3045 -0.8670
 6639TIP3   OH241331   2.015   5.208   4.673  0.3679  0.0507 -0.0030
 6639TIP3    H141332   1.941   5.198   4.613 -0.1666  1.3863  0.3931
 6639TIP3    H241333   2.087   5.237   4.618  0.3453 -0.3701 -0.2545
 6640TIP3   OH241334   6.378   2.986  15.290 -0.3976 -0.0801 -0.1128
 6640TIP3    H141335   6.328   2.905  15.278 -1.0993  0.3811 -0.3405
 6640TIP3    H241336   6.392   3.019  15.202  0.0731 -0.0556 -0.0321
 6641TIP3   OH241337   0.655   0.659  13.084 -0.0360 -0.7600 -0.1279
 6641TIP3    H141338   0.589   0.595  13.056 -0.2837 -0.0312 -1.3032
 6641TIP3    H241339   0.605   0.740  13.097  0.4623 -0.4766  0.0465
 6642TIP3   OH241340   2.525   0.374  15.245 -0.7819  0.6381  0.2944
 6642TIP3    H141341   2.575   0.453  15.224 -0.3260  0.7495  1.7240
 6642TIP3    H241342   2.575   0.331  15.314 -0.7186 -1.2301 -0.8481
 6643TIP3   OH241343   3.964   6.695  12.247  0.2636 -0.4945 -0.0457
 6643TIP3    H141344   3.971   6.737  12.333 -0.8369 -0.0512 -0.1524
 6643TIP3    H241345   4.027   6.743  12.192 -0.9122  1.0194 -0.1459
 6644TIP3   OH241346   2.168   4.400  16.951  0.5986  0.4775 -0.2149
 6644TIP3    H141347   2.236   4.394  17.018  0.1016  1.3872  0.3814
 6644TIP3    H241348   2.114   4.323  16.965  2.9699 -1.7805 -2.3883
 6645TIP3   OH241349   3.678   2.960  17.185 -0.0485  0.0590  0.2284
 6645TIP3    H141350   3.629   2.997  17.112  0.0398 -0.1090  0.0831
 6645TIP3    H241351   3.647   3.009  17.262  1.2652  1.5840 -0.1621
 6646TIP3   OH241352   5.681   0.347   3.106  0.2219  0.2478  0.1818
 6646TIP3    H141353   5.626   0.306   3.039  1.3474 -0.0704 -0.5916
 6646TIP3    H241354   5.768   0.309   3.092  0.4855  0.1445  1.8767
 6647TIP3   OH241355   2.422   0.853   3.645 -0.0344  0.6357  0.4087
 6647TIP3    H141356   2.423   0.757   3.651 -0.0700  0.6537  0.7142
 6647TIP3    H241357   2.414   0.882   3.736  2.4328  0.9700  0.5806
 6648TIP3   OH241358   5.578   1.163  13.509 -0.3452  0.5455  0.0309
 6648TIP3    H141359   5.673   1.162  13.496 -0.4311 -0.1166 -0.6469
 6648TIP3    H241360   5.565   1.129  13.597 -0.0188 -1.1370 -0.5328
 6649TIP3   OH241361   0.697   1.709   1.560  0.4069  0.3573 -0.6409
 6649TIP3    H141362   0.744   1.656   1.495 -1.0740 -0.1772 -1.3123
 6649TIP3    H241363   0.609   1.672   1.562 -0.9164  3.2205 -1.6191
 6650TIP3   OH241364   2.307   4.137  12.281 -0.0908 -0.3875  0.0954
 6650TIP3    H141365   2.392   4.124  12.324 -0.2193 -0.4377  0.3347
 6650TIP3    H241366   2.325   4.124  12.188  0.6062  1.6469 -0.1145
 6651TIP3   OH241367   2.589   1.429  13.614 -0.0039  0.3757 -0.0488
 6651TIP3    H141368   2.572   1.504  13.671 -0.1782  0.0562  0.3285
 6651TIP3    H241369   2.580   1.353  13.672  1.4517  0.1172 -0.1065
 6652TIP3   OH241370   3.844   6.493  10.739  0.2659 -0.2174 -0.3343
 6652TIP3    H141371   3.821   6.477  10.647 -0.2809 -1.1503 -0.0434
 6652TIP3    H241372   3.792   6.430  10.788  0.8287  0.0298  0.5979
 6653TIP3   OH241373   5.415   1.361  16.114  0.3166  0.2024  0.1062
 6653TIP3    H141374   5.359   1.410  16.053  1.6228 -0.5585 -1.7946
 6653TIP3    H241375   5.386   1.270  16.105  1.3501 -0.0893 -0.3210
 6654TIP3   OH241376   5.856   1.029   2.041  0.2455  0.3930  0.1814
 6654TIP3    H141377   5.804   1.100   2.078  1.3751  0.5318  1.6230
 6654TIP3    H241378   5.946   1.050   2.066  0.6427 -1.3650  0.3580
 6655TIP3   OH241379   5.246   5.839   0.267 -0.1099 -0.1136  0.1907
 6655TIP3    H141380   5.212   5.835   0.177  1.8920  1.5351 -0.7247
 6655TIP3    H241381   5.250   5.933   0.286  0.7855 -0.3917  1.4896
 6656TIP3   OH241382   5.575   6.349   4.861 -0.0595 -0.4614 -0.0078
 6656TIP3    H141383   5.648   6.329   4.801 -1.2977 -3.8962 -0.5851
 6656TIP3    H241384   5.554   6.441   4.842  2.4695 -0.0927 -1.6060
 6657TIP3   OH241385   5.392   1.727   3.018  0.5895 -0.0809 -0.0054
 6657TIP3    H141386   5.438   1.648   3.046  0.5545  0.0892  0.5381
 6657TIP3    H241387   5.358   1.765   3.099  0.5165  0.4365 -0.2758
 6658TIP3   OH241388   2.998   1.119   4.708  0.1479 -0.1109  0.0398
 6658TIP3    H141389   2.947   1.113   4.789  0.1971  1.4702  0.2224
 6658TIP3    H241390   3.065   1.051   4.717 -1.4653 -1.7388  0.1039
 6659TIP3   OH241391   4.130   3.996  12.970 -0.4865 -0.5057  0.2816
 6659TIP3    H141392   4.155   4.087  12.959 -0.1858 -0.7798 -1.5354
 6659TIP3    H241393   4.188   3.963  13.039  0.4309  0.2912 -0.0884
 6660TIP3   OH241394   6.715   1.913  12.129  1.3040 -0.2749 -0.1963
 6660TIP3    H141395   6.654   1.916  12.055  0.6793  0.9279  0.3534
 6660TIP3    H241396   6.747   1.823  12.129  2.4538  0.0483 -2.8363
 6661TIP3   OH241397   4.518   0.469   0.597  0.5108  0.2361 -0.3014
 6661TIP3    H141398   4.514   0.380   0.562  2.1675  1.4679 -4.2366
 6661TIP3    H241399   4.429   0.489   0.625  0.1015 -2.5598  0.6765
 6662TIP3   OH241400   0.008   4.320  13.387 -0.3327  0.3940 -0.5593
 6662TIP3    H141401   0.059   4.365  13.454 -0.8595  0.7336 -0.3727
 6662TIP3    H241402   0.038   4.229  13.390  0.6746  0.7095 -0.8693
 6663TIP3   OH241403   2.086   6.604   3.732  0.0408  0.1351 -0.2550
 6663TIP3    H141404   2.085   6.630   3.825 -1.2901  1.9133 -0.7022
 6663TIP3    H241405   2.176   6.621   3.704  0.1704  0.7023  0.4451
 6664TIP3   OH241406   1.290   3.983   0.905  0.6353 -0.2966 -0.5849
 6664TIP3    H141407   1.344   3.905   0.898  0.4069 -0.8439  2.3177
 6664TIP3    H241408   1.200   3.951   0.894  0.6838  0.0672 -2.1912
 6665TIP3   OH241409   4.275   1.526   3.589  0.0462  0.5628 -0.8342
 6665TIP3    H141410   4.342   1.581   3.548  1.7323 -1.2284 -0.6688
 6665TIP3    H241411   4.287   1.440   3.547  1.8037 -1.3774  3.0946
 6666TIP3   OH241412   3.896   0.480  10.331  0.1568  0.6311  0.4255
 6666TIP3    H141413   3.900   0.556  10.272 -0.6582  0.2250 -0.1758
 6666TIP3    H241414   3.979   0.435  10.317 -0.6370 -0.3097 -1.6190
 6667TIP3   OH241415   3.295   3.674  12.799 -0.2838 -0.4758  0.2718
 6667TIP3    H141416   3.287   3.762  12.837 -2.5092 -0.8849  0.8642
 6667TIP3    H241417   3.346   3.625  12.863  1.0125  0.3552 -0.0780
 6668TIP3   OH241418   0.389   6.238   3.057 -0.3012 -0.0993 -0.7067
 6668TIP3    H141419   0.430   6.269   3.137 -2.9732 -0.2816  0.8484
 6668TIP3    H241420   0.428   6.152   3.041 -1.2584 -1.0832  1.7529
 6669TIP3   OH241421   0.377   4.144   4.809  0.2080  0.3883  0.4741
 6669TIP3    H141422   0.301   4.183   4.767  0.0506 -0.0283  0.3695
 6669TIP3    H241423   0.362   4.050   4.804  0.3655  0.3235  1.1345
 6670TIP3   OH241424   3.111   5.497   0.477  0.1413  0.1185  0.5286
 6670TIP3    H141425   3.105   5.472   0.569 -0.2122  1.7849  1.0037
 6670TIP3    H241426   3.022   5.484   0.443 -0.1436  1.0055  0.8800
 6671TIP3   OH241427   3.666   0.338   5.478 -0.2225 -0.2707  0.1528
 6671TIP3    H141428   3.631   0.249   5.476  0.9739 -0.7492  0.0745
 6671TIP3    H241429   3.744   0.335   5.423 -0.0926  0.7988  0.2539
 6672TIP3   OH241430   4.904   6.342   4.015 -0.5374  0.2998 -0.2164
 6672TIP3    H141431   4.923   6.429   4.051 -2.6227  1.1206 -0.9468
 6672TIP3    H241432   4.862   6.360   3.931 -1.9278 -1.3749  0.0717
 6673TIP3   OH241433   5.857   4.655   3.098  0.3425  0.3715  0.5179
 6673TIP3    H141434   5.811   4.571   3.090  1.6281 -0.4336  1.2700
 6673TIP3    H241435   5.945   4.632   3.128  0.3212  2.0677  2.0882
 6674TIP3   OH241436   5.454   3.388   5.963 -0.2846 -0.4466  0.2812
 6674TIP3    H141437   5.436   3.475   6.000 -1.1576 -1.2795  1.9527
 6674TIP3    H241438   5.372   3.361   5.922  0.0651 -0.3754 -0.4716
 6675TIP3   OH241439   3.660   1.814   4.527 -0.0146  0.3327  0.5063
 6675TIP3    H141440   3.689   1.759   4.454  0.4746 -0.2819  1.1564
 6675TIP3    H241441   3.726   1.883   4.533 -0.7222  1.1321 -0.4240
 6676TIP3   OH241442   5.387   3.108  14.496 -0.2661  0.4145  0.2087
 6676TIP3    H141443   5.333   3.096  14.573 -1.6607 -1.3717 -0.9756
 6676TIP3    H241444   5.357   3.191  14.458 -0.8599  0.3817  0.5971
 6677TIP3   OH241445   6.446   5.973  12.893  0.3659 -0.2426  0.1586
 6677TIP3    H141446   6.494   5.976  12.810  1.1131 -0.5229  0.5655
 6677TIP3    H241447   6.510   6.002  12.958 -0.0833 -0.4415  0.6921
 6678TIP3   OH241448   5.285   4.693   0.267  0.2153 -0.3629 -0.6117
 6678TIP3    H141449   5.217   4.651   0.214  0.0764 -0.6482 -0.2119
 6678TIP3    H241450   5.323   4.758   0.208  0.2635 -0.8730 -1.1635
 6679TIP3   OH241451   0.280   6.029   2.177  0.4451  0.2284 -0.6061
 6679TIP3    H141452   0.354   5.973   2.202 -0.0190 -0.4854 -0.7759
 6679TIP3    H241453   0.289   6.107   2.232  0.0875 -0.7968  0.9907
 6680TIP3   OH241454   0.805   1.806  11.316 -0.6515  0.0351 -0.1981
 6680TIP3    H141455   0.869   1.872  11.342 -1.3396  0.8005 -0.3926
 6680TIP3    H241456   0.847   1.722  11.336 -1.0919  0.5204  3.2839
 6681TIP3   OH241457   6.447   6.647  16.597 -0.0860  0.0266  0.3919
 6681TIP3    H141458   6.473   6.728  16.642 -0.9477  0.8410 -0.5264
 6681TIP3    H241459   6.373   6.614  16.647  0.6035 -0.5156  1.0881
 6682TIP3   OH241460   6.378   0.387  11.647  0.1584  0.0675 -0.2645
 6682TIP3    H141461   6.436   0.379  11.722 -1.5988  0.0110  1.1594
 6682TIP3    H241462   6.292   0.359  11.679 -0.3869 -1.4417 -2.6932
 6683TIP3   OH241463   1.762   0.023  12.826  0.1526  0.2456 -0.0405
 6683TIP3    H141464   1.788  -0.067  12.809 -1.4234 -0.0303 -1.2676
 6683TIP3    H241465   1.669   0.017  12.850  0.4336  1.4036  1.4957
 6684TIP3   OH241466   4.461   6.523   3.656  0.1277 -0.1070  0.4556
 6684TIP3    H141467   4.408   6.603   3.648  0.1379 -0.1872 -0.6630
 6684TIP3    H241468   4.420   6.473   3.726 -0.1976  0.6451  0.8073
 6685TIP3   OH241469   2.112   5.785   6.544 -0.1910 -0.1229 -0.2262
 6685TIP3    H141470   2.048   5.774   6.614  0.1330  1.6169  0.3827
 6685TIP3    H241471   2.173   5.851   6.576  0.9455 -0.5016 -1.4821
 6686TIP3   OH241472   2.127   5.097   4.874 -0.7563  0.0359  0.0430
 6686TIP3    H141473   2.082   5.160   4.818  0.8569  1.0620 -0.1814
 6686TIP3    H241474   2.059   5.062   4.931 -1.8870  1.2304 -0.5211
 6687TIP3   OH241475   4.912   2.832  12.092  0.1056  0.0377 -0.1117
 6687TIP3    H141476   4.977   2.849  12.023  0.8896 -3.8127 -0.5291
 6687TIP3    H241477   4.965   2.813  12.169 -0.7171  1.2481  0.7835
 6688TIP3   OH241478   4.429   5.314   4.621  0.1284 -0.0682 -0.2110
 6688TIP3    H141479   4.382   5.239   4.586 -0.8870  0.8268 -0.8308
 6688TIP3    H241480   4.425   5.380   4.551 -0.4410  1.1480  0.9322
 6689TIP3   OH241481   1.075   3.952   2.637  0.1832  0.3272 -0.1078
 6689TIP3    H141482   1.126   3.871   2.637  2.1980  1.5118 -0.9558
 6689TIP3    H241483   0.999   3.933   2.691 -0.1716 -2.5754 -1.4363
 6690TIP3   OH241484   3.285   0.214  15.993 -0.5166 -0.1745 -0.3864
 6690TIP3    H141485   3.198   0.173  15.991 -0.7836  0.3621  0.0490
 6690TIP3    H241486   3.270   0.305  15.968 -0.3488  0.3765  1.4201
 6691TIP3   OH241487   2.650   5.167  13.703  0.0665 -0.1741  0.3850
 6691TIP3    H141488   2.560   5.175  13.672  0.5281 -0.1876 -1.0057
 6691TIP3    H241489   2.703   5.162  13.623  1.1483 -1.8997  1.1498
 6692TIP3   OH241490   1.227   6.230  15.444  0.4662 -0.3818 -0.4324
 6692TIP3    H141491   1.149   6.240  15.498  1.0215  0.5687  0.2217
 6692TIP3    H241492   1.228   6.308  15.389 -0.8972 -2.0028 -2.9453
 6693TIP3   OH241493   4.760   4.328   5.715  0.5920 -0.1414 -0.5982
 6693TIP3    H141494   4.713   4.363   5.791  1.2905 -0.3762 -0.0415
 6693TIP3    H241495   4.755   4.233   5.726 -1.7888 -0.2967 -2.4044
 6694TIP3   OH241496   1.086   2.782   0.211 -0.4154 -0.4053  0.0003
 6694TIP3    H141497   1.123   2.810   0.294 -0.9824  1.7029 -0.4065
 6694TIP3    H241498   1.158   2.792   0.148 -0.8293  0.9270 -0.2803
 6695TIP3   OH241499   1.119   4.949  16.238 -0.2607 -0.5735  0.3581
 6695TIP3    H141500   1.118   5.039  16.273 -0.7698 -1.3955  2.6263
 6695TIP3    H241501   1.176   4.954  16.161  0.9844  1.3808  1.3171
 6696TIP3   OH241502   4.646   4.554   5.315  0.0203  0.2815  0.2820
 6696TIP3    H141503   4.701   4.521   5.244  0.1262  1.8721 -0.4181
 6696TIP3    H241504   4.687   4.522   5.395  0.4622 -0.7103 -0.3313
 6697TIP3   OH241505   3.838   1.192   4.025 -0.3985  0.3245  0.6231
 6697TIP3    H141506   3.931   1.177   4.043 -0.1070 -0.3143 -1.1829
 6697TIP3    H241507   3.836   1.275   3.978 -0.3057 -1.1313 -2.1437
 6698TIP3   OH241508   1.725   0.317  11.500  0.1804 -0.2921  0.2202
 6698TIP3    H141509   1.792   0.277  11.445 -0.5652 -0.3798 -0.6385
 6698TIP3    H241510   1.642   0.289  11.461 -0.3606  1.2305  0.2299
 6699TIP3   OH241511   1.089   2.618  15.842  0.5853 -0.3798  0.4286
 6699TIP3    H141512   1.135   2.555  15.787 -1.1276  0.6833 -2.4845
 6699TIP3    H241513   1.145   2.696  15.841  2.4564 -1.5024  3.6160
 6700TIP3   OH241514   1.541   3.711  16.757  0.2219 -0.2096  0.6028
 6700TIP3    H141515   1.528   3.616  16.760 -0.8780 -0.0523  1.1272
 6700TIP3    H241516   1.523   3.735  16.666 -1.4629 -0.2577  0.8930
 6701TIP3   OH241517   0.316   1.531   3.818 -0.6745 -0.2894  0.6721
 6701TIP3    H141518   0.316   1.446   3.863  1.0946 -0.9679 -0.5056
 6701TIP3    H241519   0.223   1.552   3.808 -1.1466 -1.7300  1.6286
 6702TIP3   OH241520   2.590   3.457   5.386  0.4415 -0.3993 -0.0955
 6702TIP3    H141521   2.580   3.457   5.291  1.2722 -1.8157 -0.2230
 6702TIP3    H241522   2.540   3.381   5.415  0.4088 -0.1233  0.5769
 6703TIP3   OH241523   4.994   0.013  14.205 -0.7899  0.3324 -0.4585
 6703TIP3    H141524   5.050   0.021  14.281 -1.3398  0.7803 -0.0967
 6703TIP3    H241525   4.912  -0.024  14.239 -0.2935 -1.5386 -1.1785
 6704TIP3   OH241526   3.665   5.895  15.913  0.0554 -0.5863 -0.5650
 6704TIP3    H141527   3.593   5.958  15.920 -0.1375 -0.7472 -1.0918
 6704TIP3    H241528   3.647   5.831  15.982 -0.5138 -0.8283 -0.9234
 6705TIP3   OH241529   3.118   4.598  13.903  0.2764 -0.0738 -0.0777
 6705TIP3    H141530   3.093   4.666  13.840 -0.5980 -0.1783  0.1439
 6705TIP3    H241531   3.173   4.538  13.853 -1.2893 -0.7495 -1.0480
 6706TIP3   OH241532   3.025   1.727   4.728 -0.3620 -0.0654  0.2810
 6706TIP3    H141533   3.105   1.676   4.719  0.1486  0.6389  0.7750
 6706TIP3    H241534   3.008   1.761   4.640 -1.0149 -1.4991 -0.1909
 6707TIP3   OH241535   0.161   6.597   4.040 -0.3858 -0.4352 -0.1616
 6707TIP3    H141536   0.187   6.653   3.966 -0.6423  0.5989  0.5105
 6707TIP3    H241537   0.066   6.607   4.045 -0.4677 -1.1851 -0.2308
 6708TIP3   OH241538   6.525   2.552   4.278  0.2623  0.2467 -0.6395
 6708TIP3    H141539   6.448   2.606   4.258 -0.0019  0.7499  1.5245
 6708TIP3    H241540   6.598   2.599   4.238 -0.4520 -0.0039 -2.3302
 6709TIP3   OH241541   6.674   2.853   1.606  0.0026  0.3099  0.4719
 6709TIP3    H141542   6.767   2.874   1.621  0.0019  0.5347  0.1830
 6709TIP3    H241543   6.628   2.935   1.625  0.0990  0.9459 -1.7036
 6710TIP3   OH241544   0.998   0.614   2.109  0.1849 -0.3999 -0.2333
 6710TIP3    H141545   1.080   0.655   2.084 -0.2885 -0.7243 -2.5589
 6710TIP3    H241546   0.995   0.533   2.058  0.8457 -3.2320  3.7653
 6711TIP3   OH241547   2.955   2.772  13.756  0.2053  0.0533 -0.4468
 6711TIP3    H141548   2.955   2.860  13.793 -1.2457 -0.7121  1.5430
 6711TIP3    H241549   3.013   2.778  13.680  0.4646  2.6036 -0.1371
 6712TIP3   OH241550   3.195   4.434  14.966  0.6285 -0.6109  0.3307
 6712TIP3    H141551   3.179   4.527  14.982 -0.7768 -0.1883 -2.9170
 6712TIP3    H241552   3.186   4.394  15.053  0.3964  2.1227  1.6919
 6713TIP3   OH241553   5.558   3.689   3.615 -0.0441  0.3557 -0.2572
 6713TIP3    H141554   5.643   3.660   3.582 -0.3604 -1.1493  0.1579
 6713TIP3    H241555   5.579   3.748   3.687  0.6764 -0.4235  0.1948
 6714TIP3   OH241556   5.620   0.662  16.953  0.0001 -0.3901 -0.0404
 6714TIP3    H141557   5.591   0.672  16.862  0.1695  0.2894 -0.0278
 6714TIP3    H241558   5.703   0.709  16.956  0.6556 -1.5224  0.1528
 6715TIP3   OH241559   2.444   2.288   5.579  0.3530 -0.5536  0.0031
 6715TIP3    H141560   2.431   2.347   5.505 -1.4275 -0.2456  0.5307
 6715TIP3    H241561   2.414   2.203   5.548  0.1437 -0.5456  0.1816
 6716TIP3   OH241562   1.189   6.093  12.349  0.0685 -0.6701  0.2299
 6716TIP3    H141563   1.121   6.079  12.283  0.2368  2.5645 -0.8488
 6716TIP3    H241564   1.144   6.080  12.433 -2.1555  1.8661 -0.4206
 6717TIP3   OH241565   3.938   6.602   4.359 -0.4190 -0.0376  0.6814
 6717TIP3    H141566   3.843   6.612   4.371 -0.3913  0.7717  0.2723
 6717TIP3    H241567   3.969   6.565   4.441 -1.0375  0.0959  0.9775
 6718TIP3   OH241568   4.821   5.236   3.933 -0.1163  0.0735 -0.3848
 6718TIP3    H141569   4.729   5.230   3.962  0.1167  2.0370  0.9811
 6718TIP3    H241570   4.837   5.154   3.887 -2.1829 -0.8872  0.4775
 6719TIP3   OH241571   0.091   1.445   2.066  0.3983 -0.3279  0.0798
 6719TIP3    H141572   0.114   1.525   2.113  0.9745  0.0138 -0.7710
 6719TIP3    H241573  -0.005   1.445   2.064  0.3939  0.9032 -0.8401
 6720TIP3   OH241574   4.172   6.633   2.027  0.5512  0.4385  0.1542
 6720TIP3    H141575   4.169   6.698   1.957 -1.4089 -1.0165 -1.2599
 6720TIP3    H241576   4.227   6.563   1.992  0.5419  0.2183  0.5722
 6721TIP3   OH241577   3.211   3.787  15.275  0.1358 -0.2654  0.6190
 6721TIP3    H141578   3.268   3.858  15.304 -0.8514  1.6241 -1.7125
 6721TIP3    H241579   3.127   3.806  15.315 -0.6568  1.1207 -1.5419
 6722TIP3   OH241580   4.301   3.868  13.155  0.6826  0.9185 -0.8935
 6722TIP3    H141581   4.352   3.911  13.223 -0.8361 -0.7943  1.4702
 6722TIP3    H241582   4.356   3.796  13.125  0.8564  0.9398 -0.6215
 6723TIP3   OH241583   6.389   3.375  11.742 -0.8604 -0.0272  0.0350
 6723TIP3    H141584   6.337   3.295  11.755  2.0884 -2.3025 -1.1787
 6723TIP3    H241585   6.388   3.389  11.648 -1.8931  1.8628  0.2836
 6724TIP3   OH241586   6.271   6.150   5.611  0.2242 -0.2966  0.3046
 6724TIP3    H141587   6.204   6.187   5.668  2.1455 -0.8225  3.1298
 6724TIP3    H241588   6.276   6.210   5.537 -0.2568  2.2672  2.2381
 6725TIP3   OH241589   4.036   1.226   4.897  0.0460 -0.4765  0.2802
 6725TIP3    H141590   4.015   1.220   4.991  0.5814  1.2029  0.5557
 6725TIP3    H241591   4.129   1.205   4.892 -0.0302 -0.7746  0.0844
 6726TIP3   OH241592   3.464   5.146  17.256 -0.3542 -0.0721  0.5991
 6726TIP3    H141593   3.540   5.176  17.207 -0.0156 -0.8371  0.6412
 6726TIP3    H241594   3.475   5.051  17.262 -0.8020 -0.0776  1.4765
 6727TIP3   OH241595   2.518   4.728  12.603  0.6332  0.4004 -0.8005
 6727TIP3    H141596   2.428   4.703  12.623 -0.1561  1.5934 -2.5775
 6727TIP3    H241597   2.537   4.685  12.519  1.4008  0.8456 -0.8675
 6728TIP3   OH241598   1.914   5.483  14.823 -0.6665  0.4425 -0.1285
 6728TIP3    H141599   1.981   5.537  14.865  0.7097 -1.2978  0.0500
 6728TIP3    H241600   1.831   5.515  14.858 -0.0518  3.1246 -0.8648
 6729TIP3   OH241601   0.551   5.784  16.001  0.2459  0.5722 -0.2264
 6729TIP3    H141602   0.560   5.861  16.058  0.5676 -0.1181  0.6805
 6729TIP3    H241603   0.521   5.820  15.917  2.0314  1.8797 -0.3598
 6730TIP3   OH241604   1.404   4.952   1.606 -0.0697 -0.1460  0.3399
 6730TIP3    H141605   1.390   5.038   1.566 -1.1111 -0.7973 -0.7479
 6730TIP3    H241606   1.322   4.933   1.651 -0.0195 -0.7984  0.1582
 6731TIP3   OH241607   1.191   4.099  14.877 -0.1728 -0.4568  0.2032
 6731TIP3    H141608   1.213   4.013  14.914  1.6169 -1.0569 -2.0354
 6731TIP3    H241609   1.276   4.138  14.856 -1.0227  1.2244 -0.2293
 6732TIP3   OH241610   1.400   5.281  11.565  0.0450 -0.3720  0.7733
 6732TIP3    H141611   1.425   5.341  11.495  0.7880  0.5063  1.7662
 6732TIP3    H241612   1.311   5.254  11.543 -0.2251  0.9347  0.2017
 6733TIP3   OH241613   6.563   1.062   6.233 -0.3892 -0.3967  0.0468
 6733TIP3    H141614   6.606   1.007   6.168  0.5993 -1.2500  1.3611
 6733TIP3    H241615   6.592   1.027   6.317 -0.7106  1.3648  0.9469
 6734TIP3   OH241616   0.912   5.290   4.670 -0.6607 -0.2734 -0.4159
 6734TIP3    H141617   0.819   5.268   4.674 -0.6885 -0.2449 -0.9436
 6734TIP3    H241618   0.940   5.290   4.762 -1.4276  0.8043 -0.1682
 6735TIP3   OH241619   2.685   6.074  13.931 -0.3801  0.6636 -0.3584
 6735TIP3    H141620   2.609   6.022  13.955  0.2754 -0.7748 -1.2992
 6735TIP3    H241621   2.711   6.041  13.846  2.8881 -0.7436  1.0399
 6736TIP3   OH241622   4.808   1.263  13.259  0.3327  0.2701  0.0697
 6736TIP3    H141623   4.850   1.229  13.338  0.0126  0.7856  0.4670
 6736TIP3    H241624   4.735   1.316  13.291  0.3698  0.7131 -0.5650
 6737TIP3   OH241625   3.718   5.663  13.012 -0.3164  0.0804  0.1858
 6737TIP3    H141626   3.691   5.645  12.921  1.1331  1.2052 -0.5051
 6737TIP3    H241627   3.794   5.606  13.025 -0.0374  0.5028  0.4088
 6738TIP3   OH241628   2.807   5.650   5.450  0.4481 -0.0835  0.2370
 6738TIP3    H141629   2.873   5.628   5.516  0.3647 -2.6974 -0.4599
 6738TIP3    H241630   2.850   5.634   5.366 -0.1939  0.9811 -0.3241
 6739TIP3   OH241631   1.794   3.441  13.491 -0.9099  0.8844  0.2859
 6739TIP3    H141632   1.807   3.528  13.454 -2.2955  0.3898 -1.5040
 6739TIP3    H241633   1.710   3.412  13.456 -0.2500 -1.3864  0.3962
 6740TIP3   OH241634   5.822   0.425   4.233  0.1894 -0.0551 -0.4984
 6740TIP3    H141635   5.808   0.337   4.197  0.0259 -0.0182 -0.5267
 6740TIP3    H241636   5.827   0.481   4.156 -1.3470  0.2011 -0.4514
 6741TIP3   OH241637   0.539   5.883   5.363  0.8193 -0.4670 -1.0378
 6741TIP3    H141638   0.580   5.966   5.337 -1.0893  0.9184  0.0707
 6741TIP3    H241639   0.445   5.903   5.365  0.4795 -1.6349  2.4845
 6742TIP3   OH241640   4.857   2.719  14.635  0.5325 -0.0647  0.0283
 6742TIP3    H141641   4.839   2.764  14.717 -0.6190 -2.1124  0.9809
 6742TIP3    H241642   4.919   2.776  14.590 -0.6942  2.3623  1.1719
 6743TIP3   OH241643   4.658   3.846   3.012 -0.2440  0.5195  0.0680
 6743TIP3    H141644   4.630   3.905   2.942 -0.7534  0.3984  0.1687
 6743TIP3    H241645   4.648   3.897   3.093 -1.0039  0.1876  0.1882
 6744TIP3   OH241646   6.047   4.652   5.314 -0.0207  0.3171 -0.1786
 6744TIP3    H141647   6.054   4.669   5.408 -0.4700  0.9957 -0.2618
 6744TIP3    H241648   6.087   4.566   5.302 -0.6525 -0.1137  0.7390
 6745TIP3   OH241649   0.392   5.074  11.115  1.0698 -0.1016 -0.8902
 6745TIP3    H141650   0.391   5.005  11.182 -1.3507  0.3284 -0.3980
 6745TIP3    H241651   0.399   5.156  11.165 -1.0324  0.2402 -1.0763
 6746TIP3   OH241652   1.053   6.306  15.626  0.2059  0.5202  0.0323
 6746TIP3    H141653   0.965   6.269  15.632 -0.4375  1.7776 -1.1861
 6746TIP3    H241654   1.061   6.361  15.704 -0.7211  1.6304 -0.6149
 6747TIP3   OH241655   0.163   4.080   0.478  0.4542  0.0653 -0.2881
 6747TIP3    H141656   0.069   4.097   0.472  0.7210  1.2496 -1.3885
 6747TIP3    H241657   0.204   4.164   0.460  1.7479 -0.6498 -0.7824
 6748TIP3   OH241658   1.631   0.874  15.093 -0.0661 -0.5156  0.1570
 6748TIP3    H141659   1.715   0.834  15.114  0.3296 -0.2425 -0.8503
 6748TIP3    H241660   1.651   0.938  15.025 -0.7769  0.9880  1.2940
 6749TIP3   OH241661   1.372   3.495   6.474  0.1444 -0.3331 -0.3906
 6749TIP3    H141662   1.301   3.499   6.538  1.7998 -0.4515  1.5433
 6749TIP3    H241663   1.387   3.587   6.450  1.6542  0.1254  1.9716
 6750TIP3   OH241664   0.818   6.238  11.226 -0.2560 -0.0558  0.2988
 6750TIP3    H141665   0.903   6.259  11.265 -0.8484  0.8936  1.1445
 6750TIP3    H241666   0.826   6.266  11.135  0.6135 -0.7879  0.1362
 6751TIP3   OH241667   3.981   5.659  11.372  0.0431 -0.5784  0.1023
 6751TIP3    H141668   3.906   5.633  11.317 -0.0322  0.2900 -0.2191
 6751TIP3    H241669   3.960   5.748  11.399  0.2044 -0.9087  1.3491
 6752TIP3   OH241670   4.713   5.595  14.392  0.4318  0.6653  0.4958
 6752TIP3    H141671   4.670   5.634  14.468  1.1335  0.1256  1.1761
 6752TIP3    H241672   4.806   5.605  14.409  0.6262 -0.7718  0.4224
 6753TIP3   OH241673   0.516   1.419   0.767 -0.0520 -0.9900 -0.1270
 6753TIP3    H141674   0.516   1.350   0.833  0.1166 -1.2605 -0.4066
 6753TIP3    H241675   0.427   1.418   0.731 -0.9852  0.9162  1.8971
 6754TIP3   OH241676   3.038   6.407   3.703 -0.0382 -0.9048  0.1856
 6754TIP3    H141677   2.953   6.366   3.714  0.4661 -2.2781 -0.7737
 6754TIP3    H241678   3.091   6.341   3.659  2.3722 -1.1616  3.1060
 6755TIP3   OH241679   4.426   1.907   0.442 -0.6531  0.4346  0.1272
 6755TIP3    H141680   4.462   1.867   0.520  1.2226 -1.2254 -1.4890
 6755TIP3    H241681   4.352   1.959   0.474  0.2681  0.1668  3.0084
 6756TIP3   OH241682   1.548   3.453   4.514  0.3224  0.2493  0.2580
 6756TIP3    H141683   1.518   3.543   4.498 -0.2112 -0.0191 -0.2563
 6756TIP3    H241684   1.593   3.428   4.434 -1.1488 -0.6043 -0.3237
 6757TIP3   OH241685   2.869   2.447  14.133  0.3547 -0.7819 -0.4153
 6757TIP3    H141686   2.863   2.496  14.051  0.1251  0.1790  0.1622
 6757TIP3    H241687   2.912   2.506  14.194  2.2342 -2.1570 -0.3224
 6758TIP3   OH241688   3.945   4.509   5.410  0.6243  0.3673 -0.1668
 6758TIP3    H141689   4.023   4.497   5.356  0.2697  1.8364 -1.0918
 6758TIP3    H241690   3.874   4.520   5.346 -0.1269  0.2885  0.6402
 6759TIP3   OH241691   2.326   5.157   5.467 -0.7839 -0.5243  0.2516
 6759TIP3    H141692   2.417   5.163   5.498 -1.0492  3.7326  0.8308
 6759TIP3    H241693   2.333   5.160   5.372 -0.3277 -2.6390  0.1714
 6760TIP3   OH241694   4.140   2.667   0.013 -0.6437  0.2510  0.1486
 6760TIP3    H141695   4.154   2.710   0.097  0.2286  0.7325 -0.2258
 6760TIP3    H241696   4.186   2.584   0.020 -1.0049  0.0613  0.3179
 6761TIP3   OH241697   1.170   5.469   1.352  0.2176 -0.3551  0.2187
 6761TIP3    H141698   1.217   5.460   1.269  0.2723 -1.1674  0.3287
 6761TIP3    H241699   1.203   5.396   1.406  1.5245  1.1702  1.6101
 6762TIP3   OH241700   1.378   1.617   1.143 -0.0825 -0.0273  0.4085
 6762TIP3    H141701   1.335   1.609   1.058 -1.1641 -1.2557  1.0384
 6762TIP3    H241702   1.337   1.550   1.198  0.6368  0.6779  1.8882
 6763TIP3   OH241703   5.023   5.826  11.083 -0.2688  0.4508  0.3259
 6763TIP3    H141704   5.093   5.789  11.030  1.0458  1.1884  1.4600
 6763TIP3    H241705   4.944   5.782  11.054  0.5179  0.2508 -1.6418
 6764TIP3   OH241706   3.425   6.632  12.366 -0.5108 -0.4811 -0.1941
 6764TIP3    H141707   3.380   6.710  12.331  0.6111 -0.1388 -0.9446
 6764TIP3    H241708   3.458   6.587  12.288  1.6937  0.0738  0.3503
 6765TIP3   OH241709   2.611   4.740  15.329 -0.0435  0.6799  0.8990
 6765TIP3    H141710   2.661   4.664  15.358 -0.9649  0.1859  1.2146
 6765TIP3    H241711   2.663   4.777  15.258  0.5807 -0.0383  0.9711
 6766TIP3   OH241712   1.997   1.025   1.709 -0.3853  0.1045 -0.4460
 6766TIP3    H141713   1.963   0.983   1.631  0.1925  0.0081 -0.6533
 6766TIP3    H241714   1.989   0.959   1.778 -0.7295  0.1285 -0.4636
 6767TIP3   OH241715   5.022   0.671  16.054  0.1062  0.2345 -0.3720
 6767TIP3    H141716   5.070   0.597  16.018 -1.2394 -1.5216  1.2048
 6767TIP3    H241717   4.931   0.656  16.027 -0.4193  0.5125  1.1382
 6768TIP3   OH241718   1.737   3.865   3.777  0.0709 -0.0821  0.0319
 6768TIP3    H141719   1.736   3.928   3.848  1.3093 -0.0720  0.0635
 6768TIP3    H241720   1.752   3.917   3.698 -1.1614 -0.1067 -0.2381
 6769TIP3   OH241721   1.358   0.913   2.176  0.3386 -0.3064  0.7978
 6769TIP3    H141722   1.406   0.981   2.130 -1.2713 -0.3136 -1.0131
 6769TIP3    H241723   1.425   0.865   2.225  1.7908  1.2006  0.3621
 6770TIP3   OH241724   3.219   6.643  14.352 -0.7287 -0.1553  0.3779
 6770TIP3    H141725   3.204   6.715  14.413  2.1534  1.1210 -0.2297
 6770TIP3    H241726   3.308   6.613  14.372 -0.6262 -1.3343 -1.5744
 6771TIP3   OH241727   2.466   6.286   3.117  0.1551  0.2432  0.0368
 6771TIP3    H141728   2.405   6.217   3.091  1.7945 -1.3375  0.1642
 6771TIP3    H241729   2.441   6.362   3.065 -2.3415 -0.1114  0.6238
 6772TIP3   OH241730   3.797   5.792  13.692  0.5367 -0.6646 -0.1536
 6772TIP3    H141731   3.738   5.791  13.767  1.7094  1.7247  0.9057
 6772TIP3    H241732   3.853   5.715  13.703 -0.2734 -1.1591  0.5856
 6773TIP3   OH241733   1.428   2.325  13.432 -0.7083 -0.2929 -0.1931
 6773TIP3    H141734   1.391   2.287  13.352  1.5328 -0.1084 -1.3799
 6773TIP3    H241735   1.451   2.414  13.408 -1.3184  0.2497  1.1223
 6774TIP3   OH241736   1.855   4.645   5.435  0.3322  0.1900 -0.0356
 6774TIP3    H141737   1.817   4.673   5.352  1.2078  1.1036 -0.1633
 6774TIP3    H241738   1.805   4.568   5.461 -2.2278  1.8775  0.3106
 6775TIP3   OH241739   1.505   0.024  12.276  0.3367  0.2766  0.2531
 6775TIP3    H141740   1.425   0.004  12.227 -0.6954  1.5215  1.3276
 6775TIP3    H241741   1.475   0.080  12.348  2.2649  1.2167  0.3865
 6776TIP3   OH241742   0.710   3.842  14.581 -0.0743  0.1804  0.4264
 6776TIP3    H141743   0.648   3.772  14.560  1.0263 -0.6077 -0.3068
 6776TIP3    H241744   0.764   3.807  14.651 -1.1204  1.2802  1.8432
 6777TIP3   OH241745   1.186   4.688  15.053  0.0208  0.4969  0.4568
 6777TIP3    H141746   1.104   4.738  15.053 -0.6119 -0.4771 -0.4323
 6777TIP3    H241747   1.173   4.623  14.983  1.0084 -0.5641  1.2368
 6778TIP3   OH241748   1.348   6.428   4.175  0.2857 -0.4753 -0.2711
 6778TIP3    H141749   1.408   6.386   4.113  0.3932  0.3236 -0.7246
 6778TIP3    H241750   1.272   6.453   4.122  0.0158 -0.5211  0.0896
 6779TIP3   OH241751   0.850   0.878  14.061 -0.2050  0.1446 -0.0469
 6779TIP3    H141752   0.832   0.972  14.058  0.1664  0.2737  1.2921
 6779TIP3    H241753   0.942   0.869  14.038  0.1866  0.2804  1.3666
 6780TIP3   OH241754   1.168   0.726   6.269 -0.2008  0.3459  0.1356
 6780TIP3    H141755   1.130   0.812   6.287 -0.3273  0.4140 -0.4412
 6780TIP3    H241756   1.153   0.676   6.350 -0.1706  0.8464  0.4550
 6781TIP3   OH241757   1.872   6.731   3.187 -0.0324 -0.1658  0.4860
 6781TIP3    H141758   1.852   6.650   3.139  0.8338  0.1965 -0.5309
 6781TIP3    H241759   1.904   6.791   3.120 -2.0463  1.5665  0.9666
 6782TIP3   OH241760   3.825   1.725  10.889 -0.0367 -0.1462 -0.0326
 6782TIP3    H141761   3.843   1.818  10.884 -0.6044 -0.1009 -2.3324
 6782TIP3    H241762   3.751   1.718  10.950  1.4800  0.5958  2.0129
 6783TIP3   OH241763   6.285   1.714   0.213  0.1934 -0.5737 -0.1166
 6783TIP3    H141764   6.332   1.741   0.292  1.0897  0.0174 -0.8321
 6783TIP3    H241765   6.350   1.667   0.161  0.2781  0.9817 -1.5001
 6784TIP3   OH241766   0.041   4.564   2.207  0.5318 -0.1350  0.2985
 6784TIP3    H141767   0.024   4.537   2.297  2.3427 -3.2243 -0.1416
 6784TIP3    H241768   0.056   4.482   2.159 -0.2820  1.3881 -2.8339
 6785TIP3   OH241769   4.025   4.209  14.268 -0.4865  0.0406 -0.0800
 6785TIP3    H141770   3.975   4.277  14.221 -1.5568 -0.3465  0.4764
 6785TIP3    H241771   4.069   4.160  14.198 -0.1128  0.9749 -0.5217
 6786TIP3   OH241772   5.852   1.265  15.981 -0.5345  0.1271  0.4276
 6786TIP3    H141773   5.787   1.332  16.001 -0.0486  1.0912 -1.0877
 6786TIP3    H241774   5.837   1.242  15.889 -1.7884 -3.1179  1.2927
 6787TIP3   OH241775   2.297   6.066   3.420 -0.2091  0.1238  0.3411
 6787TIP3    H141776   2.287   6.160   3.405  0.1157  0.2058  0.6062
 6787TIP3    H241777   2.237   6.046   3.491 -0.7875 -0.0089 -0.1753
 6788TIP3   OH241778   2.089   3.180   3.892  0.1142  0.5007  0.1936
 6788TIP3    H141779   2.167   3.159   3.841  0.5986 -1.2247  1.5497
 6788TIP3    H241780   2.082   3.276   3.887  1.2806  0.5367 -1.3951
 6789TIP3   OH241781   2.918   3.051   2.971  0.2849  0.4751 -0.1388
 6789TIP3    H141782   2.844   3.017   3.022 -2.3107 -0.0040 -3.8039
 6789TIP3    H241783   2.968   2.973   2.945 -0.1639  0.3859 -0.7592
 6790TIP3   OH241784   5.859   4.161  14.778  0.5381 -0.1150  0.5961
 6790TIP3    H141785   5.871   4.212  14.697  0.5566  0.3026  0.8604
 6790TIP3    H241786   5.824   4.077  14.748 -0.0166  0.2546  0.2047
 6791TIP3   OH241787   0.899   2.283  16.838  0.5454  0.2315 -0.0967
 6791TIP3    H141788   0.979   2.279  16.785 -0.5139 -1.8466 -1.7152
 6791TIP3    H241789   0.829   2.300  16.774 -0.4799  0.4402  1.0425
 6792TIP3   OH241790   2.710   4.925   0.494 -0.6587  0.6405  0.2748
 6792TIP3    H141791   2.634   4.983   0.498 -0.4959  0.8523  0.2907
 6792TIP3    H241792   2.757   4.940   0.576  0.3518  1.8159 -0.4924
 6793TIP3   OH241793   2.330   1.040  14.127 -0.7427  0.3300 -0.9382
 6793TIP3    H141794   2.294   1.111  14.073 -0.8101  0.3092 -0.9217
 6793TIP3    H241795   2.395   1.082  14.183 -0.1310  0.2298 -1.5596
 6794TIP3   OH241796   2.499   1.982   1.984  0.1094  0.1971 -0.1982
 6794TIP3    H141797   2.587   1.987   2.022 -0.1422  1.1771  0.3070
 6794TIP3    H241798   2.455   2.061   2.017 -0.6473  0.2168 -1.2258
 6795TIP3   OH241799   2.728   1.222  16.630  0.4865 -0.0530  0.5583
 6795TIP3    H141800   2.653   1.269  16.593  0.7903  0.9800  1.2202
 6795TIP3    H241801   2.697   1.190  16.715  0.8985  0.7109  1.0081
 6796TIP3   OH241802   2.372   4.367  10.900  0.0305 -0.5122  0.0185
 6796TIP3    H141803   2.467   4.368  10.894 -0.0191  0.6480 -1.2600
 6796TIP3    H241804   2.345   4.294  10.845  0.1649 -0.1861 -0.4914
 6797TIP3   OH241805   5.197   4.808  13.844  0.1365  0.5124 -0.8666
 6797TIP3    H141806   5.102   4.808  13.835 -0.0141 -0.1124  0.4398
 6797TIP3    H241807   5.228   4.759  13.767 -0.9361 -3.4733  0.9303
 6798TIP3   OH241808   1.783   2.568  11.220 -0.0407  0.4620  0.4807
 6798TIP3    H141809   1.767   2.487  11.172  1.9559  0.1706  0.2015
 6798TIP3    H241810   1.732   2.559  11.300 -1.0978 -0.3490 -0.2508
 6799TIP3   OH241811   4.680   0.579   3.905 -0.1068 -0.7844  0.3187
 6799TIP3    H141812   4.714   0.618   3.825  1.3593  1.5848  1.9616
 6799TIP3    H241813   4.713   0.489   3.903  1.4837 -0.2324 -0.8739
 6800TIP3   OH241814   6.445   4.266  14.336 -0.2317 -0.2564 -0.0703
 6800TIP3    H141815   6.439   4.294  14.427 -1.4110  0.8890 -0.4662
 6800TIP3    H241816   6.527   4.303  14.304 -0.7601  1.0357  0.0067
 6801TIP3   OH241817   1.248   6.644   2.329 -0.4962 -0.5507 -0.0920
 6801TIP3    H141818   1.178   6.707   2.349 -0.6141 -1.1971  1.6533
 6801TIP3    H241819   1.202   6.566   2.298 -0.4447 -0.4315 -0.4789
 6802TIP3   OH241820   5.194   2.706  14.561  0.2722 -0.3278  0.0536
 6802TIP3    H141821   5.286   2.730  14.552  0.4065 -0.6134  0.6406
 6802TIP3    H241822   5.148   2.790  14.569  0.3388 -0.1294 -1.3651
 6803TIP3   OH241823   3.115   2.384   1.978  0.0198  0.3792 -0.1654
 6803TIP3    H141824   3.189   2.436   1.949 -0.5290  0.0072 -2.4450
 6803TIP3    H241825   3.144   2.293   1.969  0.1069  0.2168  1.3774
 6804TIP3   OH241826   3.574   5.409  11.468 -0.7013 -0.1753 -0.0845
 6804TIP3    H141827   3.529   5.351  11.407 -0.7154  0.4224 -0.6484
 6804TIP3    H241828   3.577   5.359  11.550 -1.2912 -0.7082 -0.3771
 6805TIP3   OH241829   4.575   0.841   0.967 -0.3787 -0.3372  0.0033
 6805TIP3    H141830   4.614   0.903   0.905  1.0526 -1.2254 -0.0477
 6805TIP3    H241831   4.644   0.776   0.982 -1.5502 -1.4789  0.6663
 6806TIP3   OH241832   3.921   5.278   6.064 -0.6481 -0.1198  0.2584
 6806TIP3    H141833   3.931   5.208   6.000 -2.7081  0.0331 -0.2983
 6806TIP3    H241834   3.900   5.356   6.013 -0.3239  0.4745  1.0003
 6807TIP3   OH241835   1.295   3.024  17.241 -0.4568 -0.1132 -0.2593
 6807TIP3    H141836   1.329   3.002  17.155 -0.4316  0.1281 -0.3108
 6807TIP3    H241837   1.272   3.117  17.235 -0.9951 -0.2349 -0.1834
 6808TIP3   OH241838   4.597   0.535  10.904  0.7318 -0.2398  0.1621
 6808TIP3    H141839   4.552   0.450  10.905 -0.9213  0.5524  2.4155
 6808TIP3    H241840   4.649   0.535  10.983  2.0029  0.2743 -0.6502
 6809TIP3   OH241841   2.741   2.019   2.741 -0.3920  0.1287  0.6084
 6809TIP3    H141842   2.817   1.995   2.795  0.1960 -0.4403 -0.4339
 6809TIP3    H241843   2.744   2.114   2.736  1.5162  0.0567 -1.1126
 6810TIP3   OH241844   0.737   6.182  12.303 -0.0552 -0.2572 -0.5412
 6810TIP3    H141845   0.661   6.237  12.284 -0.4960 -0.7242 -0.1548
 6810TIP3    H241846   0.812   6.236  12.280 -0.5226 -0.1619 -1.9015
 6811TIP3   OH241847   2.368   3.144   3.760 -0.4317 -0.0004  0.4894
 6811TIP3    H141848   2.434   3.214   3.763  0.4873 -0.8480  0.5503
 6811TIP3    H241849   2.410   3.070   3.803 -1.4446 -0.5599  0.5472
 6812TIP3   OH241850   1.258   3.843  11.654  0.4201  0.0803  0.4170
 6812TIP3    H141851   1.219   3.911  11.709 -3.9267 -1.0500 -0.8203
 6812TIP3    H241852   1.251   3.763  11.707  1.1832 -0.1418  0.1842
 6813TIP3   OH241853   3.771   0.775   1.894  0.3185 -0.7055  0.0064
 6813TIP3    H141854   3.774   0.823   1.977 -0.8846 -1.0700  0.2729
 6813TIP3    H241855   3.685   0.795   1.857  0.3716 -1.4941 -0.5812
 6814TIP3   OH241856   0.980   0.761  11.781  0.2018 -0.0585 -0.5012
 6814TIP3    H141857   0.981   0.678  11.734  0.5899 -0.5242  0.3099
 6814TIP3    H241858   1.039   0.748  11.855 -0.8406  0.4545  0.4572
 6815TIP3   OH241859   0.188   3.647   2.503  0.0456 -0.4601  0.1693
 6815TIP3    H141860   0.192   3.581   2.433 -1.8881 -1.3863  0.8619
 6815TIP3    H241861   0.165   3.728   2.458  1.4411 -0.4573 -0.5740
 6816TIP3   OH241862   4.358   0.111  12.496 -0.0540 -0.0801  0.6985
 6816TIP3    H141863   4.394   0.044  12.439 -0.9581 -0.0124  0.0302
 6816TIP3    H241864   4.339   0.185  12.438  1.0633  0.8418  1.4411
 6817TIP3   OH241865   4.919   1.136  11.669 -0.3668 -0.2181 -0.2052
 6817TIP3    H141866   5.001   1.179  11.692  0.1422 -0.8787 -0.7474
 6817TIP3    H241867   4.920   1.132  11.574 -0.7446 -0.7636 -0.1920
 6818TIP3   OH241868   6.756   5.409   0.116  0.0953 -0.2716 -0.5157
 6818TIP3    H141869   6.731   5.432   0.205  3.2663  0.2635  0.3760
 6818TIP3    H241870   6.752   5.492   0.068 -1.6215 -0.5613 -0.9255
 6819TIP3   OH241871   0.001   4.672  12.523  0.4257 -0.1843 -0.4571
 6819TIP3    H141872  -0.078   4.709  12.483  0.4029  0.0666 -0.1879
 6819TIP3    H241873   0.032   4.607  12.460 -0.3873 -0.7860 -0.2425
 6820TIP3   OH241874   4.702   2.638   1.562  0.0126 -0.1627  0.1853
 6820TIP3    H141875   4.667   2.619   1.649 -0.9787 -0.2707 -0.2204
 6820TIP3    H241876   4.628   2.675   1.514  1.1576  2.2791  0.1337
 6821TIP3   OH241877   4.090   2.374   0.835  0.1004  0.0921 -0.0896
 6821TIP3    H141878   4.034   2.445   0.804  2.1688  3.1465  2.5248
 6821TIP3    H241879   4.155   2.364   0.765 -0.8331 -0.0952 -0.9695
 6822TIP3   OH241880   5.522   4.013  14.418  0.0383 -0.3349  0.1972
 6822TIP3    H141881   5.512   3.947  14.348  0.1351  1.3438 -1.4767
 6822TIP3    H241882   5.598   4.064  14.391  0.2442  0.1827  1.7233
 6823TIP3   OH241883   3.539   4.306   4.965  0.4510 -0.1483 -0.2529
 6823TIP3    H141884   3.509   4.321   5.055 -3.1787 -1.8267 -0.9732
 6823TIP3    H241885   3.591   4.226   4.970 -1.3481 -1.3693  0.2219
 6824TIP3   OH241886   6.520   0.643   0.800  0.1246  0.1553  0.1086
 6824TIP3    H141887   6.536   0.646   0.894 -0.4648  1.3333  0.1949
 6824TIP3    H241888   6.597   0.683   0.761  0.6834 -0.9644  0.0293
 6825TIP3   OH241889   1.671   3.304   5.076  0.2650 -0.4797  0.4499
 6825TIP3    H141890   1.696   3.215   5.099 -1.5935 -1.1758 -0.0374
 6825TIP3    H241891   1.671   3.305   4.980  0.6179  0.1611  0.4468
 6826TIP3   OH241892   6.188   2.090   2.453 -0.2921 -0.2417  0.3072
 6826TIP3    H141893   6.110   2.059   2.407 -0.6438 -0.2229  0.8795
 6826TIP3    H241894   6.227   2.011   2.492 -1.3931  0.0190  2.0771
 6827TIP3   OH241895   4.013   5.474   2.153 -0.2744  0.2439 -0.6947
 6827TIP3    H141896   4.010   5.398   2.211  3.4097  0.0028 -0.5964
 6827TIP3    H241897   4.041   5.438   2.068 -3.1782  0.9417 -2.0789
 6828TIP3   OH241898   1.860   5.504  14.273 -0.1147  0.2482 -0.0324
 6828TIP3    H141899   1.922   5.491  14.201  1.2621  2.1915  0.7285
 6828TIP3    H241900   1.914   5.500  14.352 -1.1561  0.7828  0.7239
 6829TIP3   OH241901   6.696   1.421  13.419  0.5003 -0.5408  0.2348
 6829TIP3    H141902   6.678   1.335  13.381  0.2231 -0.2277 -0.3686
 6829TIP3    H241903   6.706   1.405  13.513  2.5626 -1.5617 -0.1060
 6830TIP3   OH241904   0.195   0.563  13.743  0.0084  0.5070  0.1012
 6830TIP3    H141905   0.192   0.551  13.648 -1.4338 -3.0756  0.4538
 6830TIP3    H241906   0.271   0.513  13.772 -0.1305  0.7557  0.9301
 6831TIP3   OH241907   2.480   5.447   0.321  0.4054 -0.1321 -0.1422
 6831TIP3    H141908   2.433   5.399   0.253  1.2575 -0.8864 -0.2114
 6831TIP3    H241909   2.414   5.466   0.387  0.1651 -2.0273  0.2200
 6832TIP3   OH241910   5.339   1.681  11.080  0.1607  0.0903 -0.0243
 6832TIP3    H141911   5.328   1.594  11.041  0.6551  0.1390 -0.2788
 6832TIP3    H241912   5.408   1.722  11.028  0.9138  0.1184  0.9611
 6833TIP3   OH241913   1.360   6.239  15.131  0.0772 -0.2924  0.3272
 6833TIP3    H141914   1.413   6.170  15.171  1.6604  1.5214  1.5274
 6833TIP3    H241915   1.349   6.304  15.201 -1.0682  0.8428 -0.8590
 6834TIP3   OH241916   1.084   1.046  13.428  0.0622 -0.3182  0.1370
 6834TIP3    H141917   1.157   1.063  13.369 -1.8355 -0.4462 -2.4678
 6834TIP3    H241918   1.079   1.123  13.483  0.8122  0.7116 -1.1683
 6835TIP3   OH241919   6.434   4.808   0.780  0.2227  0.1748  0.3986
 6835TIP3    H141920   6.519   4.785   0.816 -0.3792  2.0245  3.3803
 6835TIP3    H241921   6.400   4.875   0.840 -2.8221  0.3761 -1.3394
 6836TIP3   OH241922   0.023   2.456   2.130 -0.0709  0.4931 -0.1352
 6836TIP3    H141923   0.063   2.499   2.055 -2.3098 -0.0001 -1.7365
 6836TIP3    H241924   0.047   2.364   2.121  0.7068  0.6274  0.5022
 6837TIP3   OH241925   3.357   6.433   0.997 -0.5169 -0.5122  0.1262
 6837TIP3    H141926   3.274   6.403   1.034 -1.0702  2.4223  1.5705
 6837TIP3    H241927   3.333   6.464   0.909 -0.5570 -1.2504 -0.1361
 6838TIP3   OH241928   5.029   0.678  12.055 -0.1854 -0.8043  0.4148
 6838TIP3    H141929   4.970   0.746  12.088 -0.2183 -0.1898 -0.8412
 6838TIP3    H241930   4.977   0.631  11.990  1.0696  0.6149 -1.7158
 6839TIP3   OH241931   4.285   3.752  11.197  0.1840  0.4135 -0.4475
 6839TIP3    H141932   4.366   3.702  11.191  0.1058  0.0153  1.2653
 6839TIP3    H241933   4.255   3.762  11.107  1.6320 -0.2587 -1.0192
 6840TIP3   OH241934   1.983   5.699   6.774 -0.3465 -0.2278 -0.8705
 6840TIP3    H141935   1.998   5.613   6.813 -0.3795 -0.6018 -1.6662
 6840TIP3    H241936   2.038   5.758   6.826  0.5546 -0.9062 -1.0172
 6841TIP3   OH241937   0.917   3.535   1.917 -0.0490 -0.6455 -0.1798
 6841TIP3    H141938   0.940   3.460   1.861 -0.8776 -1.0172 -0.0368
 6841TIP3    H241939   0.904   3.607   1.856  0.1946 -0.7608 -0.3705
 6842TIP3   OH241940   6.265   0.951  14.176 -0.0941  0.1811 -0.2478
 6842TIP3    H141941   6.244   0.905  14.257 -0.4302  1.2534  0.3008
 6842TIP3    H241942   6.180   0.971  14.137  0.0655 -0.2658 -0.8345
 6843TIP3   OH241943   3.943   3.654   5.707  0.1500 -0.1478 -0.3560
 6843TIP3    H141944   3.937   3.600   5.786 -1.3333 -1.3898 -1.2761
 6843TIP3    H241945   3.896   3.735   5.730  1.8747  0.5726  0.8266
 6844TIP3   OH241946   5.574   3.903   3.783  0.5116  0.8639  0.2222
 6844TIP3    H141947   5.543   3.922   3.871  1.8158 -0.8803  1.0977
 6844TIP3    H241948   5.552   3.982   3.733  1.1114  2.5311  2.4311
 6845TIP3   OH241949   3.833   4.078  15.724 -0.3712 -0.3017  0.0894
 6845TIP3    H141950   3.783   4.011  15.678  0.9796 -1.2177 -0.1173
 6845TIP3    H241951   3.846   4.042  15.812 -1.7491  0.8201  0.7885
 6846TIP3   OH241952   1.024   6.051   4.140  0.2270  0.0949 -0.1006
 6846TIP3    H141953   1.030   5.977   4.080 -4.4835  0.4159 -1.3393
 6846TIP3    H241954   1.024   6.128   4.084 -0.0178  0.6951  0.6954
 6847TIP3   OH241955   4.350   2.405  14.403 -0.1505 -0.1280  0.2206
 6847TIP3    H141956   4.255   2.414  14.410 -0.1708  0.5364 -0.6818
 6847TIP3    H241957   4.379   2.486  14.362  0.9393  0.1119  1.3985
 6848TIP3   OH241958   0.715   4.974   6.518 -0.4208  0.0409 -0.7354
 6848TIP3    H141959   0.679   4.919   6.587 -1.4341 -0.8703 -1.9631
 6848TIP3    H241960   0.738   5.056   6.563 -2.5436  0.0772  0.3948
 6849TIP3   OH241961   4.601   6.377  11.525 -0.2515 -0.4564 -0.2441
 6849TIP3    H141962   4.591   6.410  11.436  1.2801 -0.5757 -0.4805
 6849TIP3    H241963   4.627   6.285  11.514 -0.4925 -0.5994  0.3371
 6850TIP3   OH241964   6.091   3.931   5.074  0.6790 -0.3868 -0.2185
 6850TIP3    H141965   6.144   3.998   5.031  0.4040  0.4177  0.6441
 6850TIP3    H241966   6.036   3.896   5.004  1.1613 -0.0411 -0.7821
 6851TIP3   OH241967   3.984   2.589   6.009  0.3595  0.2849  0.6618
 6851TIP3    H141968   3.895   2.623   5.997  0.2274 -0.0749  0.6115
 6851TIP3    H241969   4.030   2.659   6.055  0.1932  0.6841  0.2310
 6852TIP3   OH241970   2.544   1.307   5.201  0.2088 -0.3527  0.4186
 6852TIP3    H141971   2.485   1.236   5.226 -0.2687 -0.0507  0.1676
 6852TIP3    H241972   2.504   1.386   5.238 -1.0276  0.2569 -1.9572
 6853TIP3   OH241973   5.302   5.002   4.599 -0.0041  0.3176 -0.2339
 6853TIP3    H141974   5.304   4.906   4.607 -0.0172  0.2509 -0.9901
 6853TIP3    H241975   5.210   5.025   4.610  0.2549  0.4757  2.2785
 6854TIP3   OH241976   6.376   3.606   1.473  0.1733 -0.5974  0.1661
 6854TIP3    H141977   6.454   3.587   1.525  0.3584 -0.1126  0.0644
 6854TIP3    H241978   6.354   3.522   1.432  0.3304 -0.8593  0.6127
 6855TIP3   OH241979   5.177   5.413   1.479  0.1719 -0.7003  1.0877
 6855TIP3    H141980   5.233   5.479   1.438 -0.3971 -0.2474  1.0231
 6855TIP3    H241981   5.221   5.392   1.562 -0.0919  0.4281  1.5344
 6856TIP3   OH241982   5.999   2.911   1.065 -0.3483 -1.0761  0.7009
 6856TIP3    H141983   6.041   2.846   1.008  0.7649 -0.7141  1.0877
 6856TIP3    H241984   6.044   2.901   1.149 -0.1611  0.1905  0.7633
 6857TIP3   OH241985   5.715   6.085  15.187 -0.3090 -0.7935 -0.4564
 6857TIP3    H141986   5.800   6.076  15.230  0.2547  1.1757 -1.0480
 6857TIP3    H241987   5.662   6.014  15.223  0.9936 -0.9017  1.3729
 6858TIP3   OH241988   2.201   1.375  15.802 -0.2549 -0.2864 -0.6189
 6858TIP3    H141989   2.296   1.374  15.786 -0.2085  1.8539 -0.7355
 6858TIP3    H241990   2.190   1.328  15.884  0.7816 -1.4473 -1.1069
 6859TIP3   OH241991   2.740   6.327  14.710  0.2030 -0.1056 -0.2492
 6859TIP3    H141992   2.705   6.384  14.778 -1.8719  0.3416 -1.6110
 6859TIP3    H241993   2.824   6.367  14.687  0.2672  0.5568  1.0136
 6860TIP3   OH241994   3.194   2.439  16.847 -0.5806  0.7240 -0.2417
 6860TIP3    H141995   3.286   2.466  16.859 -0.2519 -0.4288 -0.1056
 6860TIP3    H241996   3.193   2.394  16.763 -0.7035 -0.5801  0.4375
 6861TIP3   OH241997   1.112   2.447   4.826  0.3431 -0.6103 -0.2673
 6861TIP3    H141998   1.067   2.375   4.781  0.1047 -1.6068  1.4692
 6861TIP3    H241999   1.174   2.403   4.885  1.7144  0.6763 -0.6744
 6862TIP3   OH242000   4.203   4.413   1.783 -0.2654  0.0680 -0.6225
 6862TIP3    H142001   4.117   4.373   1.771 -0.7163  1.3264 -1.8478
 6862TIP3    H242002   4.205   4.441   1.874 -0.8419 -0.6378 -0.3852
 6863TIP3   OH242003   5.974   4.953  10.922  0.0817  0.2017 -0.3767
 6863TIP3    H142004   6.055   4.918  10.959  0.6296  0.6769 -1.1048
 6863TIP3    H242005   5.931   4.877  10.881 -0.0130 -0.1136  0.2892
 6864TIP3   OH242006   2.677   0.573   5.028 -0.8518  0.2996  0.0865
 6864TIP3    H142007   2.653   0.663   5.006  1.0454  1.2690  1.6178
 6864TIP3    H242008   2.616   0.547   5.096 -1.8974  0.1005 -0.8939
 6865TIP3   OH242009   4.102   1.184  11.616  0.5496 -0.0050  0.0146
 6865TIP3    H142010   4.067   1.273  11.609  0.3169 -0.1161 -0.2427
 6865TIP3    H242011   4.027   1.127  11.600  0.4169 -0.2614  1.4562
 6866TIP3   OH242012   0.002   4.407   0.240 -0.8492 -0.9461 -0.0283
 6866TIP3    H142013  -0.059   4.336   0.261 -2.6177  0.9008  1.5094
 6866TIP3    H242014   0.081   4.386   0.291 -1.4961 -1.6229  0.7331
 6867TIP3   OH242015   0.448   3.651   5.745 -0.3472 -0.1454 -0.0872
 6867TIP3    H142016   0.482   3.651   5.835  2.6035  1.9703 -1.0442
 6867TIP3    H242017   0.381   3.720   5.746 -3.3725 -2.7871  1.2507
 6868TIP3   OH242018   5.487   4.776   2.371 -0.0794  0.0795  0.0743
 6868TIP3    H142019   5.419   4.721   2.331  2.4242 -1.0477 -3.0391
 6868TIP3    H242020   5.570   4.737   2.343  1.8920  3.6009  0.3845
 6869TIP3   OH242021   3.966   6.482   1.808 -0.1857 -0.4058  0.0791
 6869TIP3    H142022   3.951   6.389   1.787 -1.4222 -0.6363  1.8167
 6869TIP3    H242023   4.054   6.500   1.774  0.2996 -2.3621  0.1808
 6870TIP3   OH242024   4.462   5.406   1.880 -0.1471  0.2338 -0.4254
 6870TIP3    H142025   4.466   5.496   1.848  2.0831 -0.4548 -2.3163
 6870TIP3    H242026   4.417   5.357   1.811  0.4700 -0.4333 -0.3731
 6871TIP3   OH242027   3.557   5.654  16.966 -0.0768  0.1534 -0.4388
 6871TIP3    H142028   3.518   5.574  16.932  0.1813 -0.0135 -0.3484
 6871TIP3    H242029   3.632   5.671  16.909  1.4847 -1.1541  1.0919
 6872TIP3   OH242030   5.733   0.742  11.817 -0.2800 -0.4370 -0.3251
 6872TIP3    H142031   5.727   0.650  11.844 -2.2807 -0.0987  0.5748
 6872TIP3    H242032   5.659   0.754  11.757 -1.6276  1.1700  1.5561
 6873TIP3   OH242033   2.555   3.389   1.681  0.3747  0.1560  0.1831
 6873TIP3    H142034   2.543   3.299   1.650  0.7238 -0.2113  1.0783
 6873TIP3    H242035   2.618   3.381   1.753  1.1935  1.2425 -0.3813
 6874TIP3   OH242036   2.561   2.916  16.183  0.0664 -0.2610  0.7379
 6874TIP3    H142037   2.528   2.889  16.269 -0.9312 -0.1034  0.4224
 6874TIP3    H242038   2.550   2.838  16.128  1.9570 -0.7955  1.0549
 6875TIP3   OH242039   0.147   2.288  12.938  0.1388  0.0432  0.3070
 6875TIP3    H142040   0.119   2.226  13.005 -3.0711 -0.8175 -1.6041
 6875TIP3    H242041   0.077   2.354  12.935  0.1585  0.0605 -2.1218
 6876TIP3   OH242042   5.958   1.272   5.965 -0.2707  0.5459 -0.3192
 6876TIP3    H142043   5.928   1.203   6.024 -0.0266  0.5148 -0.2320
 6876TIP3    H242044   6.024   1.320   6.015 -0.2883  0.7129 -0.4545
 6877TIP3   OH242045   4.734   5.682   3.478  0.1042  0.3074  0.0393
 6877TIP3    H142046   4.817   5.725   3.499 -0.2059  0.8772  0.1256
 6877TIP3    H242047   4.759   5.593   3.453  0.8082  0.6742 -0.6208
 6878TIP3   OH242048   4.233   2.692   1.389 -0.1950  0.0216 -0.0028
 6878TIP3    H142049   4.276   2.751   1.327  1.7527 -1.0693  0.2454
 6878TIP3    H242050   4.299   2.626   1.409  0.5052  1.8500  5.4463
 6879TIP3   OH242051   5.192   2.548   3.648 -0.0583  0.2616  0.0664
 6879TIP3    H142052   5.118   2.609   3.649  0.6940  1.2148  1.6663
 6879TIP3    H242053   5.270   2.604   3.650  0.6584 -0.7032  1.6597
 6880TIP3   OH242054   2.045   1.234  13.622 -0.3655 -0.2760  0.0515
 6880TIP3    H142055   2.084   1.256  13.537 -1.8974  2.2519 -0.1171
 6880TIP3    H242056   2.119   1.222  13.681  0.7154 -1.7417 -1.5438
 6881TIP3   OH242057   3.958   5.826   4.826  0.6118  0.2626  0.0024
 6881TIP3    H142058   3.949   5.744   4.873 -1.7777  0.6732  0.3975
 6881TIP3    H242059   3.948   5.803   4.734 -2.4256  0.2788  0.2298
 6882TIP3   OH242060   6.499   0.856   1.716  0.1500  0.5411  0.3268
 6882TIP3    H142061   6.552   0.891   1.788  0.3150  1.9553 -0.4487
 6882TIP3    H242062   6.434   0.924   1.699  1.0420  0.9310 -1.8391
 6883TIP3   OH242063   2.564   1.380   4.279 -0.0266 -0.3503  0.7071
 6883TIP3    H142064   2.524   1.297   4.307 -1.0183 -0.6263 -1.3941
 6883TIP3    H242065   2.491   1.431   4.245  1.0398  0.0971 -1.0011
 6884TIP3   OH242066   3.544   1.763  11.920  0.7311 -0.2445  0.2240
 6884TIP3    H142067   3.557   1.673  11.948  1.4761 -0.7554 -1.6076
 6884TIP3    H242068   3.548   1.760  11.824 -0.6509  1.5298  0.0483
 6885TIP3   OH242069   6.261   0.426   1.879  1.0381  0.4443  0.3499
 6885TIP3    H142070   6.278   0.495   1.943 -0.7842 -0.8967  2.4439
 6885TIP3    H242071   6.179   0.386   1.908  0.7809 -1.0963 -2.1403
 6886TIP3   OH242072   3.968   0.558   2.498  0.5049 -0.3346 -0.1413
 6886TIP3    H142073   3.875   0.582   2.507  1.0756  1.3090  2.7526
 6886TIP3    H242074   4.010   0.600   2.573  3.3129 -2.6839 -0.2542
 6887TIP3   OH242075   3.365   4.097   3.358  0.2695  0.1230  0.1373
 6887TIP3    H142076   3.296   4.122   3.297 -1.4117 -2.1188  0.9517
 6887TIP3    H242077   3.387   4.178   3.404  0.1235  1.4368 -1.9788
 6888TIP3   OH242078   1.799   1.826  12.378  0.1439 -0.6007  0.0827
 6888TIP3    H142079   1.828   1.759  12.315 -0.2023 -0.9386  0.2806
 6888TIP3    H242080   1.715   1.793  12.411  0.4766 -0.5747  0.9608
 6889TIP3   OH242081   6.552   5.263   5.888 -0.0750  0.1817  0.1277
 6889TIP3    H142082   6.517   5.339   5.935  1.7345  0.2773  1.4370
 6889TIP3    H242083   6.475   5.210   5.866 -1.0984  0.7230  2.1904
 6890TIP3   OH242084   2.554   5.109  15.079  0.2067 -0.0817 -0.3900
 6890TIP3    H142085   2.607   5.126  15.157  1.3277 -0.8024 -0.9622
 6890TIP3    H242086   2.464   5.106  15.111  0.1127  3.8825  0.2314
 6891TIP3   OH242087   0.123   4.310  15.905  0.3946  0.8539  0.7147
 6891TIP3    H142088   0.074   4.319  15.987  0.7636 -0.2609  1.0695
 6891TIP3    H242089   0.211   4.285  15.934  0.0721 -1.3582 -0.0817
 6892TIP3   OH242090   4.355   1.738  11.537  0.2965 -0.2367  0.4593
 6892TIP3    H142091   4.268   1.777  11.527 -0.3500 -1.8135 -0.2654
 6892TIP3    H242092   4.415   1.813  11.533 -0.8826  0.6716 -1.2468
 6893TIP3   OH242093   4.295   4.806   2.986 -0.6090  0.3418  0.5442
 6893TIP3    H142094   4.281   4.739   3.053  0.2388 -0.0073  0.3933
 6893TIP3    H242095   4.380   4.846   3.009 -1.0172  1.2487  0.5330
 6894TIP3   OH242096   2.874   4.488   4.316 -0.4584 -0.0654 -0.8064
 6894TIP3    H142097   2.782   4.493   4.341  0.7812  0.3302  4.9012
 6894TIP3    H242098   2.895   4.576   4.285 -1.9847 -0.3081 -2.7200
 6895TIP3   OH242099   6.381   3.702  11.605 -0.0492 -0.2143 -0.0774
 6895TIP3    H142100   6.295   3.666  11.587 -0.6469  0.2167  1.7204
 6895TIP3    H242101   6.368   3.797  11.607 -0.0073 -0.2132  2.2415
 6896TIP3   OH242102   1.778   1.094  12.483 -0.0709 -0.6433  0.1869
 6896TIP3    H142103   1.801   1.183  12.509  0.1546 -0.8395  0.6776
 6896TIP3    H242104   1.858   1.043  12.498 -1.1193 -1.6044  3.1630
 6897TIP3   OH242105   5.296   2.990  13.945  0.0288  0.3324  0.4995
 6897TIP3    H142106   5.299   3.082  13.922 -0.1122  0.9936  2.8603
 6897TIP3    H242107   5.348   2.946  13.878 -2.0533  1.7222 -2.2062
 6898TIP3   OH242108   6.160   4.051  15.358  0.2147 -0.3377  0.5862
 6898TIP3    H142109   6.244   4.086  15.328  0.2978  0.4515  1.7132
 6898TIP3    H242110   6.160   4.065  15.452 -1.2789 -0.1310  0.5715
 6899TIP3   OH242111   3.296   6.609  11.463  0.1580 -0.2212  0.5360
 6899TIP3    H142112   3.231   6.613  11.533 -0.0595  0.1489  0.3178
 6899TIP3    H242113   3.246   6.583  11.386  0.2970 -0.0962  0.4026
 6900TIP3   OH242114   2.732   0.258   2.348 -0.2256  0.1558 -0.0394
 6900TIP3    H142115   2.782   0.195   2.401 -1.3884 -0.8114 -0.0441
 6900TIP3    H242116   2.774   0.255   2.262  1.7459  1.8179  0.7901
 6901TIP3   OH242117   3.454   2.485  14.224  0.0548  0.1259 -0.5809
 6901TIP3    H142118   3.528   2.425  14.217  0.3809  0.6088 -1.4778
 6901TIP3    H242119   3.379   2.436  14.192  0.2777  0.1192 -1.0993
 6902TIP3   OH242120   4.097   5.057   3.952 -0.5627 -0.0024 -0.0967
 6902TIP3    H142121   4.147   5.073   3.872 -0.1984 -0.8701 -0.0617
 6902TIP3    H242122   4.066   5.143   3.979  1.2865  0.6522  0.1203
 6903TIP3   OH242123   4.027   0.701   4.496  0.2341 -0.1649 -0.3409
 6903TIP3    H142124   4.075   0.758   4.556  0.5761 -1.9566  1.1821
 6903TIP3    H242125   4.076   0.706   4.414  1.2035  0.4565  0.2512
 6904TIP3   OH242126   3.653   4.202  11.576 -0.2491  0.0496 -0.1336
 6904TIP3    H142127   3.731   4.178  11.627  1.1340  1.3686 -1.5527
 6904TIP3    H242128   3.593   4.239  11.641  0.5208 -0.4518  0.8996
 6905TIP3   OH242129   5.600   3.550  12.550 -0.1544 -0.1854 -0.1481
 6905TIP3    H142130   5.645   3.467  12.566  1.7247  0.8860  0.4211
 6905TIP3    H242131   5.526   3.527  12.494  0.4729 -2.1960 -0.2128
 6906TIP3   OH242132   4.990   2.490   0.132  0.1400 -0.4224  0.0133
 6906TIP3    H142133   4.925   2.447   0.188  1.1724  0.9425  2.4068
 6906TIP3    H242134   5.071   2.441   0.147  0.6834  0.6251  0.6159
 6907TIP3   OH242135   4.634   2.557  14.108 -0.0473 -0.4166  0.1812
 6907TIP3    H142136   4.635   2.609  14.027  0.5772 -0.1089  0.3835
 6907TIP3    H242137   4.541   2.548  14.129 -0.2629 -1.2657 -1.0577
 6908TIP3   OH242138   5.524   2.357  17.127  0.3839 -0.2988 -0.8731
 6908TIP3    H142139   5.457   2.424  17.113  1.1164  0.4583 -0.8641
 6908TIP3    H242140   5.569   2.351  17.042  0.4971 -0.5764 -0.7932
 6909TIP3   OH242141   3.377   2.145   1.013 -0.4048  0.5438 -0.3578
 6909TIP3    H142142   3.372   2.082   0.941 -1.5049  1.4123 -1.0780
 6909TIP3    H242143   3.342   2.099   1.088  0.4023 -0.2536 -0.4542
 6910TIP3   OH242144   1.798   0.252  14.570  0.4431  0.0766  0.0775
 6910TIP3    H142145   1.834   0.277  14.485 -0.0696 -0.2503 -0.2401
 6910TIP3    H242146   1.774   0.160  14.561 -0.6178  0.3197  0.2147
 6911TIP3   OH242147   3.107   0.954  10.854  0.1667 -0.3238  0.5179
 6911TIP3    H142148   3.129   0.954  10.947 -1.0560  0.9016  0.8456
 6911TIP3    H242149   3.041   0.884  10.845 -0.8074  0.5248  0.8847
 6912TIP3   OH242150   6.539   4.514   4.567  0.7580  0.2559 -0.2794
 6912TIP3    H142151   6.576   4.430   4.542  0.3267 -0.1165  0.2913
 6912TIP3    H242152   6.607   4.578   4.547  1.4455 -0.3374  0.1476
 6913TIP3   OH242153   4.514   6.746  12.080  0.0183  0.1632  0.2315
 6913TIP3    H142154   4.556   6.662  12.063 -0.6045 -0.4196  1.4786
 6913TIP3    H242155   4.586   6.803  12.108  0.2820 -0.2709  0.4535
 6914TIP3   OH242156   0.710   6.238   1.886 -0.2438 -0.4442 -0.0692
 6914TIP3    H142157   0.668   6.201   1.809  0.1363  0.0019 -0.4990
 6914TIP3    H242158   0.720   6.164   1.946 -0.2733 -0.8570 -0.5652
 6915TIP3   OH242159   5.527   0.872  13.184 -0.6645  0.1873 -0.5453
 6915TIP3    H142160   5.580   0.914  13.117 -0.5468  0.1946 -0.4469
 6915TIP3    H242161   5.462   0.821  13.134  0.5108 -1.2350 -0.6952
 6916TIP3   OH242162   3.287   0.477  17.330  0.6649 -0.0243  0.3581
 6916TIP3    H142163   3.212   0.462  17.386 -0.2970  0.7098 -0.6934
 6916TIP3    H242164   3.261   0.441  17.245  2.2180 -1.4536  0.4216
 6917TIP3   OH242165   5.485   5.423   1.124 -0.1398  0.0952 -0.1523
 6917TIP3    H142166   5.557   5.458   1.177  0.2039 -1.4836  0.4612
 6917TIP3    H242167   5.436   5.501   1.098  0.2903  1.0229  1.6122
 6918TIP3   OH242168   2.833   4.202   5.403 -0.5745 -0.5990  0.1788
 6918TIP3    H142169   2.858   4.214   5.494  0.3284  0.3673 -0.1696
 6918TIP3    H242170   2.737   4.193   5.404 -0.6688  0.4225  1.1216
 6919TIP3   OH242171   2.151   4.663  11.953 -0.0129  0.2716  0.0189
 6919TIP3    H142172   2.234   4.704  11.930  0.8750 -0.9449  0.9078
 6919TIP3    H242173   2.143   4.676  12.048 -0.3493 -0.4636  0.1003
 6920TIP3   OH242174   3.012   2.040  14.846  0.1293 -0.2471  0.8211
 6920TIP3    H142175   2.980   2.127  14.821  1.9775  0.3804  0.4893
 6920TIP3    H242176   3.050   2.052  14.933  0.0116 -0.8418  0.9623
 6921TIP3   OH242177   1.287   5.429   3.175 -0.0777  0.2597  0.2881
 6921TIP3    H142178   1.356   5.370   3.146  0.4508  0.3299  1.3178
 6921TIP3    H242179   1.241   5.454   3.096  0.0830 -1.0367 -0.2380
 6922TIP3   OH242180   0.074   0.005  15.802 -0.1090  0.1237 -0.2249
 6922TIP3    H142181  -0.011   0.008  15.845 -0.0662 -0.6441 -0.0688
 6922TIP3    H242182   0.127   0.070  15.849 -0.4707  0.2832 -0.0333
 6923TIP3   OH242183   0.046   6.042  12.590  0.0607  0.2054 -0.2682
 6923TIP3    H142184   0.069   6.133  12.612 -0.1428 -0.3749  2.7535
 6923TIP3    H242185   0.114   5.990  12.633 -0.9587 -1.1230 -0.2205
 6924TIP3   OH242186   4.675   5.139   6.160 -0.2929 -0.1833 -0.5065
 6924TIP3    H142187   4.591   5.177   6.187 -1.4272 -0.9858 -2.6585
 6924TIP3    H242188   4.700   5.082   6.233 -1.8402 -0.2572  0.0128
 6925TIP3   OH242189   5.386   3.977   4.921 -0.6146  0.1841  0.3203
 6925TIP3    H142190   5.477   3.965   4.893 -1.3942  0.2140 -2.6176
 6925TIP3    H242191   5.392   4.027   5.002  2.0115 -1.2472  1.1347
 6926TIP3   OH242192   4.792   3.112   6.111 -0.2703  0.5723 -0.0138
 6926TIP3    H142193   4.705   3.138   6.081 -0.8488 -1.2789 -0.0262
 6926TIP3    H242194   4.794   3.141   6.203 -0.9161  0.5953  0.0016
 6927TIP3   OH242195   3.275   0.443   0.267  0.1533 -0.3394  0.2134
 6927TIP3    H142196   3.353   0.499   0.260 -0.7927  1.2490  1.6161
 6927TIP3    H242197   3.277   0.390   0.188  1.6483  0.9958 -0.7245
 6928TIP3   OH242198   3.700   4.092   4.631 -0.2082 -0.1114 -0.3741
 6928TIP3    H142199   3.699   4.182   4.665 -2.0138 -0.2226 -0.0134
 6928TIP3    H242200   3.721   4.038   4.707 -0.7403 -0.0918 -0.2041
 6929TIP3   OH242201   1.528   2.864   4.986  0.4663  0.0298  0.3494
 6929TIP3    H142202   1.561   2.778   5.014  0.1304 -0.0756  0.4249
 6929TIP3    H242203   1.495   2.904   5.067 -0.5130 -0.2748  0.1126
 6930TIP3   OH242204   6.031   0.333   4.700 -0.3660 -0.7289 -0.0034
 6930TIP3    H142205   6.035   0.239   4.682  0.9096 -0.6789 -0.0403
 6930TIP3    H242206   6.001   0.338   4.791 -3.2533 -1.0575 -0.8292
 6931TIP3   OH242207   0.794   3.944  11.525  0.2716 -0.0399 -0.2662
 6931TIP3    H142208   0.710   3.968  11.566  0.1100 -0.6364 -0.2408
 6931TIP3    H242209   0.769   3.888  11.451  0.7043 -1.2378  0.4750
 6932TIP3   OH242210   1.953   4.767   3.246  0.1920 -0.3492 -0.6194
 6932TIP3    H142211   2.042   4.801   3.257 -0.2078  1.1990 -1.8124
 6932TIP3    H242212   1.957   4.717   3.164  0.1743 -1.1103 -0.1662
 6933TIP3   OH242213   6.156   3.772  12.614  0.3806  0.6317 -0.3567
 6933TIP3    H142214   6.123   3.857  12.640  0.3165  0.8671 -1.1754
 6933TIP3    H242215   6.248   3.772  12.641  0.5290  1.1816 -0.8558
 6934TIP3   OH242216   2.997   2.863   4.288 -0.2102 -0.4228 -0.1653
 6934TIP3    H142217   2.924   2.884   4.230  0.6143 -0.1617 -1.1542
 6934TIP3    H242218   3.056   2.938   4.280  0.6504 -1.0899 -0.2265
 6935TIP3   OH242219   2.796   0.616  14.500 -0.0180  0.0226  0.0140
 6935TIP3    H142220   2.817   0.523  14.509 -0.1061  0.0255  0.2437
 6935TIP3    H242221   2.740   0.636  14.574 -1.5573 -0.1834 -1.0541
 6936TIP3   OH242222   6.303   2.949  17.024  0.4123  0.0664 -0.3675
 6936TIP3    H142223   6.302   3.040  17.052 -0.8401 -0.6622  2.2751
 6936TIP3    H242224   6.362   2.905  17.085 -0.8473 -1.2891 -0.0467
 6937TIP3   OH242225   6.560   6.379   1.299  0.2951  0.5384 -0.1505
 6937TIP3    H142226   6.524   6.461   1.333 -0.6954  1.3236 -2.8042
 6937TIP3    H242227   6.590   6.332   1.376 -1.0691  2.4665  1.6740
 6938TIP3   OH242228   6.306   2.301  11.812  0.2902 -0.1909  0.5408
 6938TIP3    H142229   6.269   2.213  11.805  1.7449 -0.7833 -0.1495
 6938TIP3    H242230   6.233   2.359  11.791 -0.3678 -1.2938 -0.3470
 6939TIP3   OH242231   1.890   4.177  14.772 -0.2781 -0.2770 -0.2506
 6939TIP3    H142232   1.885   4.115  14.845  0.2543  0.5945  0.5493
 6939TIP3    H242233   1.799   4.203  14.756 -0.5676 -1.6553 -0.9559
 6940TIP3   OH242234   6.273   2.747   4.740  0.0494 -0.0702 -0.0764
 6940TIP3    H142235   6.215   2.682   4.701  0.4313 -0.3973 -0.1037
 6940TIP3    H242236   6.343   2.759   4.676 -0.5920  1.1858 -0.5596
 6941TIP3   OH242237   2.441   2.712  12.463 -0.1323 -0.8891 -0.6149
 6941TIP3    H142238   2.419   2.620  12.449  1.9773 -1.8460  1.5851
 6941TIP3    H242239   2.513   2.728  12.403  1.1887 -1.5152  0.7246
 6942TIP3   OH242240   5.988   1.515  12.615  0.2251  0.7488  0.1333
 6942TIP3    H142241   6.007   1.609  12.606 -1.7457  1.1145 -0.5966
 6942TIP3    H242242   5.993   1.481  12.525 -0.3884  0.4412  0.2112
 6943TIP3   OH242243   1.781   2.618  15.972  0.0400 -0.1518  0.0891
 6943TIP3    H142244   1.697   2.616  15.926 -1.4926 -0.4617  2.7220
 6943TIP3    H242245   1.810   2.527  15.975 -0.2203 -0.2270  0.3437
 6944TIP3   OH242246   5.530   4.026  13.888 -0.2866  0.2425 -0.3195
 6944TIP3    H142247   5.587   3.951  13.869  1.2207  0.9195  1.2445
 6944TIP3    H242248   5.533   4.079  13.809  0.9051  0.0217 -0.4482
 6945TIP3   OH242249   1.088   0.048  16.942  0.9355  0.3117 -0.1704
 6945TIP3    H142250   1.096   0.132  16.987 -1.2991  0.4864 -0.0133
 6945TIP3    H242251   1.026   0.064  16.872 -0.0505 -1.3602  0.2687
 6946TIP3   OH242252   1.251   6.337   2.415 -0.5838  0.4168 -0.0923
 6946TIP3    H142253   1.301   6.414   2.441 -3.3655  1.4228  2.9065
 6946TIP3    H242254   1.205   6.309   2.494 -3.3494 -1.4826 -2.1343
 6947TIP3   OH242255   6.584   0.276  15.593 -0.0485 -0.9277  0.0864
 6947TIP3    H142256   6.680   0.279  15.596 -0.0820  1.4073  1.4741
 6947TIP3    H242257   6.558   0.286  15.685 -1.6358 -1.5402 -0.2761
 6948TIP3   OH242258   3.192   6.204   4.467  0.0528  0.0743 -0.0706
 6948TIP3    H142259   3.268   6.146   4.466 -0.6201 -0.8223 -0.0581
 6948TIP3    H242260   3.165   6.207   4.559 -1.0471 -1.1282 -0.3256
 6949TIP3   OH242261   4.896   0.977   4.497  0.4762  0.6389  0.0426
 6949TIP3    H142262   4.938   0.899   4.461  0.3123  1.0533 -1.0939
 6949TIP3    H242263   4.810   0.947   4.526  0.8372  0.1705  0.6337
 6950TIP3   OH242264   5.707   2.419  15.736 -0.1234  0.1785 -0.0793
 6950TIP3    H142265   5.628   2.365  15.738  0.0642 -0.0813  1.1840
 6950TIP3    H242266   5.676   2.509  15.750 -0.3369  0.2794 -1.1601
 6951TIP3   OH242267   3.881   5.668  14.893 -0.1602  0.0705  0.2985
 6951TIP3    H142268   3.868   5.589  14.944 -2.2792  0.5789  0.6108
 6951TIP3    H242269   3.951   5.645  14.831 -1.2617 -2.3243 -0.1685
 6952TIP3   OH242270   4.579   5.956   4.483 -0.8178 -0.1651  0.5255
 6952TIP3    H142271   4.500   6.006   4.464 -0.4906 -0.3201 -1.4453
 6952TIP3    H242272   4.648   6.023   4.492 -0.6717 -0.1418 -0.5785
 6953TIP3   OH242273   1.419   3.107  12.840  0.0927 -0.1157 -0.3683
 6953TIP3    H142274   1.467   3.174  12.790 -1.7290  1.2004 -0.4429
 6953TIP3    H242275   1.355   3.156  12.891 -0.1944 -1.7049  0.8693
 6954TIP3   OH242276   3.318   3.430  13.110 -0.2396 -0.0780 -0.2252
 6954TIP3    H142277   3.323   3.382  13.193 -2.0986 -0.9435 -0.5585
 6954TIP3    H242278   3.326   3.522  13.134  0.1612 -0.3659  0.7947
 6955TIP3   OH242279   0.905   5.557  17.111  0.3546  0.9996  0.1380
 6955TIP3    H142280   0.955   5.541  17.031  0.0041 -1.5295  0.3683
 6955TIP3    H242281   0.969   5.548  17.182  0.2436  1.1730  0.2614
 6956TIP3   OH242282   2.511   4.887   6.989 -0.0974  0.2103 -0.6256
 6956TIP3    H142283   2.445   4.867   7.055  1.4214  2.3201  1.7093
 6956TIP3    H242284   2.570   4.812   6.990 -0.0121  0.2863  0.5184
 6957TIP3   OH242285   1.156   4.774  14.183 -0.0100  0.0294 -0.1001
 6957TIP3    H142286   1.237   4.726  14.200 -0.9459 -1.9392 -0.9421
 6957TIP3    H242287   1.180   4.838  14.115  1.5495  1.7501  1.9057
 6958TIP3   OH242288   1.937   2.506   5.098 -0.0237  0.7490  0.2361
 6958TIP3    H142289   1.945   2.427   5.044 -0.8408  1.7092 -1.3313
 6958TIP3    H242290   2.000   2.492   5.168  2.4881  0.2854 -1.9675
 6959TIP3   OH242291   5.814   1.594   1.560  0.1770  0.0573 -0.4944
 6959TIP3    H142292   5.762   1.535   1.613 -0.9054  0.5235 -0.9978
 6959TIP3    H242293   5.763   1.675   1.557  1.0368  0.6043 -0.8238
 6960TIP3   OH242294   6.544   1.911  15.104 -0.0646  0.1452  0.0565
 6960TIP3    H142295   6.625   1.865  15.083 -1.0428 -1.0116 -1.4099
 6960TIP3    H242296   6.539   1.982  15.039 -0.0956  0.3941  0.3264
 6961TIP3   OH242297   2.770   3.433  15.491 -0.4393 -0.2957  0.1348
 6961TIP3    H142298   2.677   3.415  15.477  0.1614 -2.8461 -1.2274
 6961TIP3    H242299   2.782   3.422  15.586 -1.4562 -0.3331  0.2747
 6962TIP3   OH242300   3.762   0.474  14.151 -0.7055  0.2749 -0.5362
 6962TIP3    H142301   3.746   0.437  14.064 -0.5441  0.1069 -0.4941
 6962TIP3    H242302   3.786   0.565  14.135  1.2348 -0.2488 -0.8038
 6963TIP3   OH242303   0.351   1.193   5.257 -0.0948 -0.1217  0.3770
 6963TIP3    H142304   0.271   1.190   5.203 -1.2100 -0.6811  1.9750
 6963TIP3    H242305   0.332   1.257   5.325  0.3967 -0.9903  1.3698
 6964TIP3   OH242306   4.442   2.741   2.771  0.3121 -0.0511  0.0879
 6964TIP3    H142307   4.484   2.802   2.710  0.5835 -0.2159  0.1094
 6964TIP3    H242308   4.415   2.668   2.716  0.3588 -0.0998  0.1303
 6965TIP3   OH242309   2.245   4.424  12.039 -0.2578 -0.1917 -0.3725
 6965TIP3    H142310   2.239   4.493  11.974 -1.4235  0.3481  0.2823
 6965TIP3    H242311   2.324   4.374  12.015  0.1573  0.8881 -1.2974
 6966TIP3   OH242312   2.722   5.695   0.986  0.6006  0.5987  0.0993
 6966TIP3    H142313   2.711   5.726   1.076  1.0868 -1.6193  0.9844
 6966TIP3    H242314   2.701   5.601   0.990  0.1395  0.5507 -2.2061
 6967TIP3   OH242315   3.669   3.180   1.499  0.0045 -0.1946  0.7041
 6967TIP3    H142316   3.599   3.202   1.437 -0.5743  0.2345  1.4947
 6967TIP3    H242317   3.684   3.086   1.487 -1.7329 -0.6138  1.5386
 6968TIP3   OH242318   0.708   6.660   6.642  0.3467  0.8647 -0.3325
 6968TIP3    H142319   0.732   6.575   6.605 -0.8746  0.5824 -0.5023
 6968TIP3    H242320   0.792   6.700   6.666  1.1551  0.6509 -2.5045
 6969TIP3   OH242321   0.978   4.052  14.041 -0.2426  0.1929  0.4270
 6969TIP3    H142322   1.052   4.009  13.998  0.6580  0.8337  1.3031
 6969TIP3    H242323   1.014   4.089  14.121 -1.4182  0.8985  0.6605
 6970TIP3   OH242324   2.898   4.474   1.903  0.1298  0.0741 -0.6594
 6970TIP3    H142325   2.905   4.443   1.993  0.1856  1.6695 -0.0830
 6970TIP3    H242326   2.948   4.410   1.852  0.0197 -0.9066  0.4154
 6971TIP3   OH242327   4.841   6.273   4.267 -0.0338  0.2668 -0.5484
 6971TIP3    H142328   4.892   6.200   4.301 -1.2457  0.1299  1.0834
 6971TIP3    H242329   4.865   6.278   4.175  0.8701 -1.4967 -0.4508
 6972TIP3   OH242330   5.434   2.399  13.087 -0.3052  0.2970 -0.0594
 6972TIP3    H142331   5.418   2.464  13.155 -1.2557  0.3834 -0.3521
 6972TIP3    H242332   5.351   2.351  13.079 -0.5360  0.8945 -1.7745
 6973TIP3   OH242333   3.876   3.266   0.993 -0.0862 -0.2942  0.3341
 6973TIP3    H142334   3.889   3.331   1.062 -1.5194 -0.4179  0.7679
 6973TIP3    H242335   3.881   3.316   0.912 -0.8781  0.3195  0.6493
 6974TIP3   OH242336   0.286   4.423  14.266 -0.1080  0.2197 -0.0106
 6974TIP3    H142337   0.359   4.363  14.281  0.6467  1.3852  1.2967
 6974TIP3    H242338   0.239   4.387  14.191  1.5719 -0.7906 -0.6230
 6975TIP3   OH242339   3.393   5.688  11.656  0.2179  0.4550 -0.3594
 6975TIP3    H142340   3.488   5.681  11.645  0.3689 -1.8753  1.5174
 6975TIP3    H242341   3.371   5.619  11.719 -2.5533  1.8804  0.3907
 6976TIP3   OH242342   3.365   5.202  11.469 -0.0702 -0.2781  0.1208
 6976TIP3    H142343   3.417   5.177  11.545  1.4292 -0.3230 -0.8963
 6976TIP3    H242344   3.397   5.146  11.398 -0.7624  0.4495 -0.7917
 6977TIP3   OH242345   3.851   4.689  14.790 -0.0629 -0.3984 -0.2708
 6977TIP3    H142346   3.934   4.649  14.817 -0.6560 -1.2116  0.4062
 6977TIP3    H242347   3.811   4.720  14.872 -0.6052 -0.3645 -0.5449
 6978TIP3   OH242348   5.470   1.781   4.147 -0.3238  0.3317  0.3912
 6978TIP3    H142349   5.558   1.818   4.140 -0.1518 -0.3541 -1.5228
 6978TIP3    H242350   5.412   1.851   4.115 -0.1967 -0.2269 -1.1058
 6979TIP3   OH242351   2.252   0.646  12.293  0.0527  1.0580  0.0109
 6979TIP3    H142352   2.192   0.655  12.367  1.1462 -1.4147  1.3084
 6979TIP3    H242353   2.218   0.572  12.244  1.3711  0.3639  0.1183
 6980TIP3   OH242354   2.640   4.787  14.328 -0.3544  0.1339 -0.6607
 6980TIP3    H142355   2.654   4.717  14.392  1.2665 -0.3041 -1.4236
 6980TIP3    H242356   2.591   4.854  14.375 -1.3722 -1.2166  0.2905
 6981TIP3   OH242357   6.122   5.659   3.539 -0.2732 -0.1783 -0.0882
 6981TIP3    H142358   6.167   5.607   3.472 -0.8618  0.1310 -0.7273
 6981TIP3    H242359   6.193   5.702   3.587  0.1405 -0.1259 -0.7352
 6982TIP3   OH242360   4.865   0.625  10.642 -0.2369  0.2825  0.5244
 6982TIP3    H142361   4.934   0.634  10.708  0.2635 -1.8745  0.3816
 6982TIP3    H242362   4.855   0.530  10.631 -1.3879  0.5710 -1.3766
 6983TIP3   OH242363   0.090   3.673  14.871  0.9643 -0.1034  0.4134
 6983TIP3    H142364   0.118   3.763  14.854 -0.4485  0.3184  0.2228
 6983TIP3    H242365   0.168   3.620  14.852  0.7400  0.6645 -3.5987
 6984TIP3   OH242366   2.807   6.001  13.686  0.0355  0.3586  1.1000
 6984TIP3    H142367   2.788   6.023  13.594 -0.8751  1.6617  1.5670
 6984TIP3    H242368   2.897   6.031  13.700  0.1598  0.2016  0.6457
 6985TIP3   OH242369   6.607   0.315   5.388  0.3843  0.1971  0.3350
 6985TIP3    H142370   6.645   0.268   5.314 -0.9746  0.1816 -0.3793
 6985TIP3    H242371   6.615   0.255   5.462 -0.2467 -0.6928 -0.2971
 6986TIP3   OH242372   1.367   3.597   2.870 -0.1893  0.2794 -0.4555
 6986TIP3    H142373   1.408   3.580   2.954  2.0285  2.5008 -0.9514
 6986TIP3    H242374   1.420   3.547   2.807 -1.8064 -1.3400 -0.6132
 6987TIP3   OH242375   2.355   6.021  13.347 -0.3186  0.0265  0.1208
 6987TIP3    H142376   2.335   6.073  13.424  0.7964  0.6145  0.0440
 6987TIP3    H242377   2.320   6.072  13.274 -1.2510 -0.4623  0.2230
 6988TIP3   OH242378   1.193   2.646  17.149  0.0066  0.1082 -0.4531
 6988TIP3    H142379   1.168   2.561  17.114 -0.4806  0.3215 -0.6283
 6988TIP3    H242380   1.169   2.708  17.081  0.7924  0.3464 -0.5245
 6989TIP3   OH242381   4.668   5.040   1.665 -0.2035 -0.0180  0.5761
 6989TIP3    H142382   4.698   5.096   1.737  1.8591 -0.4936  0.1363
 6989TIP3    H242383   4.740   4.979   1.651 -1.4938 -1.3493 -0.4528
 6990TIP3   OH242384   2.355   6.012  14.188  0.0335 -0.0941 -0.3562
 6990TIP3    H142385   2.339   5.920  14.209 -1.6896 -0.0353 -1.2177
 6990TIP3    H242386   2.406   6.045  14.263 -0.1848 -1.4888  0.4506
 6991TIP3   OH242387   2.473   5.626  11.262 -0.5698 -0.4300 -0.5808
 6991TIP3    H142388   2.468   5.687  11.336  0.4481 -1.5289  0.4396
 6991TIP3    H242389   2.499   5.680  11.188  1.1789  0.2649  0.4868
 6992TIP3   OH242390   3.705   2.870  12.580 -0.1637 -0.2360 -0.2547
 6992TIP3    H142391   3.758   2.866  12.500  0.1691 -1.3461  0.0107
 6992TIP3    H242392   3.620   2.836  12.554  0.4154 -2.1309  0.2164
 6993TIP3   OH242393   0.943   5.723   1.042  0.9540  0.0893  0.3359
 6993TIP3    H142394   0.984   5.765   0.967 -0.5315 -0.8930 -1.0857
 6993TIP3    H242395   0.917   5.795   1.099  1.2898  0.9029 -0.5215
 6994TIP3   OH242396   0.862   1.214  11.644  0.1892 -0.2097  0.3645
 6994TIP3    H142397   0.785   1.256  11.605  1.1252  0.2304 -1.0446
 6994TIP3    H242398   0.919   1.287  11.669  0.1794 -0.5339  1.4218
 6995TIP3   OH242399   5.819   4.572   3.701  0.2872 -0.4209  0.2191
 6995TIP3    H142400   5.780   4.509   3.641 -0.7347 -0.1627  0.5825
 6995TIP3    H242401   5.906   4.590   3.665 -0.0211 -0.8269 -0.7592
 6996TIP3   OH242402   2.151   2.913  16.794 -0.2137 -0.2012  0.1702
 6996TIP3    H142403   2.161   2.987  16.734  0.9520  2.0029  2.8471
 6996TIP3    H242404   2.090   2.945  16.861  0.3510 -1.6128  1.4113
 6997TIP3   OH242405   2.386   6.589  12.764  0.5535  0.4525  0.0022
 6997TIP3    H142406   2.366   6.544  12.682  0.8076 -0.1772  0.2816
 6997TIP3    H242407   2.320   6.658  12.770  0.4954  0.4619 -0.6981
 6998TIP3   OH242408   2.738   3.209  15.749 -0.1761  0.1393 -0.6758
 6998TIP3    H142409   2.668   3.163  15.703 -0.9003  0.9171 -0.3776
 6998TIP3    H242410   2.800   3.140  15.773 -0.9096 -0.5882 -0.8256
 6999TIP3   OH242411   0.895   2.652  12.050  0.0973 -0.5147  0.1438
 6999TIP3    H142412   0.842   2.631  12.127  0.2757 -0.0316  0.4032
 6999TIP3    H242413   0.968   2.705  12.084  0.5517 -0.8642 -0.2590
 7000TIP3   OH242414   2.553   1.948  13.691  0.3175 -0.7118  0.5346
 7000TIP3    H142415   2.645   1.970  13.676 -0.3799  0.7542 -2.2550
 7000TIP3    H242416   2.516   2.026  13.732 -0.3431  0.1080 -1.5042
 7001TIP3   OH242417   4.564   1.645  12.483  0.6489 -0.0786 -0.6207
 7001TIP3    H142418   4.651   1.661  12.520  1.2337 -0.6578 -1.7192
 7001TIP3    H242419   4.578   1.581  12.414 -0.9286 -1.6592  0.4458
 7002TIP3   OH242420   2.822   1.533   3.122 -0.1018  0.1587 -0.6426
 7002TIP3    H142421   2.908   1.565   3.096 -0.6720  1.1483 -1.4011
 7002TIP3    H242422   2.776   1.610   3.155 -0.9162 -0.2084 -0.8654
 7003TIP3   OH242423   6.671   3.639   4.956  0.0093  0.4992 -0.6640
 7003TIP3    H142424   6.646   3.548   4.973  0.9180  0.2150 -0.7863
 7003TIP3    H242425   6.610   3.691   5.008  0.2786 -0.2158  0.3860
 7004TIP3   OH242426   3.579   5.697   5.146 -0.3286  0.1915 -0.0659
 7004TIP3    H142427   3.501   5.747   5.173 -0.6765 -0.4444  0.1237
 7004TIP3    H242428   3.652   5.747   5.180 -0.7551 -0.7870  2.4849
 7005TIP3   OH242429   1.661   2.527  16.442 -0.6309 -0.0443  0.4903
 7005TIP3    H142430   1.645   2.455  16.380 -1.9220  1.0695 -0.5384
 7005TIP3    H242431   1.731   2.578  16.403  0.6223 -0.9566  1.4570
 7006TIP3   OH242432   2.266   2.130   0.549  0.3103  0.1679 -0.1176
 7006TIP3    H142433   2.272   2.052   0.493  0.4864 -0.5089  0.8160
 7006TIP3    H242434   2.355   2.166   0.549  0.9472 -1.2424  1.6498
 7007TIP3   OH242435   5.204   5.967   1.684  0.0490  0.0856  0.1522
 7007TIP3    H142436   5.268   6.036   1.667  0.2453 -0.4266 -1.4271
 7007TIP3    H242437   5.125   6.013   1.712  0.9859  0.7427  1.8579
 7008TIP3   OH242438   0.325   2.868   3.587  0.9615  0.3316  0.3944
 7008TIP3    H142439   0.259   2.931   3.558  0.6998 -0.9346 -1.9982
 7008TIP3    H242440   0.274   2.794   3.620  1.1843 -0.2743 -0.5992
 7009TIP3   OH242441   2.874   6.146   0.236  0.5736 -0.3289 -0.0875
 7009TIP3    H142442   2.948   6.097   0.271  1.0573  0.0028 -0.6407
 7009TIP3    H242443   2.809   6.079   0.215  0.6242 -0.6039  0.5941
 7010TIP3   OH242444   4.870   4.344  14.492  0.3613  0.0845 -0.5202
 7010TIP3    H142445   4.799   4.398  14.527  1.1838  1.6761 -1.1939
 7010TIP3    H242446   4.949   4.380  14.533  0.9011 -0.9405 -0.6319
 7011TIP3   OH242447   2.035   2.617   0.178  0.4656  0.5968  0.0310
 7011TIP3    H142448   2.077   2.608   0.263  0.9465 -0.4254 -0.2898
 7011TIP3    H242449   2.107   2.605   0.115 -0.4789 -2.9549 -0.5770
 7012TIP3   OH242450   2.256   2.737  16.595 -0.1513 -0.0857  0.1986
 7012TIP3    H142451   2.242   2.780  16.679  0.2945 -0.9855  0.7454
 7012TIP3    H242452   2.172   2.696  16.575 -0.4848  0.7610 -0.1741
 7013TIP3   OH242453   2.124   2.440  16.721 -0.1023  0.3684 -0.1525
 7013TIP3    H142454   2.108   2.530  16.750  2.9404  0.7395  0.6910
 7013TIP3    H242455   2.079   2.386  16.785 -0.5200  1.2544  0.3261
 7014TIP3   OH242456   1.966   1.654   4.708 -0.2358 -0.2162  0.2223
 7014TIP3    H142457   2.031   1.677   4.642 -1.8038  0.8178 -1.0344
 7014TIP3    H242458   1.948   1.561   4.693 -0.8950  0.1149 -1.1262
 7015TIP3   OH242459   2.905   6.116  14.094 -0.0092  0.3759 -0.1263
 7015TIP3    H142460   2.899   6.209  14.071 -1.3295  0.0936 -1.0560
 7015TIP3    H242461   2.822   6.079  14.064 -0.3795 -0.7185  2.0934
 7016TIP3   OH242462   1.947   3.494   4.547  0.0999  0.3778  0.7618
 7016TIP3    H142463   2.038   3.463   4.553 -0.4194 -1.4456  0.0653
 7016TIP3    H242464   1.895   3.413   4.545 -1.4455  1.3450 -0.2648
 7017TIP3   OH242465   2.046   4.601   2.683 -0.4593 -0.6113  0.5691
 7017TIP3    H142466   2.080   4.665   2.620 -1.3385 -2.0288 -1.4549
 7017TIP3    H242467   2.112   4.598   2.752  2.0917 -1.1052 -1.7143
 7018TIP3   OH242468   6.362   0.019  11.767 -0.1318  0.2101 -0.3403
 7018TIP3    H142469   6.452  -0.013  11.768 -0.0120  0.5177 -0.7487
 7018TIP3    H242470   6.308  -0.060  11.774  0.1304  0.1839  3.7883
 7019TIP3   OH242471   0.381   5.386  15.023 -0.5837 -0.3752 -0.1702
 7019TIP3    H142472   0.430   5.446  14.966  1.2697 -1.0147  0.6526
 7019TIP3    H242473   0.334   5.443  15.084 -0.0348  0.2690 -0.3418
 7020TIP3   OH242474   3.828   3.482  11.815  0.0199  0.5337 -0.0182
 7020TIP3    H142475   3.792   3.568  11.839 -1.6466  0.4323 -1.8842
 7020TIP3    H242476   3.923   3.495  11.817 -0.1676  2.0143  1.1066
 7021TIP3   OH242477   3.096   2.514  11.589  0.0327 -0.0272 -0.0419
 7021TIP3    H142478   3.082   2.475  11.675 -0.8848  0.6198  0.1271
 7021TIP3    H242479   3.009   2.512  11.548 -0.1609  2.0889  0.1120
 7022TIP3   OH242480   1.057   5.871   0.390  0.2646 -0.4032 -0.6704
 7022TIP3    H142481   1.087   5.909   0.473 -1.7885  2.4612 -1.0801
 7022TIP3    H242482   1.060   5.776   0.404  2.4509 -0.0917  1.7037
 7023TIP3   OH242483   0.992   4.917   0.881 -0.0502 -0.2429 -0.2989
 7023TIP3    H142484   0.956   4.997   0.842 -0.3932  0.2668  1.0065
 7023TIP3    H242485   0.938   4.901   0.958  1.4337 -0.4170  0.7578
 7024TIP3   OH242486   0.042   3.569   0.098  0.5093  0.3147 -0.1983
 7024TIP3    H142487   0.091   3.651   0.102 -1.2634  1.3772  1.7717
 7024TIP3    H242488   0.080   3.515   0.167  2.0125 -0.8081 -1.8212
 7025TIP3   OH242489   5.222   3.468   0.375  0.4821 -0.5176 -0.0810
 7025TIP3    H142490   5.303   3.465   0.425  0.4300 -0.6418 -0.0047
 7025TIP3    H242491   5.211   3.561   0.354  0.3901 -0.4337  0.3279
 7026TIP3   OH242492   0.186   4.796   0.816 -0.1961  0.3603 -0.1658
 7026TIP3    H142493   0.104   4.804   0.864 -0.7243 -0.9453 -0.7942
 7026TIP3    H242494   0.160   4.786   0.725  0.8166  3.6954 -0.9615
 7027TIP3   OH242495   2.815   4.516  12.120 -0.1546  0.2179  0.1823
 7027TIP3    H142496   2.892   4.546  12.168 -1.0872  1.1178  1.1735
 7027TIP3    H242497   2.781   4.594  12.078  0.0732 -0.3785 -1.1431
 7028TIP3   OH242498   1.782   1.244   0.123  0.3118 -0.0491 -0.0172
 7028TIP3    H142499   1.878   1.245   0.130  0.3151 -0.7933  0.1227
 7028TIP3    H242500   1.761   1.157   0.089 -0.4167 -0.5774  1.6860
 7029TIP3   OH242501   0.343   6.244  14.259 -0.3571  0.7482  0.4888
 7029TIP3    H142502   0.356   6.187  14.335  1.2650  0.3956 -0.0135
 7029TIP3    H242503   0.391   6.324  14.280  3.2732 -0.6507 -1.4856
 7030TIP3   OH242504   1.084   3.045  13.491  0.5213 -0.2462 -0.5918
 7030TIP3    H142505   1.096   2.964  13.540 -0.8166  0.5997  1.2447
 7030TIP3    H242506   1.161   3.098  13.514  1.0604 -0.7244 -1.2676
 7031TIP3   OH242507   0.391   4.487  17.137 -0.0697  0.1773  0.0959
 7031TIP3    H142508   0.443   4.559  17.170  0.9597  0.2172 -1.5124
 7031TIP3    H242509   0.331   4.528  17.074  0.0796 -0.2597 -0.3403
 7032TIP3   OH242510   4.484   6.202   0.918 -0.0780  1.2033  0.6726
 7032TIP3    H142511   4.391   6.182   0.918  0.5348 -2.3945 -0.1271
 7032TIP3    H242512   4.502   6.234   0.829 -0.4016  0.8507  0.4769
 7033TIP3   OH242513   3.431   1.604  15.204  0.6016  0.1668  0.8670
 7033TIP3    H142514   3.419   1.692  15.238 -1.7290  0.3867 -0.3360
 7033TIP3    H242515   3.436   1.616  15.109  0.8845 -0.9590  0.7241
 7034TIP3   OH242516   1.165   4.651  11.568  0.2013  0.5956  0.0524
 7034TIP3    H142517   1.104   4.578  11.551  0.6814  0.1266  0.3057
 7034TIP3    H242518   1.109   4.726  11.585 -0.3061  0.4362 -0.8654
 7035TIP3   OH242519   1.781   5.086   6.008 -0.0052 -0.0038  0.3325
 7035TIP3    H142520   1.740   5.125   6.086 -2.0236 -0.5898 -0.3648
 7035TIP3    H242521   1.776   5.154   5.942 -2.1893 -0.8183 -0.4538
 7036TIP3   OH242522   3.859   5.133  13.396 -0.4294 -0.2960  0.5427
 7036TIP3    H142523   3.863   5.118  13.301  0.6335 -1.3631  0.7292
 7036TIP3    H242524   3.776   5.177  13.410  0.1139  1.4136 -1.0934
 7037TIP3   OH242525   0.800   1.607   1.294 -0.4573  0.3935  0.1781
 7037TIP3    H142526   0.754   1.562   1.222 -0.1638  2.3392 -1.2952
 7037TIP3    H242527   0.769   1.697   1.289  0.7240  0.9034  1.5702
 7038TIP3   OH242528   4.275   6.062  12.880 -0.5171 -0.3087  0.3290
 7038TIP3    H142529   4.246   6.023  12.962 -0.6941  0.8732  0.8394
 7038TIP3    H242530   4.205   6.122  12.855 -0.5744 -0.8098 -0.8208
 7039TIP3   OH242531   0.062   5.676  16.708  0.4874  0.0540  0.1978
 7039TIP3    H142532   0.080   5.735  16.782 -0.2757  1.6982 -0.8748
 7039TIP3    H242533   0.100   5.720  16.632 -0.5677 -0.5735 -0.7266
 7040TIP3   OH242534   6.241   3.657   5.802  0.0997 -0.3291  0.0398
 7040TIP3    H142535   6.194   3.711   5.866 -0.8987 -0.7082 -0.3416
 7040TIP3    H242536   6.274   3.583   5.853  0.0354 -0.2042  0.2646
 7041TIP3   OH242537   1.612   1.816  15.444 -0.5123 -0.1404  0.3564
 7041TIP3    H142538   1.659   1.857  15.372 -1.2893 -2.2025 -1.4575
 7041TIP3    H242539   1.532   1.867  15.454  0.7432  1.6940  1.5676
 7042TIP3   OH242540   6.695   1.916   0.667  0.8715 -0.4891 -0.6659
 7042TIP3    H142541   6.688   1.880   0.755 -2.0519  1.1729 -0.0940
 7042TIP3    H242542   6.690   1.840   0.609 -0.6148 -1.3840  0.5578
 7043TIP3   OH242543   3.624   6.561   3.377  0.2943  0.1444  0.3217
 7043TIP3    H142544   3.648   6.635   3.322  1.7588 -1.6443 -1.5766
 7043TIP3    H242545   3.547   6.523   3.334  1.2433 -1.0624 -0.3624
 7044TIP3   OH242546   0.162   2.506  11.566  0.2410 -0.3530  0.3275
 7044TIP3    H142547   0.235   2.521  11.626  0.0421 -1.4106  0.8660
 7044TIP3    H242548   0.130   2.418  11.589  0.2596 -0.8584 -1.4157
 7045TIP3   OH242549   3.659   4.557  12.006  0.1987 -0.2961 -0.5109
 7045TIP3    H142550   3.671   4.623  12.075  0.6863 -1.1010  0.1840
 7045TIP3    H242551   3.576   4.583  11.964  1.7362  2.4507 -2.1762
 7046TIP3   OH242552   2.538   6.697  12.410 -0.1286  0.0702 -0.2823
 7046TIP3    H142553   2.575   6.722  12.495  0.3813 -2.2242  0.2403
 7046TIP3    H242554   2.448   6.729  12.413 -0.1214  0.0302  1.1377
 7047TIP3   OH242555   5.701   5.915  17.355 -0.9384 -0.8656  0.0473
 7047TIP3    H142556   5.768   5.882  17.296  0.1149 -0.5975  1.0676
 7047TIP3    H242557   5.626   5.932  17.298  0.8769  1.9563 -1.7381
 7048TIP3   OH242558   6.153   6.226  16.183  0.5143  0.2525 -0.1110
 7048TIP3    H142559   6.086   6.185  16.237  2.1289 -0.2565  1.6358
 7048TIP3    H242560   6.175   6.160  16.118 -0.1716  0.1539 -0.2450
 7049TIP3   OH242561   5.868   3.232   0.106  0.2256  0.1732 -0.5210
 7049TIP3    H142562   5.809   3.157   0.103 -0.3348  0.5963 -0.0825
 7049TIP3    H242563   5.914   3.223   0.190 -0.1192  0.5324 -0.2942
 7050TIP3   OH242564   2.546   6.570   5.803  0.6933  0.3133 -0.2869
 7050TIP3    H142565   2.520   6.485   5.837 -2.3719  1.3530  0.3056
 7050TIP3    H242566   2.616   6.599   5.862  0.0275 -0.7157  1.0756
 7051TIP3   OH242567   5.131   2.848   2.217 -0.3574  0.3735  0.1767
 7051TIP3    H142568   5.209   2.798   2.194  0.1912  0.7527  1.1620
 7051TIP3    H242569   5.081   2.789   2.274 -2.5721 -1.2516 -3.1296
 7052TIP3   OH242570   0.282   2.426   5.923  0.2423  0.2799  0.9515
 7052TIP3    H142571   0.254   2.336   5.938 -0.3065  0.2957  0.1243
 7052TIP3    H242572   0.338   2.447   5.997  4.0437 -2.2202 -0.9053
 7053TIP3   OH242573   5.846   0.464   3.687 -0.5158 -0.3217  0.8756
 7053TIP3    H142574   5.890   0.437   3.606  0.8230 -0.7169  1.7048
 7053TIP3    H242575   5.756   0.433   3.677  0.1250 -2.1013  0.3603
 7054TIP3   OH242576   6.363   0.414   0.809 -0.3133 -0.2833  0.7965
 7054TIP3    H142577   6.408   0.495   0.784 -0.0968 -0.2943  1.1409
 7054TIP3    H242578   6.433   0.351   0.820 -0.4866 -0.5339  0.4857
 7055TIP3   OH242579   5.407   0.749   3.297  0.2031 -0.5198  0.0064
 7055TIP3    H142580   5.373   0.685   3.233 -2.2864 -0.6606  1.3500
 7055TIP3    H242581   5.414   0.830   3.247  1.0098 -1.2420 -1.1161
 7056TIP3   OH242582   3.085   3.383   1.199 -0.3917 -0.0951  0.4881
 7056TIP3    H142583   3.109   3.290   1.196 -0.3603 -0.1222  1.3106
 7056TIP3    H242584   3.120   3.414   1.282  0.3562  0.8768 -0.1636
 7057TIP3   OH242585   0.302   3.228   5.054 -0.3857  0.5626 -0.1934
 7057TIP3    H142586   0.325   3.225   4.961 -0.2239 -0.0608 -0.1431
 7057TIP3    H242587   0.216   3.270   5.056  0.1221  1.6306 -0.5149
 7058TIP3   OH242588   3.160   0.032   1.982 -0.1071  0.1739  0.3661
 7058TIP3    H142589   3.161   0.127   1.975 -2.1282  0.1552 -0.8865
 7058TIP3    H242590   3.241   0.003   1.940 -0.0725  1.2918 -0.3672
 7059TIP3   OH242591   4.188   5.378  15.434 -0.1721  0.3679  0.6242
 7059TIP3    H142592   4.168   5.471  15.417 -1.5686  0.1258  0.8231
 7059TIP3    H242593   4.165   5.334  15.352  2.3994  0.4031 -0.2046
 7060TIP3   OH242594   0.830   5.175  15.063  0.5780 -0.0027  0.2646
 7060TIP3    H142595   0.838   5.139  14.975 -0.7174 -1.0726  0.5555
 7060TIP3    H242596   0.862   5.106  15.120 -0.2203 -0.0037  0.7265
 7061TIP3   OH242597   0.856   4.210  11.474 -0.5764 -0.2699 -0.0430
 7061TIP3    H142598   0.809   4.221  11.391  0.0905 -0.4979 -0.4625
 7061TIP3    H242599   0.860   4.116  11.488  0.2525 -0.2877 -0.3183
 7062TIP3   OH242600   3.231   1.149  12.780  0.2825 -0.5406 -0.0435
 7062TIP3    H142601   3.203   1.234  12.814 -0.8418  0.0640 -2.3382
 7062TIP3    H242602   3.227   1.090  12.856 -1.7939  0.7808  0.9444
 7063TIP3   OH242603   2.389   6.323   1.761 -0.2088 -0.1103  0.2574
 7063TIP3    H142604   2.471   6.371   1.747 -1.3449  1.7023 -0.6077
 7063TIP3    H242605   2.368   6.337   1.853  1.2944 -2.0877  0.9697
 7064TIP3   OH242606   6.277   4.314   1.232  0.1268  0.3227  0.5082
 7064TIP3    H142607   6.196   4.314   1.182  0.2587  2.0174  0.2377
 7064TIP3    H242608   6.278   4.229   1.277 -2.3769  0.7075  1.4609
 7065TIP3   OH242609   6.260   3.658   5.537 -0.2207 -0.0791  0.2715
 7065TIP3    H142610   6.353   3.677   5.524  0.1276 -1.4473  0.6400
 7065TIP3    H242611   6.246   3.666   5.631 -1.0059  2.2471  0.0273
 7066TIP3   OH242612   2.538   2.136   0.227 -0.1283  0.0923 -0.0099
 7066TIP3    H142613   2.579   2.209   0.181 -0.8425  0.9608  0.7049
 7066TIP3    H242614   2.578   2.058   0.189  0.6812  0.8550 -0.7504
 7067TIP3   OH242615   1.636   4.164  11.324 -0.8150  0.0194 -0.3943
 7067TIP3    H142616   1.703   4.137  11.388  0.5952  2.6254 -0.6370
 7067TIP3    H242617   1.653   4.108  11.248 -1.2975 -1.8101  0.7656
 7068TIP3   OH242618   1.142   4.764  13.141  0.6543  0.5076 -0.2938
 7068TIP3    H142619   1.054   4.731  13.160  1.8607 -1.3049  2.9570
 7068TIP3    H242620   1.198   4.686  13.148  2.6238  1.6972 -1.7786
 7069TIP3   OH242621   6.621   6.174   1.476 -0.2053 -0.3638 -0.0562
 7069TIP3    H142622   6.564   6.139   1.544 -0.9189 -0.7874 -0.8389
 7069TIP3    H242623   6.701   6.121   1.481  0.2777  0.4639  1.2760
 7070TIP3   OH242624   0.977   3.198  11.392 -0.3688  0.3063 -0.2221
 7070TIP3    H142625   0.993   3.196  11.297  0.1891 -1.9784 -0.1566
 7070TIP3    H242626   0.989   3.289  11.417  3.6816  0.3698 -1.6724
 7071TIP3   OH242627   5.725   3.461   2.020  0.0650  0.1847  0.1546
 7071TIP3    H142628   5.684   3.530   1.967  1.2206  0.7637 -0.0144
 7071TIP3    H242629   5.674   3.460   2.101 -0.3709  0.7918 -0.1037
 7072TIP3   OH242630   3.918   1.089  14.232 -0.6004 -0.1067  0.3080
 7072TIP3    H142631   3.935   1.161  14.293  0.1545 -0.5773  0.6618
 7072TIP3    H242632   3.909   1.132  14.147  2.9208  0.1929 -0.0439
 7073TIP3   OH242633   6.655   6.631   2.166  0.3585 -0.2935 -0.5626
 7073TIP3    H142634   6.703   6.713   2.169  0.7606 -0.5307 -0.4373
 7073TIP3    H242635   6.594   6.641   2.093  1.5878 -0.5325 -1.6421
 7074TIP3   OH242636   3.785   5.240  16.768 -0.2316 -0.5411  0.0960
 7074TIP3    H142637   3.766   5.332  16.749 -1.4155 -0.5817  0.9659
 7074TIP3    H242638   3.794   5.198  16.683 -2.2173 -0.1070 -0.3640
 7075TIP3   OH242639   3.242   3.751   3.756 -0.3808  0.3676 -0.3312
 7075TIP3    H142640   3.300   3.816   3.716 -0.3675  0.4054 -0.2514
 7075TIP3    H242641   3.180   3.728   3.687  0.1374 -0.1686 -0.6313
 7076TIP3   OH242642   3.343   3.510   5.485 -0.6676 -0.1440  0.2657
 7076TIP3    H142643   3.324   3.602   5.466  0.7819  0.0826 -0.1942
 7076TIP3    H242644   3.297   3.461   5.416 -2.2198  0.1303  1.0449
 7077TIP3   OH242645   1.449   1.407  16.786 -0.1475 -0.2475  0.6665
 7077TIP3    H142646   1.397   1.408  16.867 -0.5086 -0.4043  0.4402
 7077TIP3    H242647   1.481   1.496  16.777  0.0978 -0.2864  1.1139
 7078TIP3   OH242648   5.936   0.049   3.121  0.1011  0.1872 -0.9878
 7078TIP3    H142649   5.945   0.116   3.189 -2.8285 -0.8972  0.6302
 7078TIP3    H242650   6.025   0.037   3.088  1.1226  3.0949  0.3371
 7079TIP3   OH242651   4.844   4.202  17.367  0.3978  0.1107 -0.3203
 7079TIP3    H142652   4.785   4.153  17.309 -0.1356  0.8904 -0.4451
 7079TIP3    H242653   4.895   4.258  17.308  1.0125 -0.2861 -0.1746
 7080TIP3   OH242654   1.488   1.963  15.050 -0.4256  0.0464  0.6899
 7080TIP3    H142655   1.396   1.940  15.040 -0.4019 -0.0769  0.7524
 7080TIP3    H242656   1.535   1.895  15.002 -0.4694  1.5335 -1.6297
 7081TIP3   OH242657   1.696   6.054   2.687  0.0846  0.3031  0.0488
 7081TIP3    H142658   1.602   6.038   2.700 -0.2714  1.8651 -0.4733
 7081TIP3    H242659   1.719   6.117   2.754  1.0168 -0.8069  0.8092
 7082TIP3   OH242660   1.855   0.058  17.233  0.3810 -0.3961  0.0857
 7082TIP3    H142661   1.788   0.111  17.275  0.5992  0.2661 -0.3844
 7082TIP3    H242662   1.925   0.052  17.297  0.7963  0.7724 -0.2457
 7083TIP3   OH242663   4.384   0.578  11.175 -0.6620  0.0553  0.5364
 7083TIP3    H142664   4.320   0.582  11.104  1.3969 -0.7788 -1.4943
 7083TIP3    H242665   4.357   0.648  11.235 -1.6043  1.8923 -1.8623
 7084TIP3   OH242666   0.795   4.039  13.707 -0.0701  0.2520  0.3048
 7084TIP3    H142667   0.743   4.110  13.745 -0.0433  0.5548 -0.2065
 7084TIP3    H242668   0.802   4.063  13.614  1.2400  0.3757  0.4259
 7085TIP3   OH242669   5.522   1.760  11.610  0.1153 -0.5477  0.0444
 7085TIP3    H142670   5.589   1.774  11.542  0.7479 -1.8240  0.3594
 7085TIP3    H242671   5.440   1.757  11.562  0.5006 -0.9066 -0.6118
 7086TIP3   OH242672   2.388   4.726   0.043 -0.3047  0.0047 -0.1823
 7086TIP3    H142673   2.432   4.811   0.039 -1.1412  0.4860  0.4963
 7086TIP3    H242674   2.458   4.665   0.066 -0.1456  0.9104  1.9705
 7087TIP3   OH242675   3.680   6.291  10.843 -0.2243  0.4288  0.0812
 7087TIP3    H142676   3.601   6.294  10.790  1.3603 -0.8932 -2.5668
 7087TIP3    H242677   3.688   6.200  10.871 -0.4211  0.8760  1.6884
 7088TIP3   OH242678   0.488   0.705   2.619  0.7787 -0.6021  0.5886
 7088TIP3    H142679   0.542   0.778   2.588  0.3113 -0.8239 -0.8305
 7088TIP3    H242680   0.405   0.746   2.645  0.0286 -0.7076 -1.4362
 7089TIP3   OH242681   0.271   0.362  14.496  0.3941 -0.1721 -0.1800
 7089TIP3    H142682   0.282   0.457  14.508 -2.2322  0.2981 -0.8058
 7089TIP3    H242683   0.269   0.327  14.585 -0.9768  0.7505  0.2007
 7090TIP3   OH242684   6.167   4.761   4.068  0.2664 -0.5392 -0.3357
 7090TIP3    H142685   6.227   4.835   4.081 -0.2559 -0.1289 -0.2177
 7090TIP3    H242686   6.192   4.725   3.984  2.1800 -1.7995  0.7002
 7091TIP3   OH242687   1.838   6.361   4.822  0.1015 -0.2609 -0.0878
 7091TIP3    H142688   1.868   6.294   4.883 -0.9990  0.1111  0.9062
 7091TIP3    H242689   1.744   6.346   4.813  0.3489 -0.7740 -2.3205
 7092TIP3   OH242690   3.561   3.152   0.223  0.7402 -0.0302  0.4698
 7092TIP3    H142691   3.573   3.228   0.281  0.5382  0.6931 -0.4182
 7092TIP3    H242692   3.485   3.107   0.259  1.1007 -0.0435  1.2417
 7093TIP3   OH242693   4.391   6.071   3.631 -0.0141  0.2677 -0.6975
 7093TIP3    H142694   4.420   6.147   3.580  1.6938 -0.3438 -0.7085
 7093TIP3    H242695   4.435   5.997   3.590 -2.0336 -0.8508 -1.0087
 7094TIP3   OH242696   1.795   0.882   4.344 -0.5375 -0.2190 -0.1646
 7094TIP3    H142697   1.857   0.826   4.389  1.2574  1.3738 -0.5198
 7094TIP3    H242698   1.766   0.944   4.410 -0.0247  0.4052 -0.5122
 7095TIP3   OH242699   1.056   1.766  12.089  0.4697 -0.6805  0.0240
 7095TIP3    H142700   0.967   1.756  12.123  0.5186  0.3574  0.5166
 7095TIP3    H242701   1.108   1.701  12.137  0.9382  1.9705  3.5804
 7096TIP3   OH242702   5.877   6.628  12.829 -0.4585  0.3684 -0.8092
 7096TIP3    H142703   5.961   6.667  12.806 -0.3643  0.5491 -0.1813
 7096TIP3    H242704   5.901   6.547  12.875 -0.6270  0.4295 -0.6144
 7097TIP3   OH242705   4.608   4.611  13.264 -0.3831 -0.2001 -0.2707
 7097TIP3    H142706   4.634   4.698  13.294 -1.0026  0.3946 -1.3953
 7097TIP3    H242707   4.521   4.623  13.226  0.1441 -0.9891 -1.8199
 7098TIP3   OH242708   1.082   3.978   4.609 -0.0030 -0.5837 -0.4150
 7098TIP3    H142709   1.036   3.944   4.532 -0.4105  0.6463 -0.7410
 7098TIP3    H242710   1.022   3.960   4.682 -1.1077  1.0790 -0.8479
 7099TIP3   OH242711   2.745   3.466  12.408 -0.8005 -0.4106  0.0617
 7099TIP3    H142712   2.690   3.479  12.485  0.1394  1.8314  0.4421
 7099TIP3    H242713   2.831   3.500  12.434 -0.0477 -1.0152 -1.5020
 7100TIP3   OH242714   3.193   4.344  15.292  0.0325  0.4253 -0.1645
 7100TIP3    H142715   3.176   4.329  15.386 -0.8120  2.1394 -0.0054
 7100TIP3    H242716   3.279   4.306  15.277  0.5752  0.9023  1.5164
 7101TIP3   OH242717   6.654   0.680  17.000  0.4197  0.0183 -0.5353
 7101TIP3    H142718   6.568   0.646  17.023 -0.1846 -0.0171 -2.6344
 7101TIP3    H242719   6.710   0.602  16.998  0.0949 -0.2148 -0.8253
 7102TIP3   OH242720   0.861   0.070   3.320  0.1186 -0.0630 -0.5293
 7102TIP3    H142721   0.911   0.076   3.238  0.6603  0.7196 -0.1573
 7102TIP3    H242722   0.772   0.096   3.296  0.2516  0.0631 -0.8859
 7103TIP3   OH242723   6.142   5.423   0.114  0.3231  0.3011 -0.3020
 7103TIP3    H142724   6.071   5.399   0.173 -0.4125  0.5866 -1.0424
 7103TIP3    H242725   6.208   5.462   0.171 -0.3478  0.5303  0.3395
 7104TIP3   OH242726   6.649   6.397   5.742  0.3554 -0.2243  1.1572
 7104TIP3    H142727   6.683   6.487   5.739 -0.7717  0.2057  1.0012
 7104TIP3    H242728   6.603   6.386   5.659 -0.9332 -0.3633  1.8672
 7105TIP3   OH242729   3.944   0.982  17.156  0.0923  0.1025  0.2190
 7105TIP3    H142730   3.867   0.992  17.099  0.1084 -1.3762 -0.1016
 7105TIP3    H242731   3.926   1.041  17.230 -0.3658  1.3480 -0.8328
 7106TIP3   OH242732   5.522   6.699   1.028  0.7375  0.2912  0.0631
 7106TIP3    H142733   5.452   6.756   0.996 -1.5647 -2.2024  0.3677
 7106TIP3    H242734   5.537   6.637   0.957 -1.3000 -2.5466  1.9427
 7107TIP3   OH242735   2.671   4.383  14.448 -0.3746  0.0355 -0.8456
 7107TIP3    H142736   2.663   4.313  14.512 -1.7422 -0.9425 -2.0113
 7107TIP3    H242737   2.723   4.344  14.377  3.4266  1.9056  0.6123
 7108TIP3   OH242738   4.471   3.267  14.921  0.1147  0.3983  0.0700
 7108TIP3    H142739   4.419   3.277  14.841  0.3940  0.4870 -0.1005
 7108TIP3    H242740   4.562   3.273  14.892  0.6712 -5.5315 -0.5956
 7109TIP3   OH242741   0.388   4.868  16.282 -0.2842  0.1970  0.5207
 7109TIP3    H142742   0.475   4.906  16.271 -0.2227  0.1294  0.7614
 7109TIP3    H242743   0.396   4.779  16.248 -1.1052  1.1662 -2.5396
 7110TIP3   OH242744   3.075   2.088  14.463 -0.4183 -0.2872 -0.3191
 7110TIP3    H142745   3.023   2.157  14.422  0.6697  0.9736  0.3663
 7110TIP3    H242746   3.010   2.033  14.507 -1.2692  0.6165 -0.4002
 7111TIP3   OH242747   1.954   5.181  14.484 -0.0657  0.0045 -0.9370
 7111TIP3    H142748   1.859   5.168  14.485 -0.0479 -1.1231  2.7401
 7111TIP3    H242749   1.971   5.235  14.562  2.2369  1.3918 -2.2838
 7112TIP3   OH242750   0.766   3.475   6.217 -0.5467 -0.1677  0.3481
 7112TIP3    H142751   0.802   3.459   6.304 -0.9688 -2.7707  0.1128
 7112TIP3    H242752   0.673   3.491   6.232 -0.4466  0.3788  0.4264
 7113TIP3   OH242753   0.579   5.822   5.884  0.0632 -0.5039 -0.3220
 7113TIP3    H142754   0.614   5.750   5.832 -0.4641 -1.5860  0.7793
 7113TIP3    H242755   0.553   5.782   5.967  1.4051  1.2419  1.0395
 7114TIP3   OH242756   3.932   4.337   1.335  0.3162 -0.2608  0.5605
 7114TIP3    H142757   3.991   4.309   1.265  0.5808  0.0597  0.6560
 7114TIP3    H242758   3.846   4.343   1.294  0.5856  0.5637  0.1089
 7115TIP3   OH242759   6.652   6.067  15.626 -0.0136 -0.2647  0.1063
 7115TIP3    H142760   6.572   6.114  15.604  0.5729  0.4125 -0.6003
 7115TIP3    H242761   6.713   6.086  15.555  1.1819  0.1992  1.2028
 7116TIP3   OH242762   2.085   1.578   5.068 -0.0608  0.0485  0.3845
 7116TIP3    H142763   2.098   1.499   5.120 -0.3181 -0.0685  0.2747
 7116TIP3    H242764   2.091   1.548   4.977 -0.9632  0.0035  0.3304
 7117TIP3   OH242765   3.497   2.793  15.949  0.7824 -0.3206 -0.3936
 7117TIP3    H142766   3.573   2.849  15.964  1.3382 -0.7132 -1.6017
 7117TIP3    H242767   3.471   2.811  15.859 -0.0830 -0.7648 -0.2423
 7118TIP3   OH242768   6.706   2.171  14.663  0.1645  0.3669  0.3266
 7118TIP3    H142769   6.778   2.119  14.627  0.5017  1.1784 -0.1903
 7118TIP3    H242770   6.656   2.198  14.587  0.0320  0.8583  0.5858
 7119TIP3   OH242771   0.834   2.555  13.687  0.0566 -0.0461 -0.1778
 7119TIP3    H142772   0.877   2.476  13.656 -0.2700  0.2355 -1.3913
 7119TIP3    H242773   0.888   2.585  13.760  1.2211 -0.3727 -0.8947
 7120TIP3   OH242774   0.153   0.719  15.353  0.8075 -0.8020  0.3836
 7120TIP3    H142775   0.123   0.695  15.265 -0.3342 -1.1368  0.8505
 7120TIP3    H242776   0.207   0.797  15.339  1.6438 -1.5438 -0.7419
 7121TIP3   OH242777   5.522   4.389   4.136 -0.0087 -0.0218  0.5596
 7121TIP3    H142778   5.567   4.459   4.184  2.7064 -2.0946  1.2632
 7121TIP3    H242779   5.433   4.391   4.170  0.3898  2.0646  1.6881
 7122TIP3   OH242780   1.509   4.379  12.349 -0.1929 -0.3395  0.0844
 7122TIP3    H142781   1.446   4.387  12.277  0.2802 -1.0061 -0.4178
 7122TIP3    H242782   1.537   4.287  12.345  1.7554  0.2499 -0.4905
 7123TIP3   OH242783   5.709   5.142   2.687  0.3676 -0.1626 -0.3339
 7123TIP3    H142784   5.780   5.191   2.646 -1.0213 -0.4244 -3.3256
 7123TIP3    H242785   5.741   5.122   2.774  2.9082  1.9047 -0.6595
 7124TIP3   OH242786   3.986   1.423   2.567  0.2401 -0.3864  0.0022
 7124TIP3    H142787   3.910   1.406   2.623  0.8629 -0.0553  0.9570
 7124TIP3    H242788   3.978   1.358   2.496 -0.0917 -1.3807  0.9223
 7125TIP3   OH242789   5.925   0.170  12.986  0.1003  0.3378 -0.0669
 7125TIP3    H142790   5.864   0.172  12.913 -0.4881  1.6822  0.4099
 7125TIP3    H242791   6.003   0.216  12.954  0.1408  0.2444 -0.1014
 7126TIP3   OH242792   6.196   3.420  13.967  0.2236 -0.1759  0.2694
 7126TIP3    H142793   6.288   3.399  13.948  0.1418 -0.4928  0.2102
 7126TIP3    H242794   6.156   3.335  13.985  0.1190  0.0387  1.1000
 7127TIP3   OH242795   0.733   3.808  11.282 -0.0775 -0.2007 -0.7560
 7127TIP3    H142796   0.747   3.767  11.197 -0.0502 -0.4418 -0.6342
 7127TIP3    H242797   0.651   3.857  11.272  0.9653  1.5042 -1.5903
 7128TIP3   OH242798   6.518   6.132  14.662  0.7080  0.0408 -0.1354
 7128TIP3    H142799   6.579   6.203  14.643  0.5993 -0.0024 -0.6553
 7128TIP3    H242800   6.561   6.053  14.628 -0.0209  0.1344 -1.3339
 7129TIP3   OH242801   3.740   6.011   3.815  0.5955  0.3220  0.3690
 7129TIP3    H142802   3.682   6.087   3.820 -0.0053 -0.1955  2.0845
 7129TIP3    H242803   3.690   5.940   3.857  1.7746 -0.6081  0.2565
 7130TIP3   OH242804   4.924   5.364   1.582  0.1072 -0.1886  0.0579
 7130TIP3    H142805   5.004   5.390   1.536 -0.3872 -1.5060 -1.6394
 7130TIP3    H242806   4.900   5.441   1.634  1.3803  0.9179 -0.9236
 7131TIP3   OH242807   2.650   1.375   1.826  0.2393  0.2684 -0.0191
 7131TIP3    H142808   2.648   1.471   1.829 -0.3483  0.2722 -0.3010
 7131TIP3    H242809   2.670   1.349   1.916  1.6153  0.6657 -0.1818
 7132TIP3   OH242810   5.469   4.171   3.731 -0.0436  0.0960 -0.1770
 7132TIP3    H142811   5.380   4.165   3.764 -0.2180  0.7421 -0.5096
 7132TIP3    H242812   5.500   4.257   3.761  0.0786  0.3399 -0.9867
 7133TIP3   OH242813   4.862   2.310  13.320  0.4448  0.2263 -0.6077
 7133TIP3    H142814   4.802   2.364  13.372  0.3631 -0.4492  0.0070
 7133TIP3    H242815   4.838   2.329  13.229 -0.9488 -0.2997 -0.3661
 7134TIP3   OH242816   4.002   1.449  16.793  0.5800  0.3104  0.4833
 7134TIP3    H142817   4.007   1.388  16.866  0.7361  0.3941  0.5413
 7134TIP3    H242818   4.087   1.493  16.792  1.3770 -1.1481 -1.0204
 7135TIP3   OH242819   2.216   4.800   3.286 -0.2503 -0.2352  0.3101
 7135TIP3    H142820   2.286   4.737   3.270 -0.9935 -1.1791  0.6598
 7135TIP3    H242821   2.229   4.828   3.377  0.3984  0.5497 -0.0090
 7136TIP3   OH242822   0.032   2.173  13.898 -0.5190 -0.2927  0.4088
 7136TIP3    H142823   0.099   2.238  13.878 -0.0800  0.0817  2.7908
 7136TIP3    H242824   0.068   2.090  13.867 -0.0728  0.2553 -0.5664
 7137TIP3   OH242825   1.941   5.338   5.915 -0.3288 -0.3186 -0.2117
 7137TIP3    H142826   1.861   5.347   5.967  0.1954  0.0685  0.5331
 7137TIP3    H242827   1.970   5.428   5.900  1.1297 -0.4928  1.3385
 7138TIP3   OH242828   2.522   5.410  12.407  0.1888 -0.0008  0.7518
 7138TIP3    H142829   2.447   5.412  12.467 -0.4914 -1.4446 -0.0019
 7138TIP3    H242830   2.495   5.352  12.337  1.1655  1.2512 -0.7294
 7139TIP3   OH242831   1.793   5.445   1.690 -0.4052  0.1494 -0.4502
 7139TIP3    H142832   1.774   5.352   1.676 -1.8355  0.0140  1.8488
 7139TIP3    H242833   1.848   5.447   1.768 -1.1486  1.2530  0.0758
 7140TIP3   OH242834   6.746   1.466  11.836  0.0403 -0.1908  0.0660
 7140TIP3    H142835   6.730   1.460  11.742 -0.1582  1.8076 -0.0650
 7140TIP3    H242836   6.841   1.476  11.844 -0.1041  1.6682 -0.1021
 7141TIP3   OH242837   6.737   6.752   6.255 -0.2487 -0.0324  0.0828
 7141TIP3    H142838   6.829   6.776   6.248 -0.1487  0.8603  3.2398
 7141TIP3    H242839   6.736   6.677   6.314 -1.5758  0.3222  0.5430
 7142TIP3   OH242840   2.782   4.247   4.442 -0.1900 -0.2104 -0.2815
 7142TIP3    H142841   2.845   4.318   4.445  0.6518 -0.8948 -1.0648
 7142TIP3    H242842   2.745   4.243   4.530  1.7792 -0.6116  0.5712
 7143TIP3   OH242843   0.238   5.289  16.606  0.2628  0.2957  0.3374
 7143TIP3    H142844   0.156   5.327  16.573  0.7149  1.3046  0.3461
 7143TIP3    H242845   0.245   5.321  16.696  2.0737  2.6141 -0.5364
 7144TIP3   OH242846   1.088   0.212   4.943 -0.3183  0.0401  0.5165
 7144TIP3    H142847   1.152   0.270   4.984  1.2433  0.1024 -1.8360
 7144TIP3    H242848   1.061   0.258   4.864 -1.5165 -1.0413  0.2595
 7145TIP3   OH242849   2.798   3.082  16.315  0.2795 -0.1874  0.3646
 7145TIP3    H142850   2.747   3.070  16.235 -1.7720  0.5808  1.4890
 7145TIP3    H242851   2.863   3.012  16.313 -0.5319 -0.9482 -1.3381
 7146TIP3   OH242852   3.682   5.056  13.935 -0.2187 -0.3357 -0.7030
 7146TIP3    H142853   3.612   5.052  14.000 -0.1011  0.1214 -0.5476
 7146TIP3    H242854   3.754   5.005  13.973 -0.3210 -0.4665 -0.6856
 7147TIP3   OH242855   4.928   1.264   6.061 -0.7289 -0.1879  0.4035
 7147TIP3    H142856   4.841   1.246   6.026 -1.0178  1.1896  0.3519
 7147TIP3    H242857   4.919   1.254   6.155 -0.9339 -0.0955  0.3938
 7148TIP3   OH242858   1.804   6.673   2.438  0.2294  0.4004 -0.3968
 7148TIP3    H142859   1.864   6.647   2.508  0.4009  2.0845  0.1081
 7148TIP3    H242860   1.732   6.610   2.443  1.5631 -1.1953 -0.5284
 7149TIP3   OH242861   5.104   0.596  14.327 -0.1301 -0.1264 -0.0364
 7149TIP3    H142862   5.084   0.502  14.322 -0.6854 -0.0035 -0.2998
 7149TIP3    H242863   5.036   0.637  14.274  0.0927  0.4302  0.1014
 7150TIP3   OH242864   3.234   4.960  11.618  0.2165 -0.5762  0.2822
 7150TIP3    H142865   3.190   4.905  11.554 -1.2545 -0.0462  0.8136
 7150TIP3    H242866   3.169   5.025  11.644  0.2768 -1.5378  3.2874
 7151TIP3   OH242867   2.480   6.163  16.159  0.6681  0.3976 -0.4519
 7151TIP3    H142868   2.421   6.091  16.183 -1.7634  2.4623  0.1967
 7151TIP3    H242869   2.468   6.174  16.065 -0.4832  1.1743 -0.2319
 7152TIP3   OH242870   2.449   4.192  14.690 -0.2714  0.0027 -0.6352
 7152TIP3    H142871   2.465   4.114  14.743  3.0135  1.3708  0.6374
 7152TIP3    H242872   2.355   4.191  14.674 -0.8009 -2.6362  1.8270
 7153TIP3   OH242873   6.185   5.261   0.676 -0.0069 -0.5173 -1.1680
 7153TIP3    H142874   6.180   5.320   0.602 -2.7935  0.1110 -0.5943
 7153TIP3    H242875   6.234   5.310   0.743  1.6573 -0.7171 -2.1698
 7154TIP3   OH242876   5.529   0.948   1.732 -0.3978 -0.2305  0.6884
 7154TIP3    H142877   5.458   1.007   1.707  0.6747  0.0263 -2.1089
 7154TIP3    H242878   5.557   0.909   1.649  2.1144 -1.0053  1.8303
 7155TIP3   OH242879   0.520   1.202   0.939  0.2058 -0.3437 -1.0267
 7155TIP3    H142880   0.470   1.151   1.002  0.3982  0.8179  0.1041
 7155TIP3    H242881   0.610   1.168   0.946  0.0889 -0.6971 -1.2082
 7156TIP3   OH242882   5.683   0.262  11.060 -0.4008  0.6292  0.1216
 7156TIP3    H142883   5.681   0.352  11.028  1.8732  1.1072  1.1116
 7156TIP3    H242884   5.721   0.211  10.989 -1.2964  0.5104 -0.2812
 7157TIP3   OH242885   3.117   3.794  16.975  0.0474  1.1160  0.5151
 7157TIP3    H142886   3.078   3.707  16.979 -1.3862  1.6318 -1.0898
 7157TIP3    H242887   3.193   3.789  17.033  0.5536 -1.4757 -0.2597
 7158TIP3   OH242888   4.478   0.683   3.398  0.2272  0.2210 -0.2165
 7158TIP3    H142889   4.522   0.639   3.471  0.5890  2.1555  0.8206
 7158TIP3    H242890   4.545   0.693   3.331  0.4485  0.2006  0.0025
 7159TIP3   OH242891   6.399   2.929   4.375  0.3173 -0.1715 -0.0347
 7159TIP3    H142892   6.325   2.869   4.373  0.4355 -0.3167 -0.1391
 7159TIP3    H242893   6.451   2.901   4.450  1.9862 -2.1861 -1.8217
 7160TIP3   OH242894   5.541   3.150   3.247  0.3184 -0.9839  0.3610
 7160TIP3    H142895   5.624   3.117   3.280  1.2841 -1.1644 -2.0836
 7160TIP3    H242896   5.515   3.087   3.179 -1.8655 -0.9519  1.0697
 7161TIP3   OH242897   4.717   4.490   2.706 -0.1197 -0.3739 -0.2731
 7161TIP3    H142898   4.689   4.558   2.767 -1.5017 -0.2326 -1.0202
 7161TIP3    H242899   4.796   4.526   2.664 -0.2018  0.2879  0.1315
 7162TIP3   OH242900   4.994   0.239  12.940 -0.8911 -0.4446  0.2770
 7162TIP3    H142901   4.937   0.314  12.920 -2.8245 -1.8958  0.1389
 7162TIP3    H242902   5.074   0.280  12.973 -2.8456  1.7312  2.8895
 7163TIP3   OH242903   1.301   3.692   5.071  0.2935 -0.4794  0.1069
 7163TIP3    H142904   1.391   3.724   5.080  0.8323 -1.4665 -1.3830
 7163TIP3    H242905   1.256   3.762   5.023  0.5427 -0.4187 -0.0405
 7164TIP3   OH242906   0.149   2.576  12.669  0.0952  0.3059  0.0750
 7164TIP3    H142907   0.107   2.635  12.732  1.0714  3.1260 -1.7295
 7164TIP3    H242908   0.109   2.491  12.686  0.5855  0.7598  4.7204
 7165TIP3   OH242909   3.835   3.774   2.947  0.2443  1.0569  0.2714
 7165TIP3    H142910   3.835   3.679   2.936  0.7635  1.1427 -0.6119
 7165TIP3    H242911   3.768   3.791   3.012 -0.2330  0.1248  0.0392
 7166TIP3   OH242912   4.048   5.654  12.807  0.0651 -0.1241  0.1062
 7166TIP3    H142913   3.983   5.721  12.782 -0.3317 -0.8239 -0.8328
 7166TIP3    H242914   4.064   5.669  12.900 -3.3349 -1.4519  1.0709
 7167TIP3   OH242915   2.229   6.316  16.037  0.0690  0.2433 -0.0170
 7167TIP3    H142916   2.254   6.251  15.972 -1.9626  0.0060 -0.6181
 7167TIP3    H242917   2.180   6.267  16.103  1.0202  0.7013  1.0845
 7168TIP3   OH242918   0.172   4.038   6.772  0.2973 -0.0894  0.3074
 7168TIP3    H142919   0.240   4.090   6.728  1.0216  0.0982  1.6031
 7168TIP3    H242920   0.195   3.947   6.755  1.1677 -0.0360  1.1350
 7169TIP3   OH242921   5.248   4.580   4.556 -0.1538 -0.0363  0.3959
 7169TIP3    H142922   5.191   4.515   4.597  0.3352  0.0197  1.1755
 7169TIP3    H242923   5.226   4.663   4.599 -0.2171  0.1783 -0.0380
 7170TIP3   OH242924   1.574   6.352   3.189 -0.0424 -0.0433  0.1454
 7170TIP3    H142925   1.648   6.403   3.156  1.4439 -0.7733  2.1636
 7170TIP3    H242926   1.608   6.307   3.266 -2.3208 -1.2465  0.5362
 7171TIP3   OH242927   5.416   0.157  15.361  0.1319 -0.3156  0.1856
 7171TIP3    H142928   5.346   0.173  15.298 -1.6670 -1.5398  1.7524
 7171TIP3    H242929   5.406   0.065  15.384  1.4273 -0.1735  1.4434
 7172TIP3   OH242930   0.600   5.465   5.453  0.2436 -0.2392  0.5022
 7172TIP3    H142931   0.509   5.470   5.423 -0.2905 -0.4913  1.9858
 7172TIP3    H242932   0.636   5.552   5.434 -0.1604 -0.2817 -0.5106
 7173TIP3   OH242933   0.750   0.248  16.756  0.3255 -0.0838 -0.1919
 7173TIP3    H142934   0.717   0.305  16.827  2.9408  2.1373 -0.5654
 7173TIP3    H242935   0.755   0.306  16.680 -0.3653 -1.8658 -1.6521
 7174TIP3   OH242936   3.261   2.589   2.541  0.4493  0.4198 -0.3590
 7174TIP3    H142937   3.256   2.522   2.610  2.2718  0.6143  0.0224
 7174TIP3    H242938   3.208   2.553   2.470 -0.1981 -0.5163  0.5539
 7175TIP3   OH242939   3.901   2.262  17.148 -0.0500  0.6302 -0.8253
 7175TIP3    H142940   3.939   2.184  17.108 -1.8283 -0.0613 -1.2793
 7175TIP3    H242941   3.946   2.271  17.232  0.3826 -0.7273 -0.8955
 7176TIP3   OH242942   4.580   0.828   0.656 -0.1470 -0.3766 -0.4854
 7176TIP3    H142943   4.575   0.801   0.564 -0.3718  0.9045 -0.8677
 7176TIP3    H242944   4.491   0.859   0.676  0.6327  2.2731 -0.8053
 7177TIP3   OH242945   3.113   1.645   2.145 -0.4517 -0.6016  0.4581
 7177TIP3    H142946   3.141   1.735   2.164 -2.0888 -0.1967  1.1512
 7177TIP3    H242947   3.175   1.590   2.192  0.8993  0.1318 -0.4099
 7178TIP3   OH242948   5.335   4.704   5.121 -0.0030  0.1296 -0.1243
 7178TIP3    H142949   5.315   4.689   5.213  0.2758  0.6177  0.0167
 7178TIP3    H242950   5.316   4.620   5.079  1.0669 -0.4758  0.5726
 7179TIP3   OH242951   2.572   2.731   3.382  0.0571 -0.0089 -0.5338
 7179TIP3    H142952   2.603   2.709   3.470  0.5140 -1.1026 -0.9494
 7179TIP3    H242953   2.626   2.805   3.355 -0.6647  0.8878  0.4292
 7180TIP3   OH242954   4.307   0.220   5.816  0.0935  0.4723  0.3617
 7180TIP3    H142955   4.222   0.222   5.773 -0.0887  1.0170  0.7381
 7180TIP3    H242956   4.369   0.198   5.747 -0.1802  1.4552 -0.2091
 7181TIP3   OH242957   0.593   3.145   3.223 -0.6119  0.3354 -0.2471
 7181TIP3    H142958   0.613   3.131   3.130  0.1412 -0.4514  0.0212
 7181TIP3    H242959   0.661   3.096   3.270 -0.7447  1.0550  0.7264
 7182TIP3   OH242960   5.801   3.939  14.600  0.3030  0.1297  0.2754
 7182TIP3    H142961   5.727   3.967  14.545  0.7814  0.0937 -0.3952
 7182TIP3    H242962   5.824   3.852  14.567  0.9518  0.3384  0.1662
 7183TIP3   OH242963   0.762   2.274  14.900 -0.1229 -0.1822  0.4723
 7183TIP3    H142964   0.782   2.234  14.816 -1.3849  1.8684 -0.8889
 7183TIP3    H242965   0.675   2.240  14.923 -0.4037  0.3552  0.2197
 7184TIP3   OH242966   3.437   2.571  14.535  0.7684  0.0114  0.4102
 7184TIP3    H142967   3.420   2.477  14.544  0.7203  0.1121  1.4343
 7184TIP3    H242968   3.394   2.595  14.453  1.4694 -1.0185 -0.2872
 7185TIP3   OH242969   5.016   2.400   5.630 -0.1408 -0.0491 -0.1955
 7185TIP3    H142970   5.020   2.305   5.638  1.0355  0.0783  0.9533
 7185TIP3    H242971   5.005   2.431   5.720  2.1263  0.9944 -0.2151
 7186TIP3   OH242972   1.009   3.683   4.540 -0.4240  0.1959  0.0084
 7186TIP3    H142973   1.098   3.699   4.573  0.0432  0.0164 -1.1433
 7186TIP3    H242974   0.971   3.621   4.603  0.4015 -0.0370  0.2909
 7187TIP3   OH242975   1.423   1.737   3.720 -0.1224 -0.1901 -0.1458
 7187TIP3    H142976   1.495   1.760   3.660 -2.0845  0.9678 -2.2381
 7187TIP3    H242977   1.365   1.682   3.668 -2.7812  2.2575 -0.0349
 7188TIP3   OH242978   6.704   5.146  16.841 -0.1787  0.0385  0.4564
 7188TIP3    H142979   6.724   5.239  16.827  0.3184 -0.1446 -0.1187
 7188TIP3    H242980   6.712   5.106  16.754  0.2144 -0.6467  0.7917
 7189TIP3   OH242981   4.386   2.956  13.913 -0.5765  0.7510  1.2277
 7189TIP3    H142982   4.308   2.972  13.859 -0.5900 -0.2114  0.9472
 7189TIP3    H242983   4.450   3.021  13.882 -0.2686 -0.3512 -0.5933
 7190TIP3   OH242984   0.346   0.766   3.239 -0.3751  0.1056 -0.1129
 7190TIP3    H142985   0.430   0.720   3.237 -1.1977 -1.4883 -0.2317
 7190TIP3    H242986   0.291   0.712   3.296 -1.7183  0.3583 -1.1175
 7191TIP3   OH242987   3.984   6.209  13.618 -0.4041  0.1065 -0.1045
 7191TIP3    H142988   3.900   6.212  13.663 -0.1949  1.9158  0.2688
 7191TIP3    H242989   4.034   6.141  13.663 -1.0206  0.2971  0.8906
 7192TIP3   OH242990   2.653   1.273  13.352 -0.1283  0.3327 -0.2977
 7192TIP3    H142991   2.693   1.261  13.438  0.4907 -0.1111 -0.6462
 7192TIP3    H242992   2.682   1.360  13.325 -0.6770  0.6550  0.1225
 7193TIP3   OH242993   4.302   6.153  15.405 -0.8733  0.3297 -0.0998
 7193TIP3    H142994   4.284   6.181  15.495 -3.5870  0.5862 -0.6261
 7193TIP3    H242995   4.261   6.221  15.351  0.0578 -0.2164 -1.5434
 7194TIP3   OH242996   2.008   5.143   0.139 -0.3883 -0.1108 -0.1041
 7194TIP3    H142997   1.929   5.188   0.110 -0.7913 -0.7603 -0.0308
 7194TIP3    H242998   2.039   5.097   0.061 -0.2311 -0.0754 -0.0632
 7195TIP3   OH242999   3.319   1.320  15.678 -0.2028  0.2124 -0.0672
 7195TIP3    H143000   3.372   1.395  15.705  0.2602 -0.4830  1.0020
 7195TIP3    H243001   3.370   1.278  15.608  0.0276  0.2929  0.0527
 7196TIP3   OH243002   4.359   6.290   2.684  0.1134 -0.1574 -0.0512
 7196TIP3    H143003   4.288   6.271   2.622  0.2605  0.5350 -0.4451
 7196TIP3    H243004   4.401   6.206   2.699  1.1491 -0.1047 -2.2218
 7197TIP3   OH243005   6.209   0.504   1.416  0.1991 -0.9416  0.6244
 7197TIP3    H143006   6.304   0.495   1.421  0.3496  0.4354  0.8279
 7197TIP3    H243007   6.181   0.518   1.507  0.1806  1.4126  0.3367
 7198TIP3   OH243008   0.521   1.336  15.039 -0.0419 -0.6045 -0.3373
 7198TIP3    H143009   0.517   1.242  15.021  1.4699 -0.9817  0.9911
 7198TIP3    H243010   0.486   1.345  15.127  2.8587 -0.4768  0.9203
 7199TIP3   OH243011   2.934   1.542  15.676  0.5529  0.1061  0.0130
 7199TIP3    H143012   2.897   1.585  15.753  0.0167 -0.4527  0.0760
 7199TIP3    H243013   2.978   1.464  15.710 -1.2166 -1.1282 -0.3954
 7200TIP3   OH243014   6.071   1.288   1.565  0.1383 -0.0259  0.0649
 7200TIP3    H143015   5.978   1.302   1.548 -0.2342  1.0170  2.4589
 7200TIP3    H243016   6.106   1.376   1.582  0.9225 -0.6343  1.8659
 7201TIP3   OH243017   5.120   6.693   5.716 -0.4841 -0.2717  0.6700
 7201TIP3    H143018   5.125   6.788   5.713 -0.6463 -0.2786  0.0483
 7201TIP3    H243019   5.211   6.663   5.710 -0.5293 -0.1862 -1.0405
 7202TIP3   OH243020   0.674   3.927  16.278 -0.3304 -0.0635  0.3807
 7202TIP3    H143021   0.737   3.990  16.312  1.1793 -0.6573 -1.2082
 7202TIP3    H243022   0.705   3.906  16.190 -1.5067 -2.0481  0.3735
 7203TIP3   OH243023   2.760   2.680  13.324 -0.0463 -0.1549  0.0984
 7203TIP3    H143024   2.758   2.604  13.382 -1.7705  1.0601  1.7378
 7203TIP3    H243025   2.827   2.737  13.361 -0.7273  0.3527  0.5720
 7204TIP3   OH243026   5.524   0.006   3.526 -0.3558  0.1240  0.1374
 7204TIP3    H143027   5.466   0.035   3.456 -1.4560  0.7534  1.2555
 7204TIP3    H243028   5.570   0.085   3.554 -0.7686  0.1237  0.8549
 7205TIP3   OH243029   2.768   1.410   4.716 -0.6135  0.3980 -0.2200
 7205TIP3    H143030   2.698   1.467   4.683 -1.0366  0.2523  0.4028
 7205TIP3    H243031   2.727   1.360   4.787  0.4666  1.2742  1.0639
 7206TIP3   OH243032   0.454   3.009  13.095 -0.5638 -0.0397  0.6793
 7206TIP3    H143033   0.493   2.932  13.136  2.2389  0.0373 -1.5290
 7206TIP3    H243034   0.469   3.079  13.158  3.2779  0.0105 -0.0468
 7207TIP3   OH243035   2.340   1.721  11.873 -0.0291  0.2251  0.1514
 7207TIP3    H143036   2.423   1.678  11.892 -0.3082  0.1939  1.3883
 7207TIP3    H243037   2.289   1.655  11.826  0.7282  0.3362 -0.8489
 7208TIP3   OH243038   3.895   1.190  14.636 -0.3585 -0.0596 -0.3083
 7208TIP3    H143039   3.829   1.172  14.703  1.5805 -0.5806  1.5752
 7208TIP3    H243040   3.932   1.105  14.614  0.8471  0.3772 -0.0576
 7209TIP3   OH243041   2.838   5.292   2.858 -0.7872  0.7347 -0.1619
 7209TIP3    H143042   2.801   5.245   2.784 -1.6847 -0.3347  0.9390
 7209TIP3    H243043   2.929   5.262   2.863 -0.7371  0.7790 -0.7887
 7210TIP3   OH243044   1.712   3.201  16.523  0.1199  0.9105 -0.6390
 7210TIP3    H143045   1.734   3.230  16.434 -0.9501  0.4959 -1.0528
 7210TIP3    H243046   1.617   3.197  16.524  0.1631 -0.5417  0.0533
 7211TIP3   OH243047   2.351   1.925  13.483 -0.4166 -0.4615  0.4569
 7211TIP3    H143048   2.300   1.993  13.526  0.2728 -1.5462  3.2001
 7211TIP3    H243049   2.424   1.907  13.543 -0.1909 -3.1153 -0.4487
 7212TIP3   OH243050   0.166   6.151  16.058  0.3400  0.0982 -1.0212
 7212TIP3    H143051   0.181   6.130  15.966  0.5942  0.1053 -0.9835
 7212TIP3    H243052   0.071   6.154  16.067  0.3186  0.4398 -1.3577
 7213TIP3   OH243053   1.629   4.642  12.333 -0.4861  0.4428  0.5861
 7213TIP3    H143054   1.575   4.564  12.321  0.2958 -0.2279  1.2998
 7213TIP3    H243055   1.675   4.652  12.250  1.0033 -1.1250  1.1766
 7214TIP3   OH243056   1.772   1.123  17.002  0.2417 -0.1502  0.2310
 7214TIP3    H143057   1.695   1.178  16.993  0.8922  0.7270 -0.0822
 7214TIP3    H243058   1.773   1.069  16.923 -0.0796 -0.2094  0.2661
 7215TIP3   OH243059   3.105   2.542  17.076 -0.2622 -0.0043 -0.4119
 7215TIP3    H143060   3.163   2.532  17.001  1.7258 -1.4788  1.1823
 7215TIP3    H243061   3.029   2.486  17.056  0.3697 -0.6005 -1.1859
 7216TIP3   OH243062   4.467   1.834   3.159  0.2543  0.2096  0.2592
 7216TIP3    H143063   4.420   1.763   3.202  0.4384 -1.8508 -2.6586
 7216TIP3    H243064   4.399   1.883   3.112  0.2136  1.6883  1.7472
 7217TIP3   OH243065   4.414   4.198   4.591 -0.1000 -0.0874 -0.8628
 7217TIP3    H143066   4.410   4.146   4.511 -0.1491 -0.4779 -0.6084
 7217TIP3    H243067   4.360   4.275   4.572 -1.1129 -0.7643 -0.7828
 7218TIP3   OH243068   3.484   6.103   5.117  0.3290  0.0072 -0.2540
 7218TIP3    H143069   3.562   6.072   5.073  2.4766  0.7847  2.7164
 7218TIP3    H243070   3.435   6.023   5.139  1.7118 -0.7183  0.2781
 7219TIP3   OH243071   1.046   6.736  13.609  0.4075  0.2872 -0.2259
 7219TIP3    H143072   0.997   6.815  13.587  0.3813  0.2589 -0.2691
 7219TIP3    H243073   1.068   6.747  13.701 -0.4208 -0.0912  0.0280
 7220TIP3   OH243074   4.028   5.197  17.122  0.2891  0.4591  0.1326
 7220TIP3    H143075   4.099   5.191  17.059 -0.5895 -0.0251 -0.8461
 7220TIP3    H243076   4.003   5.289  17.122  0.3907  0.4873 -0.1249
 7221TIP3   OH243077   6.015   2.891  14.279  0.1705 -0.3288 -0.2481
 7221TIP3    H143078   6.049   2.891  14.190  0.3078  0.3272 -0.1975
 7221TIP3    H243079   5.940   2.831  14.276  0.4494 -0.6589 -0.6948
 7222TIP3   OH243080   3.844   4.575   0.563 -0.0749  0.2582  0.0335
 7222TIP3    H143081   3.774   4.511   0.576  0.3648 -0.3683 -0.5718
 7222TIP3    H243082   3.904   4.559   0.636 -0.6686  0.9611  0.6908
 7223TIP3   OH243083   2.087   5.959   2.876 -0.4578  0.2660 -0.5129
 7223TIP3    H143084   1.994   5.936   2.869  0.2811 -3.3224 -0.2069
 7223TIP3    H243085   2.122   5.943   2.788  0.5448 -2.4078  0.2757
 7224TIP3   OH243086   0.956   6.534  11.144 -0.6754  0.3778 -0.1831
 7224TIP3    H143087   0.890   6.478  11.104 -0.3561  0.4096 -0.7638
 7224TIP3    H243088   0.906   6.604  11.186 -1.1170 -0.6600  1.0945
 7225TIP3   OH243089   4.043   5.581  15.160 -0.4099 -0.0857  0.4355
 7225TIP3    H143090   3.977   5.522  15.196  1.1205 -2.2802 -0.1368
 7225TIP3    H243091   4.089   5.615  15.238  2.0796 -3.8514  0.9018
 7226TIP3   OH243092   4.208   3.346   5.040  0.0503  0.0135 -1.0142
 7226TIP3    H143093   4.182   3.255   5.032  0.4158 -0.2040  0.0854
 7226TIP3    H243094   4.297   3.350   5.006 -0.4386  0.2462 -2.3326
 7227TIP3   OH243095   4.188   3.989  17.187  0.2365  0.1635 -0.3986
 7227TIP3    H143096   4.133   4.057  17.149  0.5443  0.9619  0.5394
 7227TIP3    H243097   4.181   3.916  17.126 -2.7285 -0.1837  0.1819
 7228TIP3   OH243098   3.234   5.974  15.082 -0.5612 -0.0705  0.4878
 7228TIP3    H143099   3.282   6.056  15.067 -2.0844  0.7791  0.0004
 7228TIP3    H243100   3.188   5.958  14.999  1.4880 -2.7045 -0.2473
 7229TIP3   OH243101   1.570   2.561   1.794  0.2856  0.2443 -0.1268
 7229TIP3    H143102   1.573   2.496   1.864 -2.4461  1.6529  1.4410
 7229TIP3    H243103   1.661   2.590   1.785  1.0359 -1.4645  1.3551
 7230TIP3   OH243104   3.454   1.813  15.374 -0.1696  0.4759  0.5018
 7230TIP3    H143105   3.497   1.897  15.361  0.9826  0.0996  1.5799
 7230TIP3    H243106   3.450   1.803  15.469  0.1004 -0.8611  0.3979
 7231TIP3   OH243107   4.619   5.955  16.102  0.1838  0.8220 -0.3107
 7231TIP3    H143108   4.562   5.881  16.080  0.8531  0.2607 -0.2095
 7231TIP3    H243109   4.597   5.977  16.192  2.1464 -1.3487  0.8015
 7232TIP3   OH243110   2.549   1.411   6.298 -0.3035 -0.1151 -0.3664
 7232TIP3    H143111   2.512   1.329   6.266 -0.0471 -0.3996  0.0508
 7232TIP3    H243112   2.518   1.478   6.237 -1.9829 -0.2587  0.2902
 7233TIP3   OH243113   3.339   3.534  12.588 -0.0321 -0.0783 -0.2085
 7233TIP3    H143114   3.299   3.572  12.666 -0.1423  0.2539 -0.4245
 7233TIP3    H243115   3.288   3.568  12.515  0.0773 -0.3788 -0.4277
 7234TIP3   OH243116   1.720   0.804  13.695 -0.2897 -0.0168 -0.6328
 7234TIP3    H143117   1.734   0.898  13.685 -2.4341  0.4016 -0.1741
 7234TIP3    H243118   1.679   0.795  13.781  2.1245 -1.6913  0.4701
 7235TIP3   OH243119   4.762   0.529   1.919  0.0967 -0.3120 -0.3560
 7235TIP3    H143120   4.825   0.470   1.877  0.2299 -0.8145  0.5133
 7235TIP3    H243121   4.790   0.617   1.892  1.2702 -0.5184  0.1329
 7236TIP3   OH243122   4.240   1.788  17.270 -0.3262  0.3920 -0.1076
 7236TIP3    H143123   4.220   1.793  17.363  1.2767  0.1445  0.2912
 7236TIP3    H243124   4.239   1.694  17.250  0.0627  0.3935 -0.1504
 7237TIP3   OH243125   0.722   1.991   3.327 -0.1143 -0.0324 -0.2665
 7237TIP3    H143126   0.806   2.035   3.315  1.0717 -2.1189 -0.0423
 7237TIP3    H243127   0.717   1.975   3.422 -0.7526  0.0061 -0.2886
 7238TIP3   OH243128   5.784   5.067  12.172  0.2968 -0.5616  0.5553
 7238TIP3    H143129   5.726   4.992  12.155  0.4265 -0.4324 -0.5688
 7238TIP3    H243130   5.729   5.144  12.158  0.4721 -0.4489  0.4767
 7239TIP3   OH243131   5.230   2.774   4.985  0.3798 -0.4544 -0.0498
 7239TIP3    H143132   5.187   2.811   4.908  0.4622 -0.8021 -0.2650
 7239TIP3    H243133   5.315   2.743   4.952  0.4774 -0.4662  0.2125
 7240TIP3   OH243134   6.039   2.650   5.705 -0.3680  0.0647 -0.0473
 7240TIP3    H143135   6.080   2.727   5.743  1.7949 -0.3089 -1.4136
 7240TIP3    H243136   6.008   2.678   5.619 -1.0636 -0.1977  0.1087
 7241TIP3   OH243137   0.978   2.214   1.355  0.0801 -0.5081  0.3794
 7241TIP3    H143138   0.919   2.211   1.279  0.3297 -1.4106  0.2147
 7241TIP3    H243139   1.057   2.169   1.326  0.4961 -0.1173  0.9048
 7242TIP3   OH243140   5.842   0.970   0.183 -0.1899  0.4418  0.3561
 7242TIP3    H143141   5.912   0.949   0.122  0.1572  0.2501  0.8197
 7242TIP3    H243142   5.823   1.062   0.167  1.6155  1.0788  1.6829
 7243TIP3   OH243143   1.392   3.404   5.852 -0.2347  0.1902  0.5887
 7243TIP3    H143144   1.432   3.473   5.905 -1.3478  0.6607  0.8262
 7243TIP3    H243145   1.464   3.371   5.798  0.3349  1.4657  0.5379
 7244TIP3   OH243146   4.962   2.811   5.708 -0.6963  0.4410  0.0873
 7244TIP3    H143147   4.915   2.880   5.755  1.3259  0.8498  1.6672
 7244TIP3    H243148   5.054   2.830   5.724 -0.0125 -1.3712 -1.3306
 7245TIP3   OH243149   2.600   2.423   6.635  0.5764  0.6415  1.1400
 7245TIP3    H143150   2.536   2.382   6.693  0.7653  0.0282  0.9142
 7245TIP3    H243151   2.553   2.437   6.553  0.1525  1.9712  1.5650
 7246TIP3   OH243152   5.690   3.854   2.466  0.6398  0.0012 -0.0913
 7246TIP3    H143153   5.641   3.912   2.407  0.8729  0.0802 -0.2119
 7246TIP3    H243154   5.624   3.801   2.509  0.4793 -0.1818 -0.5596
 7247TIP3   OH243155   3.678   5.004  14.380 -0.5112  0.0617  0.4478
 7247TIP3    H143156   3.642   4.965  14.300  2.4340  0.2941 -1.1182
 7247TIP3    H243157   3.718   5.086  14.351  1.4622 -0.3072  1.9309
 7248TIP3   OH243158   5.887   5.937   6.334 -0.4422  0.2007 -0.0081
 7248TIP3    H143159   5.930   6.018   6.362  0.4991 -0.6266  1.0361
 7248TIP3    H243160   5.914   5.872   6.399  1.5047 -1.7419 -2.5258
 7249TIP3   OH243161   3.341   5.640   0.455 -0.1625  0.1550  0.0935
 7249TIP3    H143162   3.371   5.614   0.368 -0.2957 -2.3137  0.7342
 7249TIP3    H243163   3.261   5.590   0.469 -1.5705  2.3987  0.6931
 7250TIP3   OH243164   3.947   3.105  11.599 -0.1801  0.4150  0.4008
 7250TIP3    H143165   3.900   3.041  11.545  1.2282  1.2446 -1.9278
 7250TIP3    H243166   3.881   3.171  11.621 -1.3164 -1.0738  1.6915
 7251TIP3   OH243167   3.640   6.282  17.322  0.4156 -0.0664 -0.3592
 7251TIP3    H143168   3.593   6.199  17.333  0.9926 -0.2739  0.7170
 7251TIP3    H243169   3.666   6.283  17.230  1.4751 -1.6764 -0.1138
 7252TIP3   OH243170   6.307   6.696  13.131 -0.4391  0.4659  0.3268
 7252TIP3    H143171   6.220   6.731  13.145 -0.2119  1.2100 -0.0884
 7252TIP3    H243172   6.311   6.677  13.037 -0.4436 -0.3599  0.4896
 7253TIP3   OH243173   1.064   4.145   1.155  0.1694  0.0772  0.0840
 7253TIP3    H143174   1.090   4.053   1.148  1.1942  0.3161  0.5063
 7253TIP3    H243175   1.143   4.194   1.132 -0.6120  0.8621 -0.9902
 7254TIP3   OH243176   2.603   6.109  12.914 -0.7810  0.3711  0.3295
 7254TIP3    H143177   2.625   6.095  12.822  2.7414 -1.0687  1.2368
 7254TIP3    H243178   2.524   6.056  12.927 -0.0565 -1.2759 -1.4034
 7255TIP3   OH243179   2.623   3.113   5.619  0.5962  0.3514  0.1686
 7255TIP3    H143180   2.613   3.185   5.682  0.4793  0.2734  0.2404
 7255TIP3    H243181   2.697   3.062   5.653 -0.4217 -0.5720  1.1197
 7256TIP3   OH243182   3.934   3.619   1.286  0.4325  0.6513  0.0266
 7256TIP3    H143183   3.916   3.527   1.269 -0.8675  0.9549 -0.3318
 7256TIP3    H243184   3.877   3.666   1.226 -0.4785  1.7011  1.6353
 7257TIP3   OH243185   3.944   3.406  12.939 -0.2054  0.1918  0.0985
 7257TIP3    H143186   3.889   3.342  12.895  0.9093 -0.9319  0.2529
 7257TIP3    H243187   4.011   3.353  12.984 -0.3116  1.3632  1.7506
 7258TIP3   OH243188   6.737   3.508  13.386 -0.5953  0.7554 -0.2196
 7258TIP3    H143189   6.812   3.532  13.331 -0.9571  0.1355 -0.9994
 7258TIP3    H243190   6.662   3.511  13.326 -0.9505 -0.2356  0.1661
 7259TIP3   OH243191   6.468   4.179   2.891  0.4786 -0.0425  0.9091
 7259TIP3    H143192   6.490   4.144   2.805  0.0318  2.7898 -0.4672
 7259TIP3    H243193   6.374   4.193   2.889  0.4709  0.1510  1.8484
 7260TIP3   OH243194   0.259   0.258  13.134  0.2504  0.0735 -0.3161
 7260TIP3    H143195   0.208   0.337  13.148 -0.6443 -0.3404 -1.1397
 7260TIP3    H243196   0.342   0.275  13.179 -1.1550  0.1353  2.4860
 7261TIP3   OH243197   2.471   1.841  14.439 -0.2341 -0.1293 -0.2090
 7261TIP3    H143198   2.438   1.894  14.512 -0.6285 -1.0541  0.2931
 7261TIP3    H243199   2.555   1.806  14.471  0.3652  0.7262 -0.7961
 7262TIP3   OH243200   1.092   2.788   2.971 -0.2118  0.6737 -0.1961
 7262TIP3    H143201   1.169   2.811   2.919  0.6075 -4.0248 -1.5407
 7262TIP3    H243202   1.121   2.797   3.062  1.9705 -0.8363 -0.6710
 7263TIP3   OH243203   4.358   0.889   2.935 -0.1969 -0.2015  0.3100
 7263TIP3    H143204   4.424   0.956   2.914 -0.0258 -0.1729  0.9025
 7263TIP3    H243205   4.408   0.820   2.978 -0.6272  0.0788  1.2983
 7264TIP3   OH243206   1.431   5.402  11.303 -0.2734  0.1018  0.1377
 7264TIP3    H143207   1.468   5.467  11.242 -0.5654  0.9026  0.7880
 7264TIP3    H243208   1.403   5.330  11.247  1.0032  0.0826 -0.5051
 7265TIP3   OH243209   1.186   1.472  13.606  0.0044 -0.2681  0.1627
 7265TIP3    H143210   1.135   1.397  13.577  0.2073 -0.7624  1.0597
 7265TIP3    H243211   1.125   1.525  13.657 -0.4382  0.7641 -1.3832
 7266TIP3   OH243212   3.852   6.491  15.176 -0.5448 -0.1853 -0.3045
 7266TIP3    H143213   3.899   6.503  15.093  0.4666 -1.0283  0.1342
 7266TIP3    H243214   3.920   6.492  15.243 -1.3073  0.0079  0.4899
 7267TIP3   OH243215   3.492   1.324   3.224  0.1460 -0.2468 -0.3706
 7267TIP3    H143216   3.436   1.252   3.195  0.8967 -0.7465 -0.5802
 7267TIP3    H243217   3.545   1.287   3.294  0.1579  0.2577 -0.1066
 7268TIP3   OH243218   4.408   0.003  10.163  0.0382 -0.1887  0.2002
 7268TIP3    H143219   4.359   0.086  10.161 -1.1177 -0.7512  2.4210
 7268TIP3    H243220   4.493   0.026  10.199  0.2052  0.2192 -0.4253
 7269TIP3   OH243221   6.415   6.563  12.905  0.2124 -0.4581 -1.1119
 7269TIP3    H143222   6.445   6.482  12.863  1.1520 -0.2145 -0.9190
 7269TIP3    H243223   6.494   6.604  12.939 -0.2081  0.7174 -1.4945
 7270TIP3   OH243224   2.850   0.959   2.114 -0.1928 -0.2023 -0.1345
 7270TIP3    H143225   2.755   0.963   2.107 -0.3845 -0.8511  1.7010
 7270TIP3    H243226   2.868   0.880   2.164  1.1521  1.1846  1.7103
 7271TIP3   OH243227   0.650   3.094   2.917  0.5332 -0.0478 -0.0462
 7271TIP3    H143228   0.642   3.186   2.894  0.6059 -0.2100 -0.7295
 7271TIP3    H243229   0.734   3.067   2.880 -0.4759 -0.9425 -1.7795
 7272TIP3   OH243230   1.324   5.352   4.880 -0.0862  0.2510 -0.5491
 7272TIP3    H143231   1.302   5.442   4.905  1.5817  0.3817  0.6348
 7272TIP3    H243232   1.243   5.316   4.845 -1.1216  1.8249  0.1212
 7273TIP3   OH243233   3.384   4.478  12.174  0.1147  0.0622  0.0178
 7273TIP3    H143234   3.385   4.414  12.103  0.0953  2.9324 -2.7919
 7273TIP3    H243235   3.475   4.483  12.203  0.3680 -0.2581 -0.6973
 7274TIP3   OH243236   6.736   1.084   1.484  0.6434  0.0362 -0.4132
 7274TIP3    H143237   6.740   0.994   1.517 -0.6729 -0.2922 -1.0875
 7274TIP3    H243238   6.714   1.075   1.391 -0.2702  1.0675 -0.3161
 7275TIP3   OH243239   0.562   6.412   3.220  0.1200  0.5815 -0.0184
 7275TIP3    H143240   0.522   6.446   3.300  1.4280  0.9910  0.4823
 7275TIP3    H243241   0.618   6.483   3.189  0.2352  0.1339 -0.8553
 7276TIP3   OH243242   0.691   3.130   4.532 -0.3699  0.2625 -0.0535
 7276TIP3    H143243   0.602   3.107   4.560 -0.1050  0.5026  0.9995
 7276TIP3    H243244   0.680   3.212   4.485 -0.6813  0.3829  0.2227
 7277TIP3   OH243245   5.172   2.188   2.538 -0.3224  0.0652 -0.2116
 7277TIP3    H143246   5.189   2.233   2.455 -1.6448 -0.0696 -0.5864
 7277TIP3    H243247   5.085   2.219   2.564 -1.2549 -2.1341 -0.4227
 7278TIP3   OH243248   3.374   3.152  14.541 -0.0783  0.1548 -0.3182
 7278TIP3    H143249   3.288   3.121  14.571  0.2367 -1.2466 -0.7823
 7278TIP3    H243250   3.422   3.072  14.520  2.0375  0.8006  1.6957
 7279TIP3   OH243251   1.587   2.297   0.470 -0.1472  0.1805  0.5719
 7279TIP3    H143252   1.680   2.307   0.448 -0.1303 -0.4090  0.3765
 7279TIP3    H243253   1.551   2.385   0.457  0.3118  0.3403  0.3268
 7280TIP3   OH243254   6.200   1.242  11.765  0.2821  0.4301  0.4889
 7280TIP3    H143255   6.153   1.218  11.845  0.0443 -0.4889  0.0867
 7280TIP3    H243256   6.137   1.226  11.695  1.2528 -1.0422 -0.0899
 7281TIP3   OH243257   3.021   2.466  11.050  0.0618  0.2137  0.5706
 7281TIP3    H143258   3.104   2.507  11.027 -0.3425  0.4026 -0.6429
 7281TIP3    H243259   3.037   2.423  11.134  0.7796  2.0085  1.4031
 7282TIP3   OH243260   4.794   6.001  14.724  0.2074  0.5312  0.2508
 7282TIP3    H143261   4.728   5.935  14.750 -1.3997  1.6985 -0.7173
 7282TIP3    H243262   4.778   6.016  14.631  1.7365  1.0200  0.0382
 7283TIP3   OH243263   2.758   4.144  17.304  0.4838  0.0068  0.0248
 7283TIP3    H143264   2.836   4.112  17.260 -0.5380 -0.9844 -1.1579
 7283TIP3    H243265   2.754   4.237  17.281  2.1078  0.4650  1.3853
 7284TIP3   OH243266   6.080   4.179   4.757  0.2324 -0.0157  0.4280
 7284TIP3    H143267   6.037   4.196   4.840 -0.2978  0.8756 -0.0194
 7284TIP3    H243268   6.174   4.180   4.778  0.1510  1.4081  0.8097
 7285TIP3   OH243269   1.954   5.837   3.154  0.5287  1.0024 -0.2052
 7285TIP3    H143270   2.044   5.866   3.138  0.6000  1.3380  0.7913
 7285TIP3    H243271   1.950   5.821   3.248  0.3602 -1.7968 -0.6127
 7286TIP3   OH243272   5.055   2.218  17.030 -0.8673  0.1658  0.3326
 7286TIP3    H143273   5.066   2.190  16.939 -0.3246 -2.1787  1.0410
 7286TIP3    H243274   4.964   2.247  17.036 -1.6344 -1.9299 -0.4343
 7287TIP3   OH243275   4.374   6.760   5.984 -0.1467  0.3147  0.2840
 7287TIP3    H143276   4.294   6.786   6.030 -0.5498 -0.2885 -0.0568
 7287TIP3    H243277   4.343   6.705   5.912  0.6313 -0.6122  0.6271
 7288TIP3   OH243278   6.371   2.403   1.990 -0.3073  0.5552 -0.4466
 7288TIP3    H143279   6.363   2.492   2.026  0.3861  0.2376  0.5278
 7288TIP3    H243280   6.464   2.392   1.974  0.0863 -1.0244  2.2621
 7289TIP3   OH243281   1.667   4.859  17.272  0.5852  0.1712  0.1699
 7289TIP3    H143282   1.598   4.808  17.231  0.3043  0.6191  0.0809
 7289TIP3    H243283   1.634   4.880  17.359  1.5482 -1.5481  1.0009
 7290TIP3   OH243284   6.101   5.656  13.371  0.6539 -0.2446  0.2015
 7290TIP3    H143285   6.024   5.655  13.428  0.3827 -1.5870 -0.1661
 7290TIP3    H243286   6.124   5.749  13.365  0.6736 -0.0494  2.4522
 7291TIP3   OH243287   2.327   1.925   2.730 -0.5364 -0.0290 -0.3459
 7291TIP3    H143288   2.374   1.930   2.647  0.0863 -2.1157 -0.1673
 7291TIP3    H243289   2.395   1.931   2.796 -0.7749 -0.6257 -0.0396
 7292TIP3   OH243290   5.674   3.447  12.277 -0.2580  0.2723  0.2523
 7292TIP3    H143291   5.670   3.508  12.204  1.7653 -1.2246 -1.2008
 7292TIP3    H243292   5.745   3.480  12.332 -0.3017  0.1711  0.3694
 7293TIP3   OH243293   5.771   0.304   5.548  0.1291  0.6494 -0.4086
 7293TIP3    H143294   5.750   0.300   5.455 -1.0043 -0.0942 -0.1424
 7293TIP3    H243295   5.836   0.374   5.555  4.5464 -2.7136 -2.5272
 7294TIP3   OH243296   4.180   5.416   1.490  0.1366  0.2246  0.3179
 7294TIP3    H143297   4.263   5.463   1.496  0.6288 -0.7175  1.1304
 7294TIP3    H243298   4.185   5.368   1.408  0.4316  0.1024  0.4079
 7295TIP3   OH243299   0.205   3.947  16.499 -0.8665 -0.2911  0.1749
 7295TIP3    H143300   0.208   3.984  16.587 -0.7405  0.7162 -0.2471
 7295TIP3    H243301   0.215   3.853  16.512  0.7965 -0.0062  1.1111
 7296TIP3   OH243302   6.406   4.089  16.821 -0.5387  0.3378  0.9825
 7296TIP3    H143303   6.469   4.158  16.841  2.0247  0.0938 -4.4341
 7296TIP3    H243304   6.346   4.129  16.758 -2.5569 -0.9365  2.0171
 7297TIP3   OH243305   0.041   4.044  15.722 -0.6597  0.4855 -0.3496
 7297TIP3    H143306  -0.018   3.988  15.771 -0.0482 -0.3151 -0.5099
 7297TIP3    H243307   0.125   3.998  15.722 -0.4374  0.8435 -1.4513
 7298TIP3   OH243308   5.848   6.727   1.670  0.4716 -0.2723 -0.4626
 7298TIP3    H143309   5.822   6.637   1.650  0.6906 -0.1432 -1.3568
 7298TIP3    H243310   5.861   6.768   1.585  1.0142  0.4269 -0.0557
 7299TIP3   OH243311   1.538   3.813  10.634 -0.1211 -0.6084  0.0920
 7299TIP3    H143312   1.476   3.763  10.581  0.5166 -0.8267 -0.4599
 7299TIP3    H243313   1.487   3.886  10.669 -0.5972 -0.5722 -0.6666
 7300TIP3   OH243314   5.913   6.428  13.015 -0.6551  0.6550  0.2086
 7300TIP3    H143315   5.849   6.484  13.059  0.6243  1.6990  0.8184
 7300TIP3    H243316   5.998   6.467  13.037  0.1248  0.3009 -1.9256
 7301TIP3   OH243317   3.093   4.240  14.581  0.0284 -0.1621 -0.7353
 7301TIP3    H143318   3.075   4.219  14.490  0.4657 -0.7339 -0.6939
 7301TIP3    H243319   3.007   4.251  14.621 -0.1543  0.6461 -1.3399
 7302TIP3   OH243320   3.056   2.844   4.865  0.6975 -0.2351 -0.1052
 7302TIP3    H143321   3.045   2.925   4.815  1.6252 -0.4900 -0.7619
 7302TIP3    H243322   2.969   2.824   4.898  0.3577  0.7589 -0.3580
 7303TIP3   OH243323   4.598   5.675   5.637 -0.0680  0.1559  0.2307
 7303TIP3    H143324   4.627   5.679   5.728 -0.9764  0.2122  0.5270
 7303TIP3    H243325   4.663   5.620   5.593  0.3604  0.1075  0.9106
 7304TIP3   OH243326   6.356   1.845   1.717 -0.1949 -0.5438 -0.1832
 7304TIP3    H143327   6.296   1.878   1.783  1.9216  0.1591  1.5022
 7304TIP3    H243328   6.327   1.885   1.635 -2.0561 -0.3528  0.5332
 7305TIP3   OH243329   1.198   2.153   3.935  0.5780  0.1946 -0.1354
 7305TIP3    H143330   1.116   2.116   3.903 -0.1902  1.8647 -0.1969
 7305TIP3    H243331   1.266   2.106   3.887 -0.3956 -0.0558 -1.3237
 7306TIP3   OH243332   0.187   3.699   3.630  0.0419  0.3349  0.1151
 7306TIP3    H143333   0.209   3.713   3.538 -1.3566  0.4902 -0.2171
 7306TIP3    H243334   0.092   3.710   3.634  0.1147  0.6210  1.6375
 7307TIP3   OH243335   6.063   2.517   0.716  1.0575  0.4733 -0.0936
 7307TIP3    H143336   6.147   2.480   0.690 -0.3911 -2.9423 -0.3888
 7307TIP3    H243337   6.033   2.564   0.638  0.6883 -2.2911 -1.7644
 7308TIP3   OH243338   1.702   4.486  12.569  0.6391 -0.3334  0.8255
 7308TIP3    H143339   1.666   4.397  12.566  2.0380 -0.9412  1.2395
 7308TIP3    H243340   1.648   4.535  12.508 -0.0322 -1.5158  0.4224
 7309TIP3   OH243341   1.980   2.427   2.920  0.1055  0.4957 -0.1431
 7309TIP3    H143342   1.926   2.474   2.856 -1.0154 -0.1555  0.2940
 7309TIP3    H243343   2.054   2.395   2.870 -1.3802 -1.1041 -1.4634
 7310TIP3   OH243344   1.679   0.192  17.379  0.1101 -0.6680 -0.0041
 7310TIP3    H143345   1.599   0.139  17.381 -0.7527  0.3240 -3.0048
 7310TIP3    H243346   1.683   0.233  17.465 -1.1412 -2.7864  1.1374
 7311TIP3   OH243347   3.248   0.561   4.503 -0.0015  0.0163 -0.8774
 7311TIP3    H143348   3.285   0.525   4.584  2.3745  2.5643 -0.6574
 7311TIP3    H243349   3.325   0.590   4.453 -1.5464  2.1324 -2.1989
 7312TIP3   OH243350   4.347   0.988   4.635 -0.0007 -0.5031  0.3653
 7312TIP3    H143351   4.277   1.001   4.571 -1.4924 -1.6750  1.6743
 7312TIP3    H243352   4.416   1.049   4.608 -0.4309 -1.1553 -2.4828
 7313TIP3   OH243353   5.110   0.529  16.951  0.3565  0.2989 -0.2976
 7313TIP3    H143354   5.147   0.543  17.038  0.8590 -1.4584 -0.1749
 7313TIP3    H243355   5.097   0.617  16.915  1.1197  1.0328  1.1403
 7314TIP3   OH243356   3.927   1.279   3.413 -0.0273 -0.1095  0.4047
 7314TIP3    H143357   3.845   1.309   3.454 -0.0955  0.0114  0.1798
 7314TIP3    H243358   3.911   1.285   3.319  0.7048  1.2405  0.3368
 7315TIP3   OH243359   0.382   5.888  14.728 -0.0351 -0.7128  0.1737
 7315TIP3    H143360   0.359   5.856  14.640 -1.3883 -0.0084  0.2382
 7315TIP3    H243361   0.299   5.919  14.764  0.8883  1.1067  0.8361
 7316TIP3   OH243362   5.426   4.367  14.844  0.2291  0.0782 -0.4205
 7316TIP3    H143363   5.340   4.375  14.886  0.2004  1.9054 -0.7671
 7316TIP3    H243364   5.409   4.384  14.751  1.0207  0.8892 -0.4257
 7317TIP3   OH243365   4.177   6.527   1.664 -0.1000 -0.0301 -0.3516
 7317TIP3    H143366   4.260   6.480   1.655 -0.1092  0.0986 -1.1195
 7317TIP3    H243367   4.188   6.606   1.612 -0.9123 -0.2853 -0.9276
 7318TIP3   OH243368   2.536   4.733  16.204  0.7197  0.6126  0.0799
 7318TIP3    H143369   2.498   4.663  16.258 -3.0258  1.7940 -0.7388
 7318TIP3    H243370   2.614   4.693  16.165 -0.6105 -2.7559  0.5245
 7319TIP3   OH243371   5.079   6.600  11.815 -0.2588 -0.3358  0.4262
 7319TIP3    H143372   5.003   6.642  11.774  0.2910  0.4647  0.2026
 7319TIP3    H243373   5.044   6.518  11.852 -1.3723  0.3545  0.9537
 7320TIP3   OH243374   0.279   2.322   4.344  0.4486  0.5101  0.1114
 7320TIP3    H143375   0.282   2.332   4.248  0.8644  1.8921  0.2472
 7320TIP3    H243376   0.314   2.404   4.377 -0.7166  0.4878  1.4806
 7321TIP3   OH243377   0.643   5.942   1.060  0.1041 -0.0950  0.0964
 7321TIP3    H143378   0.648   5.852   1.026 -1.7107 -0.2449  0.1253
 7321TIP3    H243379   0.710   5.946   1.128  1.7943 -0.7004 -1.4736
 7322TIP3   OH243380   1.154   6.203   1.491  0.3538  0.5289  0.5557
 7322TIP3    H143381   1.231   6.179   1.543  0.9650 -0.1906 -0.6449
 7322TIP3    H243382   1.148   6.298   1.499  1.8066  0.6783  0.0897
 7323TIP3   OH243383   2.215   0.458  16.274  0.1695 -0.0023 -0.3529
 7323TIP3    H143384   2.213   0.528  16.339 -0.6194 -0.1967 -0.1581
 7323TIP3    H243385   2.161   0.388  16.313 -1.1190  0.2406 -1.6224
 7324TIP3   OH243386   0.798   4.198   5.838 -0.6457 -0.1271 -0.3920
 7324TIP3    H143387   0.866   4.262   5.857 -0.1638 -1.0465  1.1879
 7324TIP3    H243388   0.721   4.251   5.817  0.6502  0.9280 -2.9183
 7325TIP3   OH243389   0.851   2.890  10.848  0.4479  0.2319  0.1303
 7325TIP3    H143390   0.765   2.854  10.867  1.0415 -1.6361 -0.4905
 7325TIP3    H243391   0.908   2.813  10.838  1.4097  1.1799 -3.2026
 7326TIP3   OH243392   4.420   3.506   2.395 -0.0885  0.1673 -0.8307
 7326TIP3    H143393   4.326   3.502   2.413  0.1679  0.2099  0.6421
 7326TIP3    H243394   4.461   3.462   2.470  1.0319 -0.7224 -1.9280
 7327TIP3   OH243395   3.879   0.312  11.724  0.8372 -0.4179 -0.0976
 7327TIP3    H143396   3.784   0.318  11.728  0.8375 -0.9819  1.3089
 7327TIP3    H243397   3.899   0.222  11.749  1.6870 -0.8564 -2.1136
 7328TIP3   OH243398   5.078   0.600   0.683 -0.3528 -0.0249  0.2852
 7328TIP3    H143399   5.144   0.663   0.657 -1.3910  0.4366 -1.3419
 7328TIP3    H243400   5.127   0.529   0.725  0.8956  1.4950  1.5254
 7329TIP3   OH243401   0.923   0.185  12.729  1.1517 -0.2257  0.0914
 7329TIP3    H143402   0.946   0.184  12.822  0.4286 -0.0187  0.2788
 7329TIP3    H243403   0.984   0.248  12.691  0.2464  1.1192  0.7660
 7330TIP3   OH243404   4.219   0.809  15.357 -0.3906 -0.2916  0.6264
 7330TIP3    H143405   4.197   0.737  15.415 -2.0559  0.3115  0.8073
 7330TIP3    H243406   4.302   0.843  15.390  0.1187 -1.7369  0.8883
 7331TIP3   OH243407   6.499   0.609   1.352 -0.6920  0.2554  0.1183
 7331TIP3    H143408   6.594   0.606   1.345 -0.7323 -0.7070 -0.1387
 7331TIP3    H243409   6.469   0.527   1.313 -1.6491  0.7095 -0.1392
 7332TIP3   OH243410   2.718   0.689   6.458 -0.4110  0.3835 -0.0038
 7332TIP3    H143411   2.797   0.671   6.509 -0.5181  1.1709  0.4565
 7332TIP3    H243412   2.671   0.755   6.509 -0.5590  1.1394 -1.0712
 7333TIP3   OH243413   1.127   3.100   0.628 -0.1686  0.2853 -0.4714
 7333TIP3    H143414   1.084   3.099   0.713 -2.1238 -2.8805 -1.3554
 7333TIP3    H243415   1.101   3.184   0.589 -1.5710  0.5539  0.9357
 7334TIP3   OH243416   0.982   5.262  16.854  0.1115  0.0612 -0.3680
 7334TIP3    H143417   1.055   5.323  16.849  1.1206 -0.9859  0.7534
 7334TIP3    H243418   0.915   5.300  16.799  1.4764  1.0947 -1.3836
 7335TIP3   OH243419   0.067   0.501   5.005 -0.1653 -0.0536  0.7070
 7335TIP3    H143420   0.015   0.539   5.076  0.2995 -0.1639  1.1110
 7335TIP3    H243421   0.046   0.554   4.928 -1.8753 -0.8915  0.5472
 7336TIP3   OH243422   5.659   0.866   3.590 -0.1162 -0.3980 -0.2009
 7336TIP3    H143423   5.591   0.801   3.606 -0.0874  0.1140  2.3921
 7336TIP3    H243424   5.676   0.904   3.676 -0.3330  3.2502 -1.6047
 7337TIP3   OH243425   0.636   1.215  14.017 -0.3884  0.1807 -0.1982
 7337TIP3    H143426   0.586   1.296  14.007 -0.6582 -0.2113 -2.7661
 7337TIP3    H243427   0.727   1.240  13.999 -0.4233 -0.0151 -0.6579
 7338TIP3   OH243428   1.012   1.484  14.722  0.2921  0.8569 -0.2571
 7338TIP3    H143429   1.052   1.431  14.652 -0.9480  1.3956 -1.4049
 7338TIP3    H243430   1.059   1.457  14.801  0.3822 -1.2569 -0.9516
 7339TIP3   OH243431   5.086   4.419   4.706 -0.1693  0.0053  0.3762
 7339TIP3    H143432   5.014   4.454   4.758 -0.4256  0.5568 -0.3192
 7339TIP3    H243433   5.097   4.329   4.736 -2.1634 -0.5987 -0.5376
 7340TIP3   OH243434   3.245   3.238   2.498 -0.1740  0.4729  0.1443
 7340TIP3    H143435   3.159   3.278   2.488 -1.1277 -1.6403 -0.7841
 7340TIP3    H243436   3.285   3.243   2.412  2.1218  4.2784  1.1780
 7341TIP3   OH243437   6.428   4.666   5.819  0.3521 -0.1676  0.6219
 7341TIP3    H143438   6.523   4.675   5.816  0.2149  1.4936 -0.0062
 7341TIP3    H243439   6.395   4.751   5.789 -1.3343 -0.9211  0.2195
 7342TIP3   OH243440   4.050   5.338   5.677  0.0190 -0.5010  0.8638
 7342TIP3    H143441   4.052   5.382   5.762  0.6657 -0.5616  0.8873
 7342TIP3    H243442   4.142   5.323   5.656 -0.0176  1.0262 -0.6278
 7343TIP3   OH243443   4.473   6.727  14.806  0.1120 -0.3367 -0.1136
 7343TIP3    H143444   4.500   6.819  14.806  0.8270 -0.5282 -0.7951
 7343TIP3    H243445   4.429   6.716  14.721 -1.7390 -0.1563  0.7741
 7344TIP3   OH243446   6.466   6.298  14.008 -0.2596  0.5640 -0.3473
 7344TIP3    H143447   6.524   6.372  13.994  1.6516 -1.1451 -2.1012
 7344TIP3    H243448   6.489   6.266  14.096  1.0080  0.3313 -0.7439
 7345TIP3   OH243449   3.537   6.665   4.533 -0.5289  0.6939 -0.4594
 7345TIP3    H143450   3.606   6.604   4.506  1.5605  1.2826  2.9632
 7345TIP3    H243451   3.486   6.616   4.598  0.1884  2.0042  1.1470
 7346TIP3   OH243452   6.707   6.309  14.515  0.7917  0.5702 -0.0687
 7346TIP3    H143453   6.767   6.376  14.547  1.0816  0.2909 -0.0297
 7346TIP3    H243454   6.763   6.237  14.485  0.4838  0.3312 -0.0846
 7347TIP3   OH243455   0.103   3.997   3.874  0.2396  0.2974  0.2764
 7347TIP3    H143456   0.142   3.931   3.931  0.0732 -1.6925 -1.7813
 7347TIP3    H243457   0.168   4.012   3.806  0.1941  2.1926  0.5940
 7348TIP3   OH243458   1.440   0.600   3.234  0.1773 -0.0968 -0.4582
 7348TIP3    H143459   1.413   0.508   3.224 -2.0772  0.4716 -0.0922
 7348TIP3    H243460   1.490   0.601   3.316 -0.1274 -0.9090 -0.2474
 7349TIP3   OH243461   4.958   4.970   0.153 -0.2439 -0.1029 -0.8422
 7349TIP3    H143462   4.969   4.999   0.244 -1.0453  1.4081 -1.1981
 7349TIP3    H243463   4.925   4.881   0.160 -0.6155  0.1138  0.3564
 7350TIP3   OH243464   5.285   2.915  13.556  0.4657 -0.5482  0.0048
 7350TIP3    H143465   5.262   2.884  13.468  0.3398 -1.0383  0.2058
 7350TIP3    H243466   5.380   2.903  13.561  1.0708  2.7566 -1.3249
 7351TIP3   OH243467   2.683   5.508  15.415  0.0744 -0.2400  0.0589
 7351TIP3    H143468   2.642   5.449  15.478  1.0791  0.0326  1.0007
 7351TIP3    H243469   2.714   5.582  15.468  0.4422  0.2679 -0.8388
 7352TIP3   OH243470   3.687   0.725   3.590  0.3959  0.0656 -0.3925
 7352TIP3    H143471   3.650   0.639   3.608  0.0881  0.3728  0.4484
 7352TIP3    H243472   3.627   0.765   3.527 -0.5724  0.4553  0.7587
 7353TIP3   OH243473   4.644   4.924  14.277  0.4462  0.6330  0.1411
 7353TIP3    H143474   4.711   4.872  14.321 -0.7792  0.4592  1.9102
 7353TIP3    H243475   4.630   4.880  14.193  0.9953 -0.5835  0.6729
 7354TIP3   OH243476   4.507   2.899   1.826  0.0006 -0.4997 -0.2267
 7354TIP3    H143477   4.554   2.897   1.743  1.8245  2.3574  0.5903
 7354TIP3    H243478   4.440   2.966   1.815  1.4552  1.2705  1.0695
 7355TIP3   OH243479   0.905   5.213  16.355 -0.1081 -0.1296 -0.1040
 7355TIP3    H143480   0.905   5.124  16.391  1.2659  0.2681  0.9892
 7355TIP3    H243481   0.988   5.250  16.385 -0.6509  1.5186 -0.5610
 7356TIP3   OH243482   2.658   4.865  16.688 -0.0756 -0.0085 -0.2783
 7356TIP3    H143483   2.610   4.853  16.606 -1.6141 -0.4265  0.6374
 7356TIP3    H243484   2.709   4.945  16.675 -0.0466 -0.2410 -1.7476
 7357TIP3   OH243485   2.747   3.606  12.161  0.0392  0.1594  0.5554
 7357TIP3    H143486   2.745   3.701  12.156 -0.8293  0.0929 -0.7620
 7357TIP3    H243487   2.729   3.586  12.253 -1.6789  1.2245  0.4812
 7358TIP3   OH243488   5.787   5.662   0.541  0.0110  0.6473  0.2690
 7358TIP3    H143489   5.875   5.689   0.567 -0.6823  0.3825  3.3231
 7358TIP3    H243490   5.730   5.702   0.607 -2.0543 -0.1171 -0.9645
 7359TIP3   OH243491   0.105   6.048   3.657  0.3889  0.0974  0.2217
 7359TIP3    H143492   0.183   6.102   3.657  1.0358 -0.8060  1.2237
 7359TIP3    H243493   0.088   6.029   3.749 -0.0584 -1.0575 -0.0750
 7360TIP3   OH243494   3.727   1.597   5.761 -0.4469 -0.2666  0.0212
 7360TIP3    H143495   3.767   1.517   5.797 -0.4379 -0.1636  0.2410
 7360TIP3    H243496   3.738   1.662   5.830 -0.6331 -0.1281 -0.0803
 7361TIP3   OH243497   0.453   1.973   0.969 -0.1727  0.2491 -0.1661
 7361TIP3    H143498   0.544   1.997   0.952 -0.1235  0.8311  0.8821
 7361TIP3    H243499   0.410   2.055   0.991 -0.4310 -0.3112  1.5670
 7362TIP3   OH243500   1.435   3.541  14.687 -0.5771 -0.2102  0.5066
 7362TIP3    H143501   1.368   3.513  14.749  0.8627 -3.5878  0.7046
 7362TIP3    H243502   1.518   3.511  14.724  0.5913 -0.1727 -1.8709
 7363TIP3   OH243503   5.135   3.921   0.666 -0.1282 -0.3300 -0.6448
 7363TIP3    H143504   5.127   3.992   0.730  0.7205 -0.5670 -0.2550
 7363TIP3    H243505   5.225   3.927   0.634 -0.2461 -0.8253 -1.0929
 7364TIP3   OH243506   6.218   1.366  11.489  0.1310 -0.0163 -0.1224
 7364TIP3    H143507   6.168   1.286  11.473 -1.1633  0.0322  2.9561
 7364TIP3    H243508   6.162   1.436  11.457 -0.4426 -0.1438  0.5857
 7365TIP3   OH243509   0.337   2.424   5.350 -0.0687  0.3010  0.4469
 7365TIP3    H143510   0.370   2.403   5.263 -2.5213 -2.4758  0.0291
 7365TIP3    H243511   0.306   2.514   5.343  0.5979  0.4245 -1.2702
 7366TIP3   OH243512   4.482   2.728   3.187 -0.1903 -0.0292 -0.2451
 7366TIP3    H143513   4.510   2.676   3.111  1.0318  1.6528 -1.0314
 7366TIP3    H243514   4.426   2.797   3.150 -0.0284  0.4862  0.4354
 7367TIP3   OH243515   0.893   0.148   5.148  0.1139 -0.1768 -0.0276
 7367TIP3    H143516   0.887   0.231   5.196  0.3934 -0.0052 -0.2874
 7367TIP3    H243517   0.973   0.156   5.096  0.6222 -0.9753  0.6257
 7368TIP3   OH243518   1.287   5.707  12.277  0.3635 -0.0709 -0.2086
 7368TIP3    H143519   1.248   5.743  12.356 -1.0880 -0.9511 -0.4829
 7368TIP3    H243520   1.378   5.735  12.280 -0.0604  1.3097  0.9267
 7369TIP3   OH243521   1.006   4.790   3.136  0.0543 -0.3303  0.6283
 7369TIP3    H143522   1.057   4.710   3.149  0.4984  0.2148  2.5174
 7369TIP3    H243523   0.921   4.771   3.177 -0.3989 -0.3585 -0.2987
 7370TIP3   OH243524   1.010   6.217  14.640  0.3361 -0.2073  0.1757
 7370TIP3    H143525   0.962   6.244  14.561  0.1440  1.5441  0.8404
 7370TIP3    H243526   1.102   6.226  14.616  0.3567 -1.9369 -0.5563
 7371TIP3   OH243527   4.125   4.125   3.796 -0.3426 -0.7190 -0.1770
 7371TIP3    H143528   4.055   4.153   3.736 -1.6676 -1.7769  0.8133
 7371TIP3    H243529   4.157   4.207   3.834 -1.7804 -0.2622  0.1294
 7372TIP3   OH243530   3.770   5.938   5.138  0.0169  0.2963  0.4087
 7372TIP3    H143531   3.861   5.909   5.145  0.3936  1.3337 -0.0078
 7372TIP3    H243532   3.747   5.969   5.226 -0.3168 -0.9757  0.8009
 7373TIP3   OH243533   1.556   4.024   3.423 -0.2033 -0.2864  0.3974
 7373TIP3    H143534   1.593   4.079   3.355  0.1311 -1.4139 -0.3468
 7373TIP3    H243535   1.571   4.072   3.504  0.3822  0.5479 -0.2015
 7374TIP3   OH243536   6.624   5.069   3.051  0.1284 -0.2029  0.1394
 7374TIP3    H143537   6.543   5.116   3.029 -0.1208  1.1342  3.3475
 7374TIP3    H243538   6.676   5.073   2.971 -1.9320  1.1253 -1.2562
 7375TIP3   OH243539   6.094   5.498  12.620 -0.6516 -0.3084 -0.6692
 7375TIP3    H143540   6.117   5.411  12.653 -0.8409  0.2195  0.9382
 7375TIP3    H243541   6.004   5.511  12.649 -0.8565  0.1704 -1.4818
 7376TIP3   OH243542   6.646   5.264   5.383 -0.2039  0.0720  0.3351
 7376TIP3    H143543   6.655   5.217   5.466  1.3484 -0.2715  0.0013
 7376TIP3    H243544   6.648   5.196   5.316 -0.0722  0.4449 -0.0474
 7377TIP3   OH243545   0.699   5.560  12.974 -0.1512  0.1755  0.2374
 7377TIP3    H143546   0.726   5.589  13.061 -1.5647  1.4085  0.3109
 7377TIP3    H243547   0.641   5.485  12.990 -1.3590  1.1201  0.4837
 7378TIP3   OH243548   2.447   4.618   3.248 -0.2773 -0.6074 -0.4842
 7378TIP3    H143549   2.499   4.680   3.299 -0.9718  1.0678 -1.7256
 7378TIP3    H243550   2.497   4.536   3.250 -0.4583 -0.7649  3.1538
 7379TIP3   OH243551   4.412   2.491   2.680 -0.6185  0.2992  0.7857
 7379TIP3    H143552   4.327   2.500   2.635 -0.2588 -2.9683 -0.8188
 7379TIP3    H243553   4.395   2.432   2.753  0.4130 -1.3205 -0.2235
 7380TIP3   OH243554   5.486   1.734  14.774  0.5516  0.2780  0.4763
 7380TIP3    H143555   5.478   1.743  14.679 -1.3945  0.8010  0.6375
 7380TIP3    H243556   5.437   1.808  14.809 -0.1453 -0.8017  1.8846
 7381TIP3   OH243557   5.519   5.577   0.121  0.7946  0.0145 -0.3487
 7381TIP3    H143558   5.427   5.581   0.146  1.0912  1.2390  0.6722
 7381TIP3    H243559   5.522   5.516   0.048 -0.9625  0.6322 -0.9903
 7382TIP3   OH243560   2.881   5.261  12.419 -0.4689  0.2103 -0.2537
 7382TIP3    H143561   2.906   5.199  12.350 -1.3216 -0.4024 -0.0261
 7382TIP3    H243562   2.796   5.229  12.450  0.1119  0.1823  1.4177
 7383TIP3   OH243563   1.474   3.668   4.779  0.5855  0.7334 -0.0727
 7383TIP3    H143564   1.544   3.728   4.806 -0.0422  1.0313  0.9705
 7383TIP3    H243565   1.397   3.724   4.773  0.4030  0.3887 -1.1289
 7384TIP3   OH243566   3.439   1.561   4.506  0.5874 -0.3784 -0.0661
 7384TIP3    H143567   3.459   1.611   4.426 -0.5807  0.2826  0.0371
 7384TIP3    H243568   3.361   1.510   4.484  0.1406 -0.0441  0.7088
 7385TIP3   OH243569   0.995   0.495  12.820 -0.5548  0.0377  0.2308
 7385TIP3    H143570   1.076   0.543  12.833 -0.9120  0.4693  0.9122
 7385TIP3    H243571   0.993   0.431  12.891 -0.8560  0.0994  0.2812
 7386TIP3   OH243572   3.556   6.464   1.673  0.2783 -0.4381  0.1611
 7386TIP3    H143573   3.555   6.369   1.656 -0.4488 -0.1589 -1.5972
 7386TIP3    H243574   3.565   6.471   1.768  0.3012 -2.2712  0.3388
 7387TIP3   OH243575   3.823   2.136   2.876  0.7171  0.2602 -0.3912
 7387TIP3    H143576   3.820   2.150   2.971  0.8297 -1.3209 -0.1243
 7387TIP3    H243577   3.737   2.165   2.845  0.0710 -0.6516  0.4505
 7388TIP3   OH243578   4.793   1.522   5.116 -0.4406 -0.1489 -0.0382
 7388TIP3    H143579   4.792   1.561   5.203  0.9191 -1.5777  0.6812
 7388TIP3    H243580   4.879   1.480   5.110  0.0054  0.9714 -2.5798
 7389TIP3   OH243581   2.366   1.890   2.359 -0.1094 -0.1809 -0.4408
 7389TIP3    H143582   2.422   1.827   2.314 -0.4574 -0.8721  0.0809
 7389TIP3    H243583   2.419   1.921   2.433 -0.3730 -0.7489 -0.0134
 7390TIP3   OH243584   5.947   5.055   3.936  0.2351 -0.0203  0.4404
 7390TIP3    H143585   5.854   5.033   3.946  0.5042 -0.8018  1.3681
 7390TIP3    H243586   5.979   5.064   4.025  1.7389 -2.7680  0.2557
 7391TIP3   OH243587   3.656   6.660   6.423  0.5984 -0.7687 -0.3686
 7391TIP3    H143588   3.616   6.572   6.426 -2.3926  0.4427 -0.7055
 7391TIP3    H243589   3.644   6.695   6.511 -2.2424  0.7616 -1.2095
 7392TIP3   OH243590   3.273   2.524  10.334 -0.2570  0.4439 -0.2633
 7392TIP3    H143591   3.296   2.599  10.280  0.1103  0.4619 -0.0828
 7392TIP3    H243592   3.254   2.562  10.420 -0.0100  0.3213 -0.1556
 7393TIP3   OH243593   2.418   6.545  17.067  0.4129 -0.3049  0.1471
 7393TIP3    H143594   2.494   6.572  17.118  0.4303 -0.5412  0.2440
 7393TIP3    H243595   2.386   6.466  17.110 -1.2251  0.9930  1.4679
 7394TIP3   OH243596   3.401   4.606  11.897 -0.9610 -0.8878  0.2988
 7394TIP3    H143597   3.347   4.543  11.945  0.0193  0.4313  3.4117
 7394TIP3    H243598   3.349   4.686  11.895 -1.1747 -1.0399 -1.3699
 7395TIP3   OH243599   5.092   5.253  10.885  0.4579 -0.0470 -0.0073
 7395TIP3    H143600   5.148   5.325  10.855 -0.5535  1.2228  1.0181
 7395TIP3    H243601   5.149   5.201  10.942  0.5913  1.3456  1.1891
 7396TIP3   OH243602   4.683   2.362  11.107  0.3441  0.3653  0.2660
 7396TIP3    H143603   4.666   2.451  11.137 -0.6787  0.4462 -0.5021
 7396TIP3    H243604   4.669   2.365  11.013 -0.5813 -0.7923  0.3413
 7397TIP3   OH243605   4.707   3.657  15.409 -0.4317  0.5626 -0.0705
 7397TIP3    H143606   4.672   3.733  15.363 -1.3511 -0.2426 -0.7548
 7397TIP3    H243607   4.796   3.682  15.432 -0.1710  1.2852 -1.6758
 7398TIP3   OH243608   2.603   4.404   6.975 -0.2323  0.4588 -0.1623
 7398TIP3    H143609   2.649   4.361   6.903  0.0425  0.7234 -0.1495
 7398TIP3    H243610   2.513   4.414   6.945 -0.1262  0.5313 -0.4530
 7399TIP3   OH243611   2.661   5.509   2.664  0.2535 -0.1104 -0.4971
 7399TIP3    H143612   2.722   5.436   2.653  0.3245 -0.1897  0.3703
 7399TIP3    H243613   2.707   5.570   2.722  0.6592  1.1725 -2.1033
 7400TIP3   OH243614   6.012   1.520   1.366 -0.0022 -0.4187 -0.1918
 7400TIP3    H143615   5.957   1.554   1.437 -0.2151 -1.0662 -0.0446
 7400TIP3    H243616   6.100   1.521   1.402 -0.1351 -0.9399  0.1607
 7401TIP3   OH243617   6.169   3.944  12.098 -0.0667 -0.1076  0.3065
 7401TIP3    H143618   6.161   3.893  12.018  2.8790 -0.0774 -0.1315
 7401TIP3    H243619   6.194   3.880  12.165 -0.1915  0.2007  0.6528
 7402TIP3   OH243620   2.347   1.078   5.249  0.1855  0.2368  0.2322
 7402TIP3    H143621   2.359   1.045   5.338 -1.3713 -0.5468  0.1898
 7402TIP3    H243622   2.323   1.001   5.198 -1.6756  1.0893 -0.2687
 7403TIP3   OH243623   4.659   4.140  15.209 -0.2115 -0.3176  0.6302
 7403TIP3    H143624   4.691   4.205  15.146 -0.2345  0.1948  1.1388
 7403TIP3    H243625   4.634   4.192  15.286  1.3536 -1.0745  1.6938
 7404TIP3   OH243626   5.482   1.575  12.868  0.0586 -0.9389  0.4865
 7404TIP3    H143627   5.565   1.564  12.915 -0.3434 -0.4957  1.3215
 7404TIP3    H243628   5.425   1.507  12.905 -0.2235 -0.6664  0.5508
 7405TIP3   OH243629   5.900   3.847  15.284  0.1340  0.5139  0.4318
 7405TIP3    H143630   5.823   3.851  15.341  0.5962  0.1436  1.0993
 7405TIP3    H243631   5.866   3.815  15.200 -0.3857 -0.0344  0.8382
 7406TIP3   OH243632   2.331   2.333  12.984  0.6941 -0.6235  0.5677
 7406TIP3    H143633   2.276   2.388  12.928 -1.3117 -2.0877  0.9985
 7406TIP3    H243634   2.403   2.391  13.009  0.0902  0.9811 -1.1053
 7407TIP3   OH243635   3.934   0.701  14.857  0.2689  0.0604  0.1007
 7407TIP3    H143636   4.014   0.692  14.807  0.9291  1.6778  0.7899
 7407TIP3    H243637   3.948   0.778  14.912 -0.2949 -1.7007  2.9785
 7408TIP3   OH243638   1.661   2.941  12.104 -0.3937  0.1934  0.1386
 7408TIP3    H143639   1.633   2.854  12.132 -1.3318 -0.0348 -1.4073
 7408TIP3    H243640   1.746   2.926  12.062 -0.5933  0.0052 -0.2006
 7409TIP3   OH243641   3.105   1.167   2.462  0.1833 -0.2279  0.1198
 7409TIP3    H143642   3.081   1.096   2.523 -0.0353 -0.4305 -0.1978
 7409TIP3    H243643   3.200   1.174   2.471  0.6764 -2.6101 -1.9888
 7410TIP3   OH243644   0.166   3.413   2.902 -0.3727  0.0471  0.0675
 7410TIP3    H143645   0.071   3.420   2.911 -0.2945  0.7727  0.4419
 7410TIP3    H243646   0.186   3.467   2.826 -0.4627 -1.7986 -1.3396
 7411TIP3   OH243647   5.286   2.078   4.427  0.3805 -0.3982  0.4344
 7411TIP3    H143648   5.328   1.994   4.444 -0.5780 -0.8784  0.4835
 7411TIP3    H243649   5.193   2.058   4.425  0.1919  0.5225 -0.4133
 7412TIP3   OH243650   4.124   0.044   0.812 -0.7721 -0.0780  0.1326
 7412TIP3    H143651   4.214   0.052   0.843 -1.4204  1.1222  1.8860
 7412TIP3    H243652   4.071   0.072   0.887 -2.5661  0.2865 -1.2249
 7413TIP3   OH243653   5.528   2.898   4.781  0.6522  0.2710  0.1168
 7413TIP3    H143654   5.564   2.955   4.849  0.6084 -0.1818  0.5318
 7413TIP3    H243655   5.573   2.924   4.701  1.4685  0.1213  0.5123
 7414TIP3   OH243656   0.006   5.105   2.225 -0.0136  0.6952 -0.1514
 7414TIP3    H143657  -0.055   5.059   2.167  0.5954 -0.7387  0.2930
 7414TIP3    H243658  -0.048   5.145   2.292 -0.4881 -0.7392  0.3618
 7415TIP3   OH243659   6.160   2.455   4.881 -0.1979 -0.3566 -0.2677
 7415TIP3    H143660   6.084   2.477   4.935 -0.8304 -1.7675 -0.5457
 7415TIP3    H243661   6.123   2.412   4.803  0.9173 -2.5568  0.3245
 7416TIP3   OH243662   3.771   2.994   4.154 -0.6859  0.1905  0.4019
 7416TIP3    H143663   3.820   2.946   4.220  1.2000  1.9894  0.4278
 7416TIP3    H243664   3.740   3.073   4.198 -0.5650  0.7706 -0.5153
 7417TIP3   OH243665   0.618   5.527  16.804 -0.3078  0.6682  0.6264
 7417TIP3    H143666   0.621   5.620  16.828 -2.1901  1.1446 -0.7249
 7417TIP3    H243667   0.525   5.508  16.796  0.0947 -0.8014 -1.0419
 7418TIP3   OH243668   4.269   0.081  13.309 -0.3814  0.3477 -0.0581
 7418TIP3    H143669   4.219  -0.000  13.307 -0.2892  0.2820  0.1668
 7418TIP3    H243670   4.297   0.095  13.218 -1.9644  1.1238 -0.4455
 7419TIP3   OH243671   5.006   2.712   1.099  0.0579  0.1506 -0.3326
 7419TIP3    H143672   4.927   2.734   1.049 -0.0253 -1.0277 -0.7495
 7419TIP3    H243673   4.995   2.620   1.122  1.8078 -0.3506 -1.3408
 7420TIP3   OH243674   5.505   3.395  17.361 -0.4761  0.3649 -0.8641
 7420TIP3    H143675   5.420   3.419  17.395  0.3316 -1.4767  2.9810
 7420TIP3    H243676   5.492   3.308  17.322 -0.0853 -0.9613  1.7581
 7421TIP3   OH243677   2.994   6.045  16.015 -0.3063  0.3178  0.2167
 7421TIP3    H143678   2.954   5.984  16.077 -0.4652  1.2277  1.0281
 7421TIP3    H243679   3.069   6.081  16.062 -0.3014  0.8639 -0.2073
 7422TIP3   OH243680   1.626   0.541  15.674  0.0449 -0.3480 -0.4222
 7422TIP3    H143681   1.699   0.512  15.728  1.7950 -1.2951 -3.1154
 7422TIP3    H243682   1.666   0.592  15.603 -2.1195  0.7859 -0.9250
 7423TIP3   OH243683   4.766   6.040   2.224 -0.2011 -0.4102 -0.0653
 7423TIP3    H143684   4.799   5.952   2.244 -1.6518 -0.6095  1.7634
 7423TIP3    H243685   4.822   6.098   2.275  0.1422 -0.3501 -0.5069
 7424TIP3   OH243686   5.184   5.767   2.333 -0.5938 -0.1426 -0.6072
 7424TIP3    H143687   5.112   5.767   2.270 -1.6192 -3.0155  0.4142
 7424TIP3    H243688   5.141   5.764   2.419  0.7616  0.1510  0.1119
 7425TIP3   OH243689   3.556   2.013  14.506  0.2079  0.0445 -0.1473
 7425TIP3    H143690   3.548   1.956  14.431 -0.0629  1.8502 -1.5714
 7425TIP3    H243691   3.469   2.011  14.547  0.8913 -2.4473  1.3436
 7426TIP3   OH243692   6.385   3.984  16.456  0.8464 -0.4711  0.0093
 7426TIP3    H143693   6.346   4.051  16.400  2.7149  0.7854  0.1190
 7426TIP3    H243694   6.478   4.007  16.459  1.1356 -1.6969  1.9718
 7427TIP3   OH243695   6.116   1.092  13.399 -0.4612  0.2563 -0.0335
 7427TIP3    H143696   6.164   1.011  13.417 -0.6525 -0.3240 -1.9518
 7427TIP3    H243697   6.185   1.158  13.388 -0.2667  0.1629  0.5585
 7428TIP3   OH243698   0.176   3.494   5.544 -0.5044  0.6921  0.4151
 7428TIP3    H143699   0.207   3.578   5.510 -0.6469  0.6300  0.1316
 7428TIP3    H243700   0.237   3.430   5.508 -1.0889  0.5416 -0.3369
 7429TIP3   OH243701   4.572   3.085   2.039  0.0756  0.3456  0.4524
 7429TIP3    H143702   4.653   3.035   2.045 -0.2702 -0.1341  1.3420
 7429TIP3    H243703   4.505   3.020   2.021  0.0146  0.8694 -1.3180
 7430TIP3   OH243704   0.913   3.918  16.656 -0.4952 -0.2870 -0.0329
 7430TIP3    H143705   0.876   3.843  16.610 -0.5983  0.4343 -1.1402
 7430TIP3    H243706   0.869   3.994  16.619  0.8126  0.4610 -0.1378
 7431TIP3   OH243707   6.488   3.605  14.550  0.0289  0.3908  0.0057
 7431TIP3    H143708   6.495   3.515  14.518  0.3217  0.6308 -0.6099
 7431TIP3    H243709   6.412   3.641  14.504  1.5606  1.3292 -1.8982
 7432TIP3   OH243710   4.807   3.255   0.099 -0.6764  0.1403 -0.2071
 7432TIP3    H143711   4.783   3.232   0.189  2.4526 -1.4254  0.3488
 7432TIP3    H243712   4.808   3.351   0.099  0.1179  0.1782  1.7029
 7433TIP3   OH243713   2.720   1.172  13.600  0.0809  0.5585  0.7054
 7433TIP3    H143714   2.716   1.178  13.696  2.2295  1.0076  0.8208
 7433TIP3    H243715   2.747   1.082  13.583 -0.9735  0.2742  0.4620
 7434TIP3   OH243716   2.063   2.764  16.278  0.3073 -0.0350  0.2991
 7434TIP3    H143717   1.999   2.718  16.225  0.1751 -0.6011  0.9317
 7434TIP3    H243718   2.145   2.759  16.229 -0.0852  0.5206 -0.4192
 7435TIP3   OH243719   4.482   4.220   4.885  0.3985 -0.5503 -0.1290
 7435TIP3    H143720   4.415   4.282   4.915  1.1239  0.5762 -0.7555
 7435TIP3    H243721   4.462   4.207   4.792  0.2629 -1.2585 -0.0058
 7436TIP3   OH243722   1.593   0.364   3.079  0.1161 -0.3966  0.4105
 7436TIP3    H143723   1.623   0.331   2.995  2.4262 -0.0963  1.0557
 7436TIP3    H243724   1.631   0.304   3.143 -1.7532 -0.7348  1.2832
 7437TIP3   OH243725   4.211   1.456  11.100  0.6208  0.3057 -0.0977
 7437TIP3    H143726   4.161   1.535  11.121 -1.1597 -0.5500 -0.8699
 7437TIP3    H243727   4.164   1.416  11.027  0.3069 -2.4526  1.4531
 7438TIP3   OH243728   5.209   4.599   0.816 -0.0832  0.6407 -0.4450
 7438TIP3    H143729   5.125   4.620   0.774 -0.2416 -0.9388 -0.9871
 7438TIP3    H243730   5.266   4.572   0.744  0.4194  0.2688  0.0766
 7439TIP3   OH243731   6.177   0.866   1.575  0.1340  0.4021 -0.0715
 7439TIP3    H143732   6.156   0.882   1.482  2.4450  0.1955 -0.6797
 7439TIP3    H243733   6.181   0.771   1.582 -0.0983  0.4168  0.2722
 7440TIP3   OH243734   1.267   2.792  17.385  0.5024 -0.7498  0.2681
 7440TIP3    H143735   1.235   2.751  17.304  0.0526 -0.5708  0.3517
 7440TIP3    H243736   1.276   2.885  17.363  1.2700 -0.8397  0.1566
 7441TIP3   OH243737   6.503   5.542  16.049  0.1463  0.4060  0.1237
 7441TIP3    H143738   6.443   5.617  16.055  0.1129  0.4987 -1.1473
 7441TIP3    H243739   6.541   5.549  15.962 -2.0744 -2.6880 -1.2890
 7442TIP3   OH243740   0.934   1.119   2.979  0.7505  0.8284 -0.0802
 7442TIP3    H143741   0.988   1.119   2.900  1.0725 -0.4522  0.1260
 7442TIP3    H243742   0.889   1.034   2.978 -1.1369  1.7702 -0.1463
 7443TIP3   OH243743   5.041   0.226   4.880 -0.2823 -0.4002 -0.1993
 7443TIP3    H143744   5.086   0.246   4.798  0.4728  0.9444  0.5066
 7443TIP3    H243745   5.087   0.150   4.916  2.3663  1.6336  1.0935
 7444TIP3   OH243746   1.361   4.127  13.333  0.2091 -0.3714  0.4760
 7444TIP3    H143747   1.352   4.043  13.289 -0.8281 -0.6658  1.2076
 7444TIP3    H243748   1.408   4.107  13.413 -1.1061 -0.5090  1.2536
 7445TIP3   OH243749   3.869   1.104   3.639  0.1132 -0.8070 -0.6095
 7445TIP3    H143750   3.888   1.179   3.694  1.5406 -1.1834 -0.5514
 7445TIP3    H243751   3.847   1.141   3.553  0.5415 -0.3162 -0.5082
 7446TIP3   OH243752   4.603   5.973  11.834  0.1365  0.5313  0.5444
 7446TIP3    H143753   4.531   5.987  11.773 -0.6405  0.9071  1.5089
 7446TIP3    H243754   4.637   5.886  11.813  0.1143  0.7912 -0.6260
 7447TIP3   OH243755   6.584   0.317  13.181  0.5152  0.3312 -0.2654
 7447TIP3    H143756   6.583   0.240  13.239 -1.6915 -0.0162 -0.6701
 7447TIP3    H243757   6.491   0.338  13.169  1.0111  1.6792 -2.0029
 7448TIP3   OH243758   1.317   0.878   4.473 -0.2537 -0.0139 -0.4906
 7448TIP3    H143759   1.311   0.932   4.552 -2.0336 -0.1645 -0.4819
 7448TIP3    H243760   1.384   0.920   4.421 -0.0624  0.9394  0.4778
 7449TIP3   OH243761   3.952   5.932  13.100  0.3883 -0.4677  0.0858
 7449TIP3    H143762   3.995   6.004  13.145  1.5015 -0.8360 -0.3503
 7449TIP3    H243763   3.860   5.938  13.126  0.1206  2.0879 -1.2164
 7450TIP3   OH243764   2.483   0.925   1.813 -0.4713  0.2060  0.1594
 7450TIP3    H143765   2.449   0.986   1.747  0.0269  0.9692  0.5869
 7450TIP3    H243766   2.421   0.853   1.813 -1.3136  0.9082 -0.0858
 7451TIP3   OH243767   0.671   1.296   5.824 -0.0104 -0.0404 -0.0289
 7451TIP3    H143768   0.589   1.255   5.851  0.1241 -0.7497 -0.6647
 7451TIP3    H243769   0.714   1.319   5.906 -1.0489  0.7787  0.3076
 7452TIP3   OH243770   5.921   2.064   2.320  0.0887 -0.2235 -0.2849
 7452TIP3    H143771   5.827   2.081   2.324  0.2403  0.5389  0.2903
 7452TIP3    H243772   5.928   1.972   2.293 -0.8552 -0.7994  1.3033
 7453TIP3   OH243773   2.424   5.302   0.075 -0.1453  0.0458 -0.0412
 7453TIP3    H143774   2.359   5.338   0.014  0.7256  0.0824 -0.9746
 7453TIP3    H243775   2.396   5.212   0.088 -0.0425 -0.1283 -0.9428
 7454TIP3   OH243776   1.111   4.677  13.627  0.4533 -0.6250 -0.5653
 7454TIP3    H143777   1.200   4.712  13.634  0.0038  0.4136  0.0743
 7454TIP3    H243778   1.123   4.582  13.633  1.4668 -0.4718  0.1853
 7455TIP3   OH243779   4.267   6.009  13.176  0.1264  0.6704  0.2435
 7455TIP3    H143780   4.231   6.007  13.264  1.9952 -2.4391  1.0513
 7455TIP3    H243781   4.341   5.949  13.178  0.5727  0.8899 -3.3275
 7456TIP3   OH243782   0.736   3.833   1.039  0.2613  0.0959 -0.3702
 7456TIP3    H143783   0.803   3.782   1.084  0.8243  0.8844 -0.2998
 7456TIP3    H243784   0.739   3.919   1.081 -0.2420  0.3798 -0.9045
 7457TIP3   OH243785   3.725   1.454   2.316  0.6720 -0.2087  0.5276
 7457TIP3    H143786   3.800   1.482   2.264  0.1223  2.7384  1.1435
 7457TIP3    H243787   3.670   1.405   2.254  1.0566  1.3620 -1.1500
 7458TIP3   OH243788   3.084   2.021   0.638  0.9352 -0.2725 -0.1087
 7458TIP3    H143789   3.011   1.967   0.668  0.3980 -0.3113 -1.4165
 7458TIP3    H243790   3.101   2.081   0.710 -0.1401 -0.5303  0.3716
 7459TIP3   OH243791   5.933   2.855   5.963 -0.0831  0.1822 -0.3398
 7459TIP3    H143792   6.019   2.844   6.003  0.1856  0.7775 -0.7453
 7459TIP3    H243793   5.875   2.874   6.036  0.4628  1.5901 -0.2554
 7460TIP3   OH243794   0.708   1.996  12.433 -0.7312 -0.1417 -0.0309
 7460TIP3    H143795   0.704   1.995  12.529 -0.1710 -1.7218  0.0077
 7460TIP3    H243796   0.788   2.045  12.413 -0.0243 -1.1068  0.3728
 7461TIP3   OH243797   0.378   6.734   3.185  0.7356 -0.2667  0.1738
 7461TIP3    H143798   0.433   6.758   3.111  0.3155 -0.4071 -0.1934
 7461TIP3    H243799   0.349   6.818   3.222  0.6559 -0.1964 -0.0470
 7462TIP3   OH243800   2.531   6.003   1.871  0.0631  0.3879  0.2707
 7462TIP3    H143801   2.597   5.935   1.883 -0.7346 -0.7211 -1.2182
 7462TIP3    H243802   2.511   6.033   1.960 -0.4824 -2.2542  1.1529
 7463TIP3   OH243803   6.720   5.439   0.594 -0.3463 -0.4790  0.3506
 7463TIP3    H143804   6.787   5.424   0.528 -0.9745 -0.6183 -0.2685
 7463TIP3    H243805   6.752   5.394   0.672  1.4830  1.5458  0.8542
 7464TIP3   OH243806   4.587   4.285  16.700  0.7686 -0.1439 -0.1245
 7464TIP3    H143807   4.510   4.261  16.649 -0.6329 -0.8730  2.2077
 7464TIP3    H243808   4.636   4.343  16.643 -2.4920  1.9822 -1.0160
 7465TIP3   OH243809   3.749   4.515   5.190 -0.0780  0.1426  0.5717
 7465TIP3    H143810   3.751   4.423   5.217 -0.8744  0.7435  2.9799
 7465TIP3    H243811   3.671   4.550   5.233  0.2731  1.9801 -0.2234
 7466TIP3   OH243812   5.822   0.205  17.322  0.0157  0.2999 -0.4699
 7466TIP3    H143813   5.732   0.176  17.307  0.2420 -0.1759 -0.9395
 7466TIP3    H243814   5.864   0.132  17.366  0.5933 -0.1100 -1.6637
 7467TIP3   OH243815   2.062   3.043  10.553  0.0198  0.0813 -0.3500
 7467TIP3    H143816   2.001   3.116  10.547  0.0313  0.1096 -0.1164
 7467TIP3    H243817   2.148   3.084  10.543  0.2588  0.5353  2.6576
 7468TIP3   OH243818   1.443   0.857  11.722 -0.0564 -1.0820  0.3436
 7468TIP3    H143819   1.397   0.776  11.703 -2.2006  0.2329 -0.5147
 7468TIP3    H243820   1.488   0.841  11.805 -0.4723 -3.0803  0.2321
 7469TIP3   OH243821   6.295   1.897   4.073 -0.1210 -0.4178  0.2611
 7469TIP3    H143822   6.368   1.836   4.072  0.2961  0.0552  1.0694
 7469TIP3    H243823   6.336   1.984   4.079 -0.7437 -0.1391  0.6217
 7470TIP3   OH243824   5.195   3.521   6.497  0.0406 -0.1618  0.3577
 7470TIP3    H143825   5.105   3.527   6.529 -0.2694  0.1485 -0.5520
 7470TIP3    H243826   5.209   3.601   6.446  0.3872 -0.8233 -0.6101
 7471TIP3   OH243827   4.308   3.995  11.305  0.4185  0.4835 -0.3460
 7471TIP3    H143828   4.304   3.906  11.271  2.2650 -0.4376  1.6959
 7471TIP3    H243829   4.223   4.033  11.281 -1.5206 -2.6710  1.0280
 7472TIP3   OH243830   3.514   5.063   3.082 -0.3675  0.2473 -0.3863
 7472TIP3    H143831   3.510   5.011   3.002 -1.1268 -0.0112 -0.1917
 7472TIP3    H243832   3.572   5.015   3.141 -1.9910 -1.0403  0.2372
 7473TIP3   OH243833   1.438   0.637   0.035 -0.2480  0.5294 -0.3565
 7473TIP3    H143834   1.439   0.631   0.131 -2.4123 -2.5925 -0.3765
 7473TIP3    H243835   1.373   0.704   0.016  0.8976  1.8773  0.2965
 7474TIP3   OH243836   5.725   3.546   1.636  0.3626  0.0915 -0.3264
 7474TIP3    H143837   5.750   3.552   1.728 -2.0263  2.1844  0.3085
 7474TIP3    H243838   5.690   3.458   1.626 -0.6311  0.2793  1.1901
 7475TIP3   OH243839   0.852   6.418   4.390  0.4855  0.2334 -0.9140
 7475TIP3    H143840   0.839   6.461   4.474  2.9715  0.9001 -0.7763
 7475TIP3    H243841   0.887   6.332   4.412  0.7567  0.2519 -1.2611
 7476TIP3   OH243842   6.219   1.901   0.991  0.0206 -0.2187  0.2996
 7476TIP3    H143843   6.191   1.945   1.071  1.4161 -1.2235  1.4050
 7476TIP3    H243844   6.291   1.955   0.958  0.9403 -0.9836  0.9986
 7477TIP3   OH243845   0.971   3.489  16.850  0.3777 -0.2585 -0.1444
 7477TIP3    H143846   0.913   3.519  16.780 -1.8395 -0.3203  1.5464
 7477TIP3    H243847   1.058   3.516  16.822 -0.3724 -0.4076 -2.9643
 7478TIP3   OH243848   5.528   3.859   5.266  0.3281  0.9032  0.4331
 7478TIP3    H143849   5.453   3.827   5.217 -0.4084 -0.2293  2.2067
 7478TIP3    H243850   5.583   3.782   5.279 -0.5340  0.6550  3.1453
 7479TIP3   OH243851   4.526   0.288  14.559  0.4989  0.6644  0.3950
 7479TIP3    H143852   4.593   0.218  14.560 -0.9978 -0.8312  1.1087
 7479TIP3    H243853   4.569   0.362  14.602  1.6113 -0.3579  1.1250
 7480TIP3   OH243854   5.861   1.099  13.855 -0.2101 -0.0870  0.5858
 7480TIP3    H143855   5.898   1.143  13.778 -0.2038  0.2455  0.7754
 7480TIP3    H243856   5.824   1.170  13.907 -0.2082 -0.3103  0.8917
 7481TIP3   OH243857   6.098   6.432   3.028  0.8951 -0.4701 -0.1980
 7481TIP3    H143858   6.191   6.414   3.016  1.0986  0.3839  0.0486
 7481TIP3    H243859   6.076   6.389   3.111  0.7423 -1.7968 -0.8931
 7482TIP3   OH243860   1.158   1.720   5.256  0.0503  0.2416  0.1005
 7482TIP3    H143861   1.194   1.676   5.334 -0.5736  0.6907  0.6477
 7482TIP3    H243862   1.167   1.655   5.186 -1.4365 -1.0229  1.0232
 7483TIP3   OH243863   6.133   1.949   6.675 -0.1717  1.0710 -0.2441
 7483TIP3    H143864   6.054   1.969   6.724 -0.8354  1.0353 -1.2562
 7483TIP3    H243865   6.180   2.033   6.670 -0.8212  1.4207 -0.7788
 7484TIP3   OH243866   2.440   3.442   1.348 -0.1770  0.1744  0.4393
 7484TIP3    H143867   2.367   3.503   1.346 -0.2882  0.0422 -1.2331
 7484TIP3    H243868   2.399   3.355   1.353 -0.1293  0.1220 -0.0279
 7485TIP3   OH243869   5.921   5.070   1.925  0.7739 -0.1835 -0.1508
 7485TIP3    H143870   5.920   4.990   1.977  1.0214  0.1858  0.4244
 7485TIP3    H243871   5.829   5.098   1.922  0.0649 -2.3306 -3.2692
 7486TIP3   OH243872   6.673   0.503  16.438  0.0208  0.1198  0.0438
 7486TIP3    H143873   6.584   0.481  16.411  0.8509  0.4377 -3.4490
 7486TIP3    H243874   6.726   0.429  16.410  1.2756  1.3882 -1.0720
 7487TIP3   OH243875   6.532   3.457   2.595 -0.0845  0.1310 -0.3939
 7487TIP3    H143876   6.529   3.474   2.689  0.6713 -1.3452 -0.0743
 7487TIP3    H243877   6.559   3.540   2.557 -0.8006  0.8625  0.6468
 7488TIP3   OH243878   4.306   1.595  12.516  0.4126 -0.2509  0.7314
 7488TIP3    H143879   4.295   1.505  12.485  0.1745  0.9566 -3.2046
 7488TIP3    H243880   4.398   1.615  12.501  0.2709  0.4391  0.7564
 7489TIP3   OH243881   3.186   2.653  16.329 -0.5628  0.6246  0.3705
 7489TIP3    H143882   3.276   2.621  16.339 -0.7580  0.4896  1.9630
 7489TIP3    H243883   3.136   2.575  16.306 -0.4425  0.4935  0.5492
 7490TIP3   OH243884   4.025   1.531   4.794 -0.4232 -0.0749  0.1485
 7490TIP3    H143885   4.095   1.466   4.799  0.0579  0.4074 -0.1554
 7490TIP3    H243886   4.063   1.604   4.745 -0.9715  0.4124  0.4246
 7491TIP3   OH243887   0.078   6.126  13.282 -1.2248  0.0139  0.5468
 7491TIP3    H143888   0.018   6.167  13.344 -1.8405  0.2283 -0.1751
 7491TIP3    H243889   0.109   6.198  13.227  2.4460  0.5792  3.0257
 7492TIP3   OH243890   4.599   3.443   5.984 -0.5098 -0.1921  0.1856
 7492TIP3    H143891   4.690   3.454   5.957 -0.6355  1.2098  0.2840
 7492TIP3    H243892   4.598   3.361   6.034  0.5382 -0.6159 -0.4638
 7493TIP3   OH243893   3.027   1.408   1.216 -0.1059  0.5161  0.2087
 7493TIP3    H143894   2.938   1.402   1.181 -0.2807 -2.4074  0.8977
 7493TIP3    H243895   3.060   1.318   1.212  2.1425  1.1995  1.7079
 7494TIP3   OH243896   3.978   0.201  13.519  0.0169 -0.6643 -0.8452
 7494TIP3    H143897   3.981   0.269  13.586 -1.7840 -0.4826 -0.9079
 7494TIP3    H243898   4.007   0.246  13.439 -1.4687  0.1725 -0.9597
 7495TIP3   OH243899   0.801   3.226  13.956  0.0172 -0.2120  0.9790
 7495TIP3    H143900   0.766   3.314  13.952 -0.9230 -0.5493  1.5569
 7495TIP3    H243901   0.823   3.204  13.865  0.5439  0.7101  0.8728
 7496TIP3   OH243902   1.861   1.274  14.152 -0.8893 -0.1108  0.0757
 7496TIP3    H143903   1.921   1.325  14.097  2.0064 -1.9164  1.2783
 7496TIP3    H243904   1.854   1.324  14.233  2.1382 -1.4765  1.3465
 7497TIP3   OH243905   1.469   4.918  10.945  0.3396  0.6271  0.3450
 7497TIP3    H143906   1.500   4.968  10.869  0.9696 -0.3386 -0.0594
 7497TIP3    H243907   1.374   4.910  10.931  0.5945 -0.5909 -1.0316
 7498TIP3   OH243908   5.740   3.392   5.143  0.0721 -0.1789  0.0850
 7498TIP3    H143909   5.662   3.347   5.176 -0.6921  1.0236 -0.0265
 7498TIP3    H243910   5.799   3.322   5.117 -1.0084 -1.1173  0.0946
 7499TIP3   OH243911   3.061   0.760   0.913  0.1765  0.0635  0.0384
 7499TIP3    H143912   3.106   0.694   0.966 -1.3841 -0.5846  0.6368
 7499TIP3    H243913   2.970   0.759   0.945  0.1106  2.6204  0.1640
 7500TIP3   OH243914   2.620   1.644   2.527  0.1274 -0.1965  0.2538
 7500TIP3    H143915   2.565   1.570   2.502  0.7952 -1.2380  1.6853
 7500TIP3    H243916   2.625   1.639   2.623  0.9826  1.1321  0.3082
 7501TIP3   OH243917   3.245   1.407  11.411 -0.1946  0.3244 -0.0853
 7501TIP3    H143918   3.202   1.336  11.459  0.9974 -0.0896  0.4000
 7501TIP3    H243919   3.322   1.366  11.372 -0.0341  1.1333 -0.6299
 7502TIP3   OH243920   6.509   2.914   3.517  0.3827 -0.2542  0.4058
 7502TIP3    H143921   6.459   2.888   3.439 -1.5445 -1.0558  1.8478
 7502TIP3    H243922   6.501   3.009   3.520 -1.4704 -0.3877  0.8279
 7503TIP3   OH243923   4.561   1.170  17.297 -0.6362 -0.1217  0.4323
 7503TIP3    H143924   4.582   1.263  17.284 -1.0982  0.0823  1.1285
 7503TIP3    H243925   4.644   1.125  17.280 -0.6190  0.3354 -0.7770
 7504TIP3   OH243926   6.718   3.875   0.124 -0.6999 -0.0996  0.6002
 7504TIP3    H143927   6.783   3.846   0.061 -0.6037  1.4014 -0.0314
 7504TIP3    H243928   6.762   3.868   0.209 -0.4244 -0.9860  0.3953
 7505TIP3   OH243929   3.787   6.094   3.221 -0.5603 -0.4423 -0.1234
 7505TIP3    H143930   3.763   6.185   3.203 -1.0928 -0.3895  0.7961
 7505TIP3    H243931   3.837   6.066   3.143  0.8562  1.0710  0.1818
 7506TIP3   OH243932   6.102   4.963   5.964  0.5668  0.5078 -0.5022
 7506TIP3    H143933   6.017   4.982   6.003 -0.2646 -2.0077 -0.8962
 7506TIP3    H243934   6.115   4.869   5.980  2.2205  0.3533 -2.3814
 7507TIP3   OH243935   4.577   1.204   6.276 -0.2221 -0.6271  0.4374
 7507TIP3    H143936   4.602   1.187   6.367  0.7585 -0.1477  0.2637
 7507TIP3    H243937   4.559   1.118   6.240  1.7648 -1.0800  0.4083
 7508TIP3   OH243938   3.908   2.491  11.753  0.5190 -0.1099  0.2808
 7508TIP3    H143939   3.992   2.444  11.751  0.3263 -0.4886  0.9563
 7508TIP3    H243940   3.844   2.426  11.724  0.2718 -0.2397  1.0853
 7509TIP3   OH243941   1.113   0.452   4.261 -0.0097  0.0426 -0.6771
 7509TIP3    H143942   1.163   0.371   4.270  0.0227 -0.0055 -1.2512
 7509TIP3    H243943   1.023   0.423   4.250 -0.2745  0.1510  1.0574
 7510TIP3   OH243944   0.855   0.431  16.051 -0.9437  0.2677  0.2244
 7510TIP3    H143945   0.819   0.520  16.053 -1.8526 -0.0736 -0.1902
 7510TIP3    H243946   0.937   0.437  16.100  0.4610  1.9279 -2.1569
 7511TIP3   OH243947   6.128   2.240  14.426  0.2134 -0.4772 -0.1813
 7511TIP3    H143948   6.185   2.260  14.500  0.1741 -0.3278 -0.1916
 7511TIP3    H243949   6.063   2.179  14.461 -0.7152  0.7546  0.2912
 7512TIP3   OH243950   1.412   4.546  16.997 -0.1312  0.3869  0.2659
 7512TIP3    H143951   1.416   4.625  16.944 -0.9889 -0.5887 -1.3337
 7512TIP3    H243952   1.500   4.538  17.034  1.4297 -0.2501 -3.1654
 7513TIP3   OH243953   1.525   3.303  12.673 -0.5276  0.0642 -0.5474
 7513TIP3    H143954   1.565   3.384  12.703  0.8064 -0.3891 -1.0213
 7513TIP3    H243955   1.477   3.327  12.594 -0.9773  0.5662 -0.1291
 7514TIP3   OH243956   4.606   5.430   4.054 -0.2551  0.1855  0.0150
 7514TIP3    H143957   4.672   5.418   4.122 -0.7970 -2.5123  0.1652
 7514TIP3    H243958   4.582   5.341   4.028 -2.8446  1.0883 -0.9917
 7515TIP3   OH243959   6.146   4.664  13.989  0.0764 -0.1195  0.0068
 7515TIP3    H143960   6.106   4.745  14.020 -1.1749 -0.9582  0.6495
 7515TIP3    H243961   6.228   4.657  14.039 -0.4356  0.1008  0.8928
 7516TIP3   OH243962   5.681   6.223   1.971 -0.0073  0.4034  0.3224
 7516TIP3    H143963   5.761   6.258   2.011  0.0714 -1.0080  1.4678
 7516TIP3    H243964   5.630   6.301   1.948  0.8505  1.2906  1.3253
 7517TIP3   OH243965   0.005   2.781   0.182 -0.4346 -0.0900 -0.2018
 7517TIP3    H143966  -0.063   2.714   0.169  0.0354 -0.3987 -1.0875
 7517TIP3    H243967   0.058   2.777   0.103  0.6553  0.1222  0.5048
 7518TIP3   OH243968   4.520   1.272  14.466  0.4142 -0.4629 -0.0395
 7518TIP3    H143969   4.576   1.297  14.539 -0.4842  1.0822  0.1743
 7518TIP3    H243970   4.431   1.278  14.501  0.0221 -1.0165 -0.8953
 7519TIP3   OH243971   0.641   1.996  15.320  0.2887 -0.0365 -0.3137
 7519TIP3    H143972   0.568   2.010  15.258 -1.1575  2.3146  1.7009
 7519TIP3    H243973   0.647   1.901  15.329 -1.8310 -0.3490 -1.4042
 7520TIP3   OH243974   5.982   3.003   4.206  0.2203 -0.3603 -0.1947
 7520TIP3    H143975   5.909   3.063   4.222 -0.0624 -0.5744 -0.6388
 7520TIP3    H243976   6.056   3.040   4.255  0.0601  0.3716 -0.4950
 7521TIP3   OH243977   5.548   0.808   4.816  0.6537 -0.2344 -0.0830
 7521TIP3    H143978   5.533   0.902   4.805 -2.4737 -0.6286 -0.0276
 7521TIP3    H243979   5.602   0.801   4.895 -0.0946  1.4704  0.6202
 7522TIP3   OH243980   0.599   1.647   4.962  0.2630 -0.0068 -0.1849
 7522TIP3    H143981   0.612   1.738   4.934 -2.1692  0.7757  0.8956
 7522TIP3    H243982   0.540   1.610   4.896 -3.5052  1.1104  2.2080
 7523TIP3   OH243983   1.920   2.939  17.162  0.2594 -0.0161  0.2087
 7523TIP3    H143984   1.832   2.930  17.126  1.1797  0.1768 -2.3245
 7523TIP3    H243985   1.962   3.003  17.104  2.5179 -1.2472  0.3791
 7524TIP3   OH243986   2.284   4.945   5.946  0.1140 -0.0391  0.1526
 7524TIP3    H143987   2.212   4.996   5.909 -0.6890 -0.3152  1.2932
 7524TIP3    H243988   2.320   5.000   6.016  0.4550 -0.2553  0.1509
 7525TIP3   OH243989   2.146   6.406  15.013 -0.0362  0.6600  0.8041
 7525TIP3    H143990   2.171   6.455  14.935 -1.3509 -0.4454 -0.3790
 7525TIP3    H243991   2.197   6.445  15.084  3.1627  0.0389 -0.9888
 7526TIP3   OH243992   3.976   6.344   5.696 -0.2372 -0.3496  0.5303
 7526TIP3    H143993   3.977   6.269   5.636 -2.9709 -0.5886  0.6434
 7526TIP3    H243994   3.888   6.380   5.688  0.1495  1.2370  2.4837
 7527TIP3   OH243995   2.578   4.075  17.063  0.5767 -0.8734  0.5105
 7527TIP3    H143996   2.585   3.984  17.034  0.5428 -0.8475  0.4198
 7527TIP3    H243997   2.646   4.085  17.129 -0.4057 -1.4106  1.6506
 7528TIP3   OH243998   5.096   2.402  14.447 -0.1676 -0.3138  0.3612
 7528TIP3    H143999   5.107   2.495  14.432 -1.7148 -0.2141 -0.2892
 7528TIP3    H244000   5.137   2.360  14.371  1.4053 -0.2408  1.1255
 7529TIP3   OH244001   4.167   4.816  13.275  0.2589  0.1665 -0.6889
 7529TIP3    H144002   4.169   4.878  13.347  0.1770 -0.1301 -0.4313
 7529TIP3    H244003   4.074   4.799  13.260  0.2980 -0.3207 -0.3905
 7530TIP3   OH244004   0.829   2.440  12.508  0.1935  0.0497 -0.2847
 7530TIP3    H144005   0.762   2.374  12.493  0.0198 -0.5348  2.5092
 7530TIP3    H244006   0.910   2.390  12.520  0.2096  0.3661  1.0746
 7531TIP3   OH244007   6.245   5.040  11.879 -0.4995  0.5755 -0.3194
 7531TIP3    H144008   6.160   5.052  11.837  0.2649  2.3803 -1.4553
 7531TIP3    H244009   6.289   4.973  11.826 -0.5874  0.8401 -0.7287
 7532TIP3   OH244010   0.158   3.114   2.863 -0.3848 -0.3128 -0.4090
 7532TIP3    H144011   0.163   3.210   2.865 -1.9709 -0.2058 -0.5518
 7532TIP3    H244012   0.249   3.085   2.875  0.4252  1.2222 -2.3439
 7533TIP3   OH244013   4.950   2.463  16.405 -0.3333 -0.3289  0.4155
 7533TIP3    H144014   4.996   2.382  16.428 -0.5144 -1.0943 -1.7151
 7533TIP3    H244015   4.887   2.437  16.339  0.2758  1.7105 -1.0513
 7534TIP3   OH244016   5.144   6.016   3.790  0.1386 -0.5669  0.0411
 7534TIP3    H144017   5.049   6.003   3.792  0.0347  0.1183 -0.2440
 7534TIP3    H244018   5.157   6.106   3.819  0.7089 -0.6685  0.1152
 7535TIP3   OH244019   2.572   0.711  12.860 -0.4156 -0.2635 -0.0224
 7535TIP3    H144020   2.500   0.653  12.887 -1.0533  0.1956 -0.6991
 7535TIP3    H244021   2.624   0.658  12.799 -1.0670 -0.0943 -0.7383
 7536TIP3   OH244022   2.791   3.042   5.186  0.1093 -0.2852  0.3532
 7536TIP3    H144023   2.699   3.060   5.199  0.0792 -0.8013  0.8972
 7536TIP3    H244024   2.822   3.008   5.270  0.5610 -1.0366 -0.0998
 7537TIP3   OH244025   0.591   5.431  11.473  0.6548  0.2241 -0.0428
 7537TIP3    H144026   0.637   5.452  11.554 -0.1572  0.9747  0.2387
 7537TIP3    H244027   0.582   5.516  11.428 -2.2274  0.5020  0.8685
 7538TIP3   OH244028   3.108   3.414   2.742  0.0330  0.2498 -0.1776
 7538TIP3    H144029   3.175   3.431   2.677  2.0577  2.2604  2.2152
 7538TIP3    H244030   3.045   3.486   2.730  0.3290  0.5373 -0.0239
 7539TIP3   OH244031   3.843   6.645   2.978  0.2548  0.9167 -0.5901
 7539TIP3    H144032   3.849   6.721   2.920  2.4142  0.7107 -0.6955
 7539TIP3    H244033   3.931   6.608   2.979 -0.3976 -0.7250  0.6458
 7540TIP3   OH244034   2.240   5.338  13.874  0.3861 -0.1943 -0.1094
 7540TIP3    H144035   2.249   5.406  13.806 -0.4435 -0.7406 -0.7801
 7540TIP3    H244036   2.174   5.278  13.839 -0.7079 -0.0173  1.5758
 7541TIP3   OH244037   6.602   0.255   0.223 -0.0512  0.0138  0.7272
 7541TIP3    H144038   6.617   0.186   0.159  0.1080  1.8192 -1.2737
 7541TIP3    H244039   6.688   0.271   0.263  0.4685  0.7420 -0.6252
 7542TIP3   OH244040   5.969   1.829   0.762  0.0408 -0.2211  0.0513
 7542TIP3    H144041   5.888   1.865   0.799  0.8567 -0.3346  2.0820
 7542TIP3    H244042   6.012   1.904   0.722 -0.6901 -0.0053 -0.3498
 7543TIP3   OH244043   3.179   4.467  17.176 -0.6068  0.1247 -0.0323
 7543TIP3    H144044   3.227   4.539  17.216  1.1471  0.1525 -1.9669
 7543TIP3    H244045   3.206   4.390  17.226 -0.8097  0.5051  0.6831
 7544TIP3   OH244046   3.251   6.547   3.005 -0.0253  0.4610 -0.6104
 7544TIP3    H144047   3.321   6.605   3.035  3.0377 -2.2011 -1.9917
 7544TIP3    H244048   3.202   6.599   2.942  1.1924  2.2009 -0.2024
 7545TIP3   OH244049   4.625   3.979   2.461  0.5304 -0.1070 -0.5615
 7545TIP3    H144050   4.591   3.908   2.407  0.1638 -0.3274 -0.0413
 7545TIP3    H244051   4.665   4.040   2.398  0.4451 -0.5459 -1.0449
 7546TIP3   OH244052   4.160   1.657  14.861 -0.5078 -0.1637  0.2865
 7546TIP3    H144053   4.138   1.740  14.819  0.9155  0.3407  0.4736
 7546TIP3    H244054   4.239   1.676  14.911  1.1020 -2.1209 -1.3499
 7547TIP3   OH244055   6.476   1.929  10.768 -0.0217 -0.8874 -0.6262
 7547TIP3    H144056   6.488   1.839  10.737 -0.1382 -1.4677  0.9012
 7547TIP3    H244057   6.382   1.940  10.775 -0.0015 -0.7308 -0.5946
 7548TIP3   OH244058   1.195   3.357  15.225  0.1280  0.0753 -0.5724
 7548TIP3    H144059   1.168   3.274  15.185  1.9099 -0.5077 -0.6540
 7548TIP3    H244060   1.117   3.413  15.219 -0.4967 -0.8923 -2.4246
 7549TIP3   OH244061   4.260   1.356   4.718 -0.3685 -0.0159  0.1722
 7549TIP3    H144062   4.282   1.278   4.769 -2.3134 -1.1166 -0.5815
 7549TIP3    H244063   4.196   1.326   4.654 -2.6169  2.5543  1.0305
 7550TIP3   OH244064   1.056   1.018   4.388  0.3834 -0.6602  0.2411
 7550TIP3    H144065   1.132   1.063   4.352 -0.1315  0.5351  0.5926
 7550TIP3    H244066   1.068   0.927   4.363  1.4931 -0.3462 -0.4407
 7551TIP3   OH244067   1.784   3.082   5.233  0.4244 -0.0806  0.8759
 7551TIP3    H144068   1.740   3.025   5.296 -1.3861 -0.6329 -0.7767
 7551TIP3    H244069   1.837   3.022   5.179 -0.1756  0.0022  0.1810
 7552TIP3   OH244070   6.514   2.149  16.734  0.0896 -0.2756  0.1781
 7552TIP3    H144071   6.442   2.199  16.697  1.1128 -0.4281 -2.1839
 7552TIP3    H244072   6.582   2.214  16.752  0.4248 -0.4640 -0.3721
 7553TIP3   OH244073   6.739   4.653   4.020 -0.5356  0.2331 -0.4863
 7553TIP3    H144074   6.798   4.697   4.081 -1.2958 -0.3898  0.7166
 7553TIP3    H244075   6.714   4.721   3.958 -0.1057  0.9867  0.1509
 7554TIP3   OH244076   1.513   0.210   5.719 -0.7844  0.0150  0.1902
 7554TIP3    H144077   1.495   0.131   5.769 -0.5488  0.8187  1.5886
 7554TIP3    H244078   1.574   0.182   5.651 -1.5698 -1.2212 -0.0408
 7555TIP3   OH244079   3.591   3.449  15.702 -0.2520  0.2342  0.1823
 7555TIP3    H144080   3.677   3.420  15.671 -0.0191  0.1240  0.9197
 7555TIP3    H244081   3.609   3.522  15.760 -0.6656  0.2735  0.2688
 7556TIP3   OH244082   5.493   3.120   5.641  0.0766  0.1444 -0.1184
 7556TIP3    H144083   5.554   3.184   5.603  3.2071 -1.5441  1.6123
 7556TIP3    H244084   5.465   3.067   5.566 -0.5869  1.9226 -1.1986
 7557TIP3   OH244085   2.477   1.394   6.594 -0.3138 -0.1343 -0.4021
 7557TIP3    H144086   2.503   1.353   6.512  0.5144 -1.5869  0.5342
 7557TIP3    H244087   2.382   1.384   6.597 -0.2200 -1.2874 -0.6032
 7558TIP3   OH244088   4.636   6.325  17.012  0.1070  0.3614 -0.3682
 7558TIP3    H144089   4.634   6.258  16.944 -1.7776  0.4563 -0.4572
 7558TIP3    H244090   4.610   6.406  16.966 -1.5062  0.3678  0.4683
 7559TIP3   OH244091   3.011   2.353   6.202 -0.2145 -0.2207 -0.1363
 7559TIP3    H144092   3.063   2.274   6.217  0.3517  0.3349  0.9387
 7559TIP3    H244093   3.044   2.387   6.118 -1.4299 -1.8362 -1.3321
 7560TIP3   OH244094   2.041   6.597  11.375 -0.1439  0.4061  0.3551
 7560TIP3    H144095   1.966   6.567  11.325 -0.3973 -0.4821  1.2374
 7560TIP3    H244096   2.117   6.556  11.332 -0.3197 -0.0119  0.4409
 7561TIP3   OH244097   5.825   0.476  16.668 -0.1036  0.3521  0.3121
 7561TIP3    H144098   5.828   0.514  16.580 -0.4693 -1.5270 -0.5479
 7561TIP3    H244099   5.732   0.463  16.685  0.0166 -0.2632  0.5315
 7562TIP3   OH244100   0.411   5.391   2.037 -0.3186 -0.2209  0.4463
 7562TIP3    H144101   0.420   5.320   2.101  0.4984 -0.1690  0.4049
 7562TIP3    H244102   0.392   5.469   2.090 -3.0592 -0.7603  0.3672
 7563TIP3   OH244103   5.822   0.599   0.366  0.4854 -0.4003  0.2100
 7563TIP3    H144104   5.886   0.654   0.412  1.3910 -0.7624 -0.5872
 7563TIP3    H244105   5.853   0.510   0.379 -0.1685 -0.6323  0.2508
 7564TIP3   OH244106   5.222   3.234  13.832  0.4224  0.4075  0.1582
 7564TIP3    H144107   5.185   3.300  13.772 -1.8129  0.9233  1.9691
 7564TIP3    H244108   5.176   3.249  13.915  1.4915 -1.9996  1.2683
 7565TIP3   OH244109   2.360   4.129  15.214  0.0286 -0.0029  0.6035
 7565TIP3    H144110   2.444   4.165  15.245  0.0740 -1.1207  1.8456
 7565TIP3    H244111   2.352   4.045  15.259  0.6633 -2.3890 -3.3156
 7566TIP3   OH244112   0.263   2.607  11.261  0.8182  0.2114 -0.7633
 7566TIP3    H144113   0.172   2.606  11.289  0.0891 -4.2150 -2.5627
 7566TIP3    H244114   0.310   2.647  11.334 -2.1410 -0.7082  1.8537
 7567TIP3   OH244115   6.130   2.583   4.560  0.1245  0.5507  0.0148
 7567TIP3    H144116   6.041   2.616   4.576  0.2227  0.0495  1.7202
 7567TIP3    H244117   6.117   2.491   4.540  0.3351  0.1160  1.7250
 7568TIP3   OH244118   5.057   4.059  15.505 -0.1888  0.1585 -0.0741
 7568TIP3    H144119   4.967   4.030  15.521 -0.4166 -0.1013 -1.6004
 7568TIP3    H244120   5.084   4.010  15.427  1.6914 -0.5799  0.9916
 7569TIP3   OH244121   5.151   0.384   0.869 -0.0259 -0.2436  0.6447
 7569TIP3    H144122   5.238   0.355   0.896  0.0219 -1.6715 -0.8697
 7569TIP3    H244123   5.092   0.341   0.930  0.1477 -2.5429 -0.6757
 7570TIP3   OH244124   3.907   0.760  14.137  0.2284  0.1421  0.0994
 7570TIP3    H144125   3.936   0.851  14.143 -0.3316  0.5099 -2.0649
 7570TIP3    H244126   3.962   0.713  14.199  0.1412  2.0243  1.6905
 7571TIP3   OH244127   4.565   5.167   3.956  0.0939 -0.1892 -0.2385
 7571TIP3    H144128   4.494   5.195   3.898 -0.6902 -1.3882  0.0958
 7571TIP3    H244129   4.551   5.073   3.967  0.9597 -0.2101  0.9032
 7572TIP3   OH244130   2.450   2.321  13.491  0.0519  0.6599 -0.6903
 7572TIP3    H144131   2.417   2.267  13.563  0.0165  2.2582  0.5614
 7572TIP3    H244132   2.455   2.262  13.417 -0.4700 -0.9242  0.4779
 7573TIP3   OH244133   3.486   6.480  15.203  0.6490 -0.2123  0.2749
 7573TIP3    H144134   3.554   6.414  15.188 -0.8586 -2.4579  2.5627
 7573TIP3    H244135   3.487   6.494  15.298 -0.3743  1.6995  0.0496
 7574TIP3   OH244136   3.275   2.875   4.068 -0.4989 -0.4660 -0.4291
 7574TIP3    H144137   3.266   2.783   4.094  0.3676 -1.0499 -2.0512
 7574TIP3    H244138   3.311   2.918   4.146 -1.7754 -1.2786  0.6692
 7575TIP3   OH244139   5.633   0.681  12.819 -0.8057 -0.2292 -0.0773
 7575TIP3    H144140   5.655   0.653  12.730 -1.6674  0.2602 -0.4542
 7575TIP3    H244141   5.622   0.776  12.813 -0.7903 -0.1779  0.5753
 7576TIP3   OH244142   4.530   0.683  14.269 -0.0586  0.3513  0.0220
 7576TIP3    H144143   4.581   0.755  14.306 -0.0112 -0.4409  1.5884
 7576TIP3    H244144   4.591   0.636  14.213 -0.0019  1.3271 -0.7549
 7577TIP3   OH244145   2.247   4.204  11.419  0.5116 -0.3907 -0.0400
 7577TIP3    H144146   2.177   4.150  11.455 -0.9757 -0.2087 -2.4982
 7577TIP3    H244147   2.210   4.292  11.415  0.2727 -0.5501 -2.7035
 7578TIP3   OH244148   6.478   6.440   5.270 -0.5766 -0.2766  0.4085
 7578TIP3    H144149   6.421   6.498   5.219  0.8228  2.4892  1.7659
 7578TIP3    H244150   6.546   6.413   5.208 -1.6222 -1.1284 -0.4188
 7579TIP3   OH244151   3.985   2.335   6.368 -0.6679 -0.2021 -0.4158
 7579TIP3    H144152   3.967   2.275   6.440  0.4711 -1.1520 -0.8863
 7579TIP3    H244153   3.900   2.374   6.348 -1.9723 -3.2591 -1.4654
 7580TIP3   OH244154   1.978   0.027   5.074 -0.4372 -0.3100 -0.0490
 7580TIP3    H144155   1.960   0.032   5.168 -1.0823  0.8753 -0.2203
 7580TIP3    H244156   1.892   0.037   5.033  0.0067  0.5915 -0.7855
 7581TIP3   OH244157   5.907   0.858   5.433 -0.1182  0.2598 -0.8647
 7581TIP3    H144158   5.938   0.791   5.373 -0.0531  0.5224 -1.1282
 7581TIP3    H244159   5.849   0.811   5.494 -0.3905  0.0345 -1.2917
 7582TIP3   OH244160   2.699   1.942   5.145  0.2120  0.2203 -0.1094
 7582TIP3    H144161   2.770   1.892   5.104  0.8509 -0.0188  1.2321
 7582TIP3    H244162   2.639   1.962   5.073  0.5891 -1.3740 -0.9133
 7583TIP3   OH244163   5.958   1.274  11.268  0.3868 -0.1296 -0.5687
 7583TIP3    H144164   5.900   1.345  11.296  0.3071 -0.0726 -0.8807
 7583TIP3    H244165   6.006   1.249  11.348  2.8051  2.4573 -1.0615
 7584TIP3   OH244166   3.486   2.124   0.126 -0.3597  0.7127 -0.1026
 7584TIP3    H144167   3.562   2.171   0.162  2.1435 -1.2702 -2.4006
 7584TIP3    H244168   3.448   2.184   0.062  1.5761  0.4382 -1.5718
 7585TIP3   OH244169   0.652   6.684  15.682  0.2855  0.3497  0.0405
 7585TIP3    H144170   0.582   6.737  15.722 -0.6226 -0.7528 -0.0477
 7585TIP3    H244171   0.619   6.664  15.594 -0.3837 -2.1235  0.7818
 7586TIP3   OH244172   5.144   2.627  15.201  0.1121 -0.2385 -0.2434
 7586TIP3    H144173   5.229   2.631  15.157  0.3224 -1.6764 -0.0045
 7586TIP3    H244174   5.161   2.577  15.281 -0.6467  0.8090  0.6050
 7587TIP3   OH244175   0.395   3.618   4.968  0.2589 -0.2933  0.5822
 7587TIP3    H144176   0.317   3.563   4.955  0.8618 -1.1558  0.5202
 7587TIP3    H244177   0.459   3.584   4.905 -0.0445  1.8978 -1.0181
 7588TIP3   OH244178   3.642   3.758  12.334  0.3662 -0.7918 -0.1890
 7588TIP3    H144179   3.725   3.767  12.380  0.3386  1.7140 -0.4626
 7588TIP3    H244180   3.575   3.776  12.400  0.1597 -0.4839 -0.4755
 7589TIP3   OH244181   0.878   2.404   3.488  0.2988  0.1830  0.0174
 7589TIP3    H144182   0.823   2.326   3.492  1.8135 -0.9059  0.6056
 7589TIP3    H244183   0.958   2.374   3.445  1.0958  1.2890  0.6848
 7590TIP3   OH244184   6.187   3.194   4.867 -0.3868  0.0988 -0.1874
 7590TIP3    H144185   6.112   3.249   4.890 -0.9594 -1.2534  1.3476
 7590TIP3    H244186   6.149   3.110   4.841  0.4979  0.2093 -1.9684
 7591TIP3   OH244187   2.895   5.872  15.785 -0.4227 -0.0633  0.3393
 7591TIP3    H144188   2.821   5.927  15.810  0.5292  1.2080  0.4398
 7591TIP3    H244189   2.971   5.930  15.788  0.8489 -1.6589  1.7358
 7592TIP3   OH244190   1.185   2.945   1.518 -0.6521 -0.3834  0.4939
 7592TIP3    H144191   1.186   2.993   1.435 -0.1683 -2.0102 -0.4756
 7592TIP3    H244192   1.276   2.945   1.548 -0.6586 -0.6434  0.5196
 7593TIP3   OH244193   2.629   3.189   2.790 -0.4392  0.5788 -0.2951
 7593TIP3    H144194   2.663   3.106   2.757 -0.0456  0.8908 -0.6831
 7593TIP3    H244195   2.534   3.180   2.780 -0.3179  1.2436 -3.0804
 7594TIP3   OH244196   1.178   4.377  17.364  0.0326 -0.3674 -0.3457
 7594TIP3    H144197   1.185   4.383  17.459  2.7129  0.6452 -0.5327
 7594TIP3    H244198   1.123   4.452  17.339  0.7143  0.3611  0.3029
 7595TIP3   OH244199   1.504   3.890   2.556 -0.1724  0.5914 -0.1769
 7595TIP3    H144200   1.444   3.908   2.484 -0.9089  1.0801  0.5392
 7595TIP3    H244201   1.461   3.928   2.633 -0.0047 -1.0417  0.7511
 7596TIP3   OH244202   4.430   2.065   3.575 -0.7165  0.7805  0.3348
 7596TIP3    H144203   4.525   2.052   3.567 -0.9292  0.2971 -2.9283
 7596TIP3    H244204   4.411   2.052   3.668  2.0207 -2.0358  0.6518
 7597TIP3   OH244205   2.168   5.079   0.861  0.3507 -0.2998  0.1577
 7597TIP3    H144206   2.167   5.023   0.938 -0.3888  1.3776  1.4149
 7597TIP3    H244207   2.076   5.101   0.845  0.6309  0.6865 -0.1932
 7598TIP3   OH244208   1.296   6.305  12.671 -0.0076  0.4719  0.1300
 7598TIP3    H144209   1.278   6.334  12.581 -1.2087 -1.4019 -0.3066
 7598TIP3    H244210   1.386   6.333  12.688 -0.0877  1.7298 -1.2817
 7599TIP3   OH244211   0.561   2.221  17.375 -0.0085 -0.5323 -0.1619
 7599TIP3    H144212   0.482   2.203  17.425 -0.2814 -0.2701 -0.5018
 7599TIP3    H244213   0.541   2.299  17.324  0.3880 -0.5970 -0.4225
 7600TIP3   OH244214   3.805   3.789  15.843 -0.5531 -0.6292  0.9337
 7600TIP3    H144215   3.834   3.757  15.757  1.2010 -0.9194  1.5929
 7600TIP3    H244216   3.710   3.778  15.841 -0.5371 -0.8160 -0.8927
 7601TIP3   OH244217   5.201   4.271  16.149 -0.0179  0.6300  0.3677
 7601TIP3    H144218   5.213   4.243  16.058 -1.3856 -0.6445  0.5383
 7601TIP3    H244219   5.161   4.358  16.142  0.8502  0.9895 -0.2303
 7602TIP3   OH244220   2.447   4.839  16.479 -1.1499 -0.3563 -0.2996
 7602TIP3    H144221   2.408   4.925  16.463 -2.1228 -0.7020  0.1480
 7602TIP3    H244222   2.468   4.805  16.392 -2.9168 -0.6367 -0.6560
 7603TIP3   OH244223   5.818   0.976   0.611 -0.1433  0.2401 -0.3720
 7603TIP3    H144224   5.761   0.903   0.636 -0.6901  0.5329 -0.7267
 7603TIP3    H244225   5.876   0.939   0.544 -0.1626  0.0307 -0.2724
 7604TIP3   OH244226   1.921   2.024  16.853  0.4243 -0.2818  0.1531
 7604TIP3    H144227   1.894   1.993  16.940  0.6087 -2.1934 -0.4375
 7604TIP3    H244228   1.864   2.100  16.837 -0.7666 -0.8893  1.2649
 7605TIP3   OH244229   6.045   5.003  15.334 -0.4928  0.2760  0.0878
 7605TIP3    H144230   6.061   5.018  15.240  1.7572  0.6500  0.4857
 7605TIP3    H244231   5.951   5.018  15.344 -0.7866  0.2683 -2.1001
 7606TIP3   OH244232   3.352   0.103  14.095 -0.2565  0.2850 -0.3737
 7606TIP3    H144233   3.419   0.163  14.129 -1.0084  2.3159 -2.2612
 7606TIP3    H244234   3.274   0.123  14.146  0.4478 -2.2878  2.0320
 7607TIP3   OH244235   3.150   0.692  16.809 -0.1791  0.0747 -0.1699
 7607TIP3    H144236   3.085   0.666  16.874 -1.2808  2.3708 -0.2594
 7607TIP3    H244237   3.164   0.786  16.825  0.0480  0.5560 -2.7566
 7608TIP3   OH244238   3.527   3.558  15.316 -0.0974 -0.4064  0.0897
 7608TIP3    H144239   3.480   3.629  15.359 -0.3929 -0.4833 -0.0997
 7608TIP3    H244240   3.458   3.506  15.274  0.1715 -0.4283 -0.3317
 7609TIP3   OH244241   5.356   2.113  12.064  0.4017 -0.2043 -0.1376
 7609TIP3    H144242   5.318   2.179  12.006  1.5616 -0.3018 -1.0443
 7609TIP3    H244243   5.290   2.043  12.066 -0.9585  1.0372  1.0392
 7610TIP3   OH244244   5.470   2.747  11.595 -0.6542  0.4265 -0.3523
 7610TIP3    H144245   5.515   2.752  11.679  1.3029  0.8306 -1.3638
 7610TIP3    H244246   5.381   2.775  11.614 -0.7035 -0.9826  1.8655
 7611TIP3   OH244247   3.640   2.537   3.769 -0.0355 -0.3157  0.0148
 7611TIP3    H144248   3.566   2.517   3.711 -0.1660  0.8533 -0.2523
 7611TIP3    H244249   3.649   2.460   3.825 -2.9732  0.4079  1.6766
 7612TIP3   OH244250   5.372   3.211   0.210 -0.2484  0.1233 -0.3767
 7612TIP3    H144251   5.301   3.148   0.202  0.7056 -0.8031 -1.8653
 7612TIP3    H244252   5.352   3.279   0.145  0.4842 -0.4155 -1.1799
 7613TIP3   OH244253   0.834   5.061  15.993  0.2210 -0.4396  0.1724
 7613TIP3    H144254   0.748   5.019  15.996  0.6236 -1.2191  1.8116
 7613TIP3    H244255   0.823   5.140  16.045 -0.2464  1.0548 -2.0381
 7614TIP3   OH244256   4.752   5.881  12.863 -0.4058 -0.0928 -0.2584
 7614TIP3    H144257   4.672   5.880  12.810  0.1348 -0.9353 -1.0895
 7614TIP3    H244258   4.797   5.799  12.841 -0.7185 -1.0789  2.4185
 7615TIP3   OH244259   3.854   0.580   6.031 -0.1220  0.4024 -0.1436
 7615TIP3    H144260   3.795   0.624   5.970  0.8314  2.0549  0.0587
 7615TIP3    H244261   3.821   0.604   6.118  0.1660  0.3823 -0.0260
 7616TIP3   OH244262   6.365   3.395  16.329  0.1019  0.0340  0.0616
 7616TIP3    H144263   6.398   3.381  16.241 -0.6754  1.5262 -0.4956
 7616TIP3    H244264   6.339   3.308  16.359  1.4719 -0.6773 -0.6930
 7617TIP3   OH244265   1.950   0.169   2.262  0.1612 -0.0247  0.0357
 7617TIP3    H144266   1.888   0.235   2.230 -0.3267  0.6718  2.2135
 7617TIP3    H244267   1.900   0.088   2.261 -0.7121  0.4569  1.3646
 7618TIP3   OH244268   6.036   3.909  14.283  0.3275 -0.4537  0.8411
 7618TIP3    H144269   6.068   3.824  14.253  0.7859  0.2769 -0.8395
 7618TIP3    H244270   6.114   3.957  14.309 -0.0138 -0.8939  2.9482
 7619TIP3   OH244271   6.238   1.972  16.066 -0.1810  0.1808  0.1363
 7619TIP3    H144272   6.200   2.025  16.135  0.1099 -0.7111  0.9990
 7619TIP3    H244273   6.326   1.950  16.097  0.7816  1.5106 -1.4468
 7620TIP3   OH244274   4.190   0.040   2.234 -0.5374  0.0253 -0.1255
 7620TIP3    H144275   4.199  -0.040   2.182 -1.1044  1.0083 -1.8295
 7620TIP3    H244276   4.125   0.092   2.186  0.3376  1.8164  0.5460
 7621TIP3   OH244277   6.300   2.558   0.030  0.5794  0.1525 -0.5982
 7621TIP3    H144278   6.388   2.577  -0.003 -0.3099  2.3638 -1.9747
 7621TIP3    H244279   6.242   2.583  -0.042 -1.2170 -0.8156  0.4364
 7622TIP3   OH244280   3.161   1.805  15.433  0.4048 -0.2228 -0.0840
 7622TIP3    H144281   3.172   1.880  15.491 -1.0402  0.5043 -0.7126
 7622TIP3    H244282   3.249   1.788  15.399  0.7938  1.0462  0.2359
 7623TIP3   OH244283   4.661   0.753  13.461  0.2099 -0.1359 -0.2853
 7623TIP3    H144284   4.606   0.827  13.489  0.3693  0.6188 -1.8220
 7623TIP3    H244285   4.603   0.677  13.464 -0.0194  0.0603  1.1131
 7624TIP3   OH244286   2.221   3.435  11.687  0.3678  0.0081 -0.1498
 7624TIP3    H144287   2.131   3.424  11.717  0.8838  0.4924  1.7068
 7624TIP3    H244288   2.235   3.362  11.626 -1.3517  0.1138 -0.7283
 7625TIP3   OH244289   1.109   6.530  17.361 -0.4025  0.0462 -0.0625
 7625TIP3    H144290   1.081   6.484  17.282 -0.7514 -0.3160  0.2667
 7625TIP3    H244291   1.093   6.467  17.432 -0.2037  0.4108  0.3080
 7626TIP3   OH244292   0.141   5.180  13.857 -0.0357  0.7511  0.2632
 7626TIP3    H144293   0.140   5.276  13.862  2.0153  0.7675  0.9377
 7626TIP3    H244294   0.204   5.160  13.789 -0.2028 -0.1307  0.3593
 7627TIP3   OH244295   6.042   0.388   3.189 -0.3375 -0.1090 -0.3545
 7627TIP3    H144296   6.050   0.469   3.139  0.1519 -1.9681 -3.5958
 7627TIP3    H244297   6.132   0.358   3.200 -0.4677  0.0457  1.4027
 7628TIP3   OH244298   3.642   5.911   2.840 -0.5299 -0.1474  0.2496
 7628TIP3    H144299   3.568   5.941   2.787 -0.9453 -2.3731 -0.5342
 7628TIP3    H244300   3.689   5.991   2.864 -1.1749  1.0476 -2.2275
 7629TIP3   OH244301   2.329   0.719  14.444  0.0833  0.1579 -0.7564
 7629TIP3    H144302   2.311   0.626  14.458  1.5910 -0.2279 -1.1850
 7629TIP3    H244303   2.342   0.727  14.350 -0.3637  0.8805 -0.7655
 7630TIP3   OH244304   1.442   0.341  15.725 -0.0437  0.3904 -0.7226
 7630TIP3    H144305   1.515   0.385  15.683  0.4783  0.8008  0.5628
 7630TIP3    H244306   1.467   0.248  15.727  1.4986  0.7724  1.6322
 7631TIP3   OH244307   5.712   2.126   4.384 -0.3250 -0.1474 -1.1669
 7631TIP3    H144308   5.620   2.151   4.376 -0.7301 -1.2058 -0.0600
 7631TIP3    H244309   5.758   2.208   4.406 -1.4081 -0.0764  1.0153
 7632TIP3   OH244310   2.202   2.271   0.228  0.0057  0.4287 -0.3095
 7632TIP3    H144311   2.293   2.244   0.213  1.3653  4.2219 -0.0921
 7632TIP3    H244312   2.195   2.280   0.323 -0.3818  0.7421 -0.3664
 7633TIP3   OH244313   0.130   4.647   4.329  0.3182  0.1443 -0.4294
 7633TIP3    H144314   0.159   4.722   4.278  1.6557  0.7461  1.1238
 7633TIP3    H244315   0.192   4.578   4.308  0.8550  0.3855  0.3376
 7634TIP3   OH244316   2.618   5.153   3.593  0.7324 -0.1849  0.8895
 7634TIP3    H144317   2.643   5.065   3.565 -0.2684  0.2515 -1.6139
 7634TIP3    H244318   2.621   5.206   3.513  2.2015  2.3115  2.4773
 7635TIP3   OH244319   6.295   4.058   2.076 -0.1469  0.1901  0.2945
 7635TIP3    H144320   6.240   3.985   2.050 -0.3802  0.2679  0.5555
 7635TIP3    H244321   6.235   4.119   2.119 -0.0555  0.7845 -0.3993
 7636TIP3   OH244322   1.196   4.434  15.709  0.0338 -0.0194 -0.0039
 7636TIP3    H144323   1.112   4.432  15.755 -1.3764 -0.3993 -2.4367
 7636TIP3    H244324   1.200   4.352  15.661  2.0312 -0.2003  0.3589
 7637TIP3   OH244325   4.256   3.843   3.462  0.6733 -0.9055  0.2096
 7637TIP3    H144326   4.289   3.786   3.532  3.2500  0.0700 -0.1044
 7637TIP3    H244327   4.294   3.929   3.481 -1.8473  0.4236 -0.2044
 7638TIP3   OH244328   3.425   1.438  12.610  0.4732 -0.1879 -0.5174
 7638TIP3    H144329   3.340   1.477  12.588  1.5211  1.4262 -1.9898
 7638TIP3    H244330   3.406   1.346  12.625 -1.7832  0.4041  0.8457
 7639TIP3   OH244331   5.480   0.801   5.547  0.3268  0.0550  0.2248
 7639TIP3    H144332   5.439   0.843   5.622 -0.3639  1.4546 -0.8805
 7639TIP3    H244333   5.557   0.854   5.528 -0.7936  1.1592 -1.4604
 7640TIP3   OH244334   0.803   3.297  16.455  0.1577 -0.2636  0.3240
 7640TIP3    H144335   0.883   3.258  16.493 -0.2599 -0.7739  0.6978
 7640TIP3    H244336   0.784   3.372  16.512  1.4874  1.1106 -0.9332
 7641TIP3   OH244337   4.344   0.868  13.797  0.5091 -0.1980 -0.3153
 7641TIP3    H144338   4.304   0.837  13.716  1.5753 -1.2471 -0.4641
 7641TIP3    H244339   4.299   0.820  13.867 -1.7153  2.0415 -0.0633
 7642TIP3   OH244340   3.792   2.141  15.771  0.5772  0.2944  0.3670
 7642TIP3    H144341   3.752   2.083  15.835 -0.0833  0.4345  0.0823
 7642TIP3    H244342   3.772   2.101  15.686  0.8741  0.4717  0.2106
 7643TIP3   OH244343   5.242   3.742  11.082 -0.2276  0.1333 -0.2049
 7643TIP3    H144344   5.229   3.651  11.057  2.8670 -0.3195 -0.5068
 7643TIP3    H244345   5.235   3.791  11.000  0.0403 -0.0903 -0.3624
 7644TIP3   OH244346   1.375   2.578  16.440 -0.2314  0.1221  0.2265
 7644TIP3    H144347   1.339   2.621  16.517 -0.0757 -1.1468  1.0404
 7644TIP3    H244348   1.470   2.578  16.454 -0.2314 -0.4826  0.2428
 7645TIP3   OH244349   1.155   3.232   0.328  0.1725 -0.1562 -0.0790
 7645TIP3    H144350   1.238   3.199   0.294  0.3736  1.1924 -0.9459
 7645TIP3    H244351   1.097   3.234   0.253 -0.2322  0.2253  0.2412
 7646TIP3   OH244352   1.454   2.854  13.218  0.0056  0.6654 -0.0962
 7646TIP3    H144353   1.524   2.830  13.157 -0.7786  0.0596 -0.7761
 7646TIP3    H244354   1.373   2.834  13.171 -0.6289  1.1112  0.7779
 7647TIP3   OH244355   1.332   4.459   3.942 -0.3379  0.2693  0.0455
 7647TIP3    H144356   1.369   4.498   3.863  0.1629 -0.6255 -0.1692
 7647TIP3    H244357   1.390   4.489   4.013  0.9727 -1.2777 -0.3094
 7648TIP3   OH244358   5.918   1.073   4.078  0.2449  0.4319  0.2102
 7648TIP3    H144359   5.933   1.155   4.031 -0.2103 -0.3388 -1.3603
 7648TIP3    H244360   6.000   1.025   4.070  0.8817  1.1555  2.0771
 7649TIP3   OH244361   5.848   2.602   1.922 -0.2781 -0.0801 -0.0785
 7649TIP3    H144362   5.843   2.548   2.001  0.3414  2.6630  1.9843
 7649TIP3    H244363   5.758   2.627   1.903 -0.3145  0.3626  0.6348
 7650TIP3   OH244364   5.740   6.493   3.814  0.8068 -0.7319 -0.2279
 7650TIP3    H144365   5.813   6.462   3.868 -1.4619 -0.9954  2.9235
 7650TIP3    H244366   5.685   6.415   3.801 -0.5240  0.1150  0.2159
 7651TIP3   OH244367   1.026   5.815   4.640 -0.2997  0.0822  0.5819
 7651TIP3    H144368   1.004   5.906   4.617 -1.5117  0.3085  2.4257
 7651TIP3    H244369   1.101   5.823   4.699 -1.1467  0.0151  1.7031
 7652TIP3   OH244370   2.381   3.377   1.008  0.4243  0.6034  0.2011
 7652TIP3    H144371   2.466   3.392   1.049  0.2415  1.2273  0.3561
 7652TIP3    H244372   2.383   3.284   0.984  1.6338  0.8702 -0.8846
 7653TIP3   OH244373   4.587   4.866   4.281 -0.2762 -0.7927  0.5360
 7653TIP3    H144374   4.661   4.806   4.288  0.4577 -0.0595 -0.6410
 7653TIP3    H244375   4.591   4.919   4.361  0.2530 -1.0051  0.6510
 7654TIP3   OH244376   0.815   6.367  14.018  0.0819 -0.1354 -0.3865
 7654TIP3    H144377   0.890   6.307  14.020  1.6294  1.5079 -2.9645
 7654TIP3    H244378   0.780   6.359  13.929 -0.7131  1.5247 -0.2704
 7655TIP3   OH244379   4.204   0.052  12.161  0.6414  0.0185  0.1730
 7655TIP3    H144380   4.217   0.128  12.218 -1.6161  1.0337 -0.5725
 7655TIP3    H244381   4.282  -0.002  12.176  0.1750  0.1590  4.2608
 7656TIP3   OH244382   4.950   4.790  11.798 -0.6201  0.5674  0.1545
 7656TIP3    H144383   4.995   4.875  11.799  0.4760 -0.0104  0.4801
 7656TIP3    H244384   5.016   4.727  11.825 -0.6337 -0.7804 -2.6198
 7657TIP3   OH244385   5.890   4.010   3.949 -0.4153  0.2527  0.0902
 7657TIP3    H144386   5.799   4.034   3.964 -1.2365 -1.9643 -0.8807
 7657TIP3    H244387   5.927   3.997   4.037 -1.6727 -0.8892  0.4785
 7658TIP3   OH244388   5.021   5.282   6.266  0.4048 -0.5787 -1.2139
 7658TIP3    H144389   4.931   5.267   6.295  0.1373  0.4239 -1.4927
 7658TIP3    H244390   5.041   5.206   6.211  0.4391 -1.7996  0.4103
 7659TIP3   OH244391   4.579   3.126  16.480 -0.7210  0.6916  0.0765
 7659TIP3    H144392   4.583   3.037  16.445  0.3647  0.3667  0.9483
 7659TIP3    H244393   4.502   3.126  16.537 -0.3806  0.0984  0.5570
 7660TIP3   OH244394   3.095   0.195   5.450  0.0251  0.2678 -0.1029
 7660TIP3    H144395   3.170   0.249   5.475  0.5148 -0.5769  0.3174
 7660TIP3    H244396   3.019   0.253   5.457  0.8123  1.6956 -2.4068
 7661TIP3   OH244397   4.448   0.359  12.060 -0.4126  0.4410  0.1402
 7661TIP3    H144398   4.491   0.274  12.051 -0.1908  0.5240  0.4130
 7661TIP3    H244399   4.400   0.370  11.978  0.5789  0.6245 -0.4320
 7662TIP3   OH244400   6.377   0.466  11.103 -0.5041  0.1819 -0.3701
 7662TIP3    H144401   6.305   0.526  11.082 -0.1802  0.6540 -0.1354
 7662TIP3    H244402   6.398   0.485  11.194 -0.0084  0.1246 -0.4725
 7663TIP3   OH244403   2.959   5.705  17.272 -0.3477  0.0099  0.1051
 7663TIP3    H144404   2.911   5.705  17.355  1.2212 -0.6113  1.0599
 7663TIP3    H244405   2.941   5.791  17.234  0.1367  0.9181  1.8367
 7664TIP3   OH244406   1.593   0.632   0.722  0.5620 -0.3177  0.3619
 7664TIP3    H144407   1.552   0.563   0.775  0.4374 -1.2765 -0.9370
 7664TIP3    H244408   1.537   0.639   0.645  0.8006  0.9840  0.2790
 7665TIP3   OH244409   5.146   6.514   3.077 -0.3614  0.3127 -0.0829
 7665TIP3    H144410   5.089   6.544   3.006  1.1513  0.7154 -1.1721
 7665TIP3    H244411   5.124   6.570   3.151 -0.5572  1.2393 -0.8305
 7666TIP3   OH244412   5.864   5.377  14.856 -0.6503  0.3475 -0.2143
 7666TIP3    H144413   5.925   5.446  14.832  1.0830 -0.9993  0.0963
 7666TIP3    H244414   5.906   5.296  14.827 -0.6950 -0.9465  2.9028
 7667TIP3   OH244415   2.796   6.431  12.058 -0.0091  0.2686  0.5395
 7667TIP3    H144416   2.733   6.412  11.988  0.5708  1.1721 -0.2688
 7667TIP3    H244417   2.770   6.518  12.090 -1.1156 -0.7087  2.4362
 7668TIP3   OH244418   2.217   0.874   3.938  0.0556  0.0236 -0.2240
 7668TIP3    H144419   2.237   0.845   4.027 -0.6660 -0.1439 -0.1072
 7668TIP3    H244420   2.302   0.879   3.895  0.3671 -0.3866  0.3233
 7669TIP3   OH244421   3.618   1.046  17.155  0.5040 -0.2193 -0.0109
 7669TIP3    H144422   3.548   1.018  17.095  2.4525 -1.5038 -1.8216
 7669TIP3    H244423   3.612   0.986  17.229  0.4287 -1.1069 -0.7227
 7670TIP3   OH244424   5.600   5.425  11.383  0.1655 -0.0692 -0.0223
 7670TIP3    H144425   5.680   5.412  11.331  0.4971  0.3707  0.3724
 7670TIP3    H244426   5.632   5.451  11.469 -0.4176  0.8716 -0.0774
 7671TIP3   OH244427   3.091   6.461   0.323 -0.1158 -0.0420  0.4485
 7671TIP3    H144428   3.165   6.406   0.348 -0.1191 -0.0635  0.4106
 7671TIP3    H244429   3.102   6.540   0.376 -0.3286 -0.2414  0.7949
 7672TIP3   OH244430   2.798   6.448  15.741 -0.2119 -0.3637  0.4169
 7672TIP3    H144431   2.862   6.387  15.776 -0.7519 -0.3618  1.4607
 7672TIP3    H244432   2.713   6.412  15.766 -0.5890  0.1143 -0.1258
 7673TIP3   OH244433   6.532   4.462   0.045  0.1552  0.1059  0.1272
 7673TIP3    H144434   6.491   4.379   0.069  1.1085  0.1486  2.1158
 7673TIP3    H244435   6.615   4.462   0.093  1.2799  1.1560 -1.7342
 7674TIP3   OH244436   1.275   3.458   1.006  0.1013  0.4902 -0.3944
 7674TIP3    H144437   1.278   3.466   1.101  0.0951  2.9048 -0.5236
 7674TIP3    H244438   1.313   3.373   0.987  1.6868  0.6673  1.6987
 7675TIP3   OH244439   0.347   3.746  16.205 -0.2182  0.3794 -0.1086
 7675TIP3    H144440   0.422   3.788  16.245 -0.1720 -0.1963  0.4276
 7675TIP3    H244441   0.369   3.653  16.205 -0.8029  0.2358 -0.2137
 7676TIP3   OH244442   2.668   4.865  15.038  0.5292  0.6638 -0.2936
 7676TIP3    H144443   2.748   4.903  15.002  0.6795  0.6193 -0.0144
 7676TIP3    H244444   2.611   4.940  15.054  0.6364  0.7266 -0.2029
 7677TIP3   OH244445   4.775   0.360  16.101  0.1920  0.4029  0.0007
 7677TIP3    H144446   4.775   0.442  16.050 -2.8395  1.3753  1.3403
 7677TIP3    H244447   4.784   0.389  16.191 -0.3109 -0.8059  0.4499
 7678TIP3   OH244448   1.444   4.281   5.398  0.0176 -0.9043  0.5932
 7678TIP3    H144449   1.500   4.204   5.400 -1.1084 -1.7634  0.1509
 7678TIP3    H244450   1.388   4.268   5.321 -1.8100 -0.8304  1.8560
 7679TIP3   OH244451   1.830   1.566  17.067 -0.1651 -0.4061 -0.1990
 7679TIP3    H144452   1.855   1.514  17.143 -0.2796 -1.8412 -1.0874
 7679TIP3    H244453   1.737   1.583  17.079  0.1828  0.9398  0.8332
 7680TIP3   OH244454   1.340   2.892   4.654 -0.0291 -0.0991  0.1683
 7680TIP3    H144455   1.406   2.865   4.590  1.2894  0.9410  1.0191
 7680TIP3    H244456   1.300   2.970   4.615  0.1550  0.0158  0.2049
 7681TIP3   OH244457   4.586   4.836   0.023 -0.0618  0.2321  0.1491
 7681TIP3    H144458   4.640   4.808  -0.051  0.1483 -0.6220  0.6169
 7681TIP3    H244459   4.510   4.778   0.022  1.7769 -2.5101  2.8812
 7682TIP3   OH244460   1.826   2.268  14.954 -0.4043 -0.0890 -0.0020
 7682TIP3    H144461   1.882   2.332  14.999 -2.1235  0.8377  0.9352
 7682TIP3    H244462   1.866   2.184  14.973  1.3427  0.6137 -0.4022
 7683TIP3   OH244463   2.900   4.405   2.153 -0.1803  0.4279  0.2128
 7683TIP3    H144464   2.970   4.454   2.196  0.1088 -0.6083  0.9843
 7683TIP3    H244465   2.829   4.404   2.217 -1.3618  2.3655 -0.9604
 7684TIP3   OH244466   6.031   6.309  15.557  0.0934  0.0449 -0.2573
 7684TIP3    H144467   6.104   6.355  15.598  1.1771 -1.6515 -0.1875
 7684TIP3    H244468   5.990   6.260  15.628  0.5188 -1.0469 -0.7487
 7685TIP3   OH244469   0.819   1.409   6.880 -0.5470  0.2490  0.4473
 7685TIP3    H144470   0.809   1.475   6.949 -0.9268  1.2935 -0.5667
 7685TIP3    H244471   0.905   1.427   6.843 -1.1420  0.9989 -0.6328
 7686TIP3   OH244472   5.522   0.825   6.354  0.2372  0.0664 -0.1737
 7686TIP3    H144473   5.457   0.869   6.298 -0.2742 -1.8150 -1.1567
 7686TIP3    H244474   5.493   0.842   6.443 -1.8080 -0.9387 -0.5968
 7687TIP3   OH244475   6.315   0.732   3.939  0.2611 -0.1697  0.3141
 7687TIP3    H144476   6.396   0.781   3.935  1.3229 -1.8117  0.5792
 7687TIP3    H244477   6.342   0.640   3.937 -1.5745 -0.7693  0.5506
 7688TIP3   OH244478   1.344   5.737  16.121  0.5749  0.4259 -0.2814
 7688TIP3    H144479   1.433   5.721  16.089  1.0382  0.9286  0.7029
 7688TIP3    H244480   1.289   5.678  16.070  1.4178  0.4113 -1.2041
 7689TIP3   OH244481   3.874   1.710  13.403 -0.4343 -0.7044  0.1245
 7689TIP3    H144482   3.914   1.763  13.334 -1.4718 -0.3411 -0.2258
 7689TIP3    H244483   3.905   1.621  13.386  1.6956 -0.1955  0.9942
 7690TIP3   OH244484   4.342   0.312  12.290 -0.3534 -0.2626 -0.0301
 7690TIP3    H144485   4.328   0.399  12.326 -1.4864  0.0801 -1.2619
 7690TIP3    H244486   4.390   0.326  12.209  0.2500 -0.8711  0.2031
 7691TIP3   OH244487   5.095   3.124   3.440  0.2118  0.0237  0.0915
 7691TIP3    H144488   5.188   3.104   3.434  0.2258 -0.3759  1.2967
 7691TIP3    H244489   5.061   3.108   3.352  0.7562 -2.5767  0.2898
 7692TIP3   OH244490   5.083   6.217  14.489 -0.0284 -0.4725  0.0196
 7692TIP3    H144491   5.171   6.182  14.478 -0.7369 -2.0161 -1.2082
 7692TIP3    H244492   5.071   6.222  14.584  0.7081 -2.1478  0.2338
 7693TIP3   OH244493   3.181   6.624   3.405 -0.0359  0.1788  0.4208
 7693TIP3    H144494   3.200   6.685   3.334 -1.0919 -2.5582 -2.4186
 7693TIP3    H244495   3.090   6.643   3.429 -0.2077  0.0582 -0.1197
 7694TIP3   OH244496   2.821   1.292   2.738  0.3440 -0.4445  0.6415
 7694TIP3    H144497   2.729   1.293   2.764 -0.7610 -2.6850 -2.5202
 7694TIP3    H244498   2.820   1.311   2.644  3.1568 -0.2191  0.5684
 7695TIP3   OH244499   3.689   1.094  15.791 -0.0308  0.2804  0.9187
 7695TIP3    H144500   3.776   1.111  15.828  0.6347  0.4523 -0.6629
 7695TIP3    H244501   3.694   1.130  15.702 -1.9530  0.9370  1.0392
 7696TIP3   OH244502   5.336   1.945  14.895 -0.0984  0.0728 -0.9245
 7696TIP3    H144503   5.352   2.039  14.887 -0.3256 -0.0201 -3.5160
 7696TIP3    H244504   5.263   1.938  14.956  2.2011  1.2514  2.1979
 7697TIP3   OH244505   4.429   5.653   1.730  0.0479 -0.0339  0.7729
 7697TIP3    H144506   4.470   5.739   1.734 -3.3041  1.7876 -0.4254
 7697TIP3    H244507   4.469   5.611   1.653 -0.1829  1.5823 -0.2658
 7698TIP3   OH244508   2.897   5.830  16.621  0.0841  0.2881  0.1267
 7698TIP3    H144509   2.891   5.924  16.607  0.7914  0.6249  1.8544
 7698TIP3    H244510   2.974   5.818  16.677  1.1131 -1.5118 -1.5130
 7699TIP3   OH244511   6.590   5.031  11.183  0.2714 -0.2276  0.1601
 7699TIP3    H144512   6.585   4.936  11.177 -0.0287 -0.2781  1.1223
 7699TIP3    H244513   6.559   5.062  11.097 -2.3246 -0.9319  0.7544
 7700TIP3   OH244514   0.400   4.092  12.189  0.0579  0.3682  0.9238
 7700TIP3    H144515   0.347   4.105  12.110 -0.4870  3.3282  1.6325
 7700TIP3    H244516   0.336   4.069  12.256 -0.1538  2.0423  1.3540
 7701TIP3   OH244517   3.784   5.452   1.349  0.0458 -0.5014  0.2099
 7701TIP3    H144518   3.819   5.475   1.435  1.3357  0.4932 -0.5547
 7701TIP3    H244519   3.814   5.362   1.334 -2.0727 -1.5408  1.7119
 7702TIP3   OH244520   5.710   0.872  15.405 -0.2801  0.3560 -0.4879
 7702TIP3    H144521   5.769   0.947  15.401  0.1852 -0.0664 -2.4499
 7702TIP3    H244522   5.768   0.796  15.400 -0.8560 -0.1289 -0.0522
 7703TIP3   OH244523   6.219   1.158  12.333  0.6716  0.6568 -0.0219
 7703TIP3    H144524   6.200   1.064  12.337 -2.2490  1.1763  0.9828
 7703TIP3    H244525   6.294   1.165  12.275 -0.6761 -2.1090 -2.3294
 7704TIP3   OH244526   3.654   3.394  13.333  0.0082 -0.0449  0.2055
 7704TIP3    H144527   3.660   3.436  13.247 -1.3890 -0.3182 -0.0473
 7704TIP3    H244528   3.727   3.332  13.334  1.7411  1.8524  0.3323
 7705TIP3   OH244529   6.386   0.762  15.456  0.6357  0.0687 -0.5702
 7705TIP3    H144530   6.306   0.806  15.483  0.0775 -0.7154 -0.9040
 7705TIP3    H244531   6.452   0.791  15.519 -0.1095  0.0493  0.2394
 7706TIP3   OH244532   0.791   2.337  13.996  0.1255  0.0219  0.1846
 7706TIP3    H144533   0.870   2.289  13.970  0.4669  0.8002 -0.2540
 7706TIP3    H244534   0.814   2.429  13.984 -0.2159  0.3563  1.8499
 7707TIP3   OH244535   5.512   4.100   4.407 -0.0403  0.5361 -0.3401
 7707TIP3    H144536   5.477   4.179   4.450 -1.7706  0.5927 -1.7276
 7707TIP3    H244537   5.595   4.129   4.369 -0.4002  1.5700 -0.3881
 7708TIP3   OH244538   6.689   3.767   1.446  0.4670  0.1411  0.1130
 7708TIP3    H144539   6.782   3.788   1.435  0.6471 -0.7905 -0.2395
 7708TIP3    H244540   6.689   3.678   1.483 -0.2890 -0.2474 -0.7799
 7709TIP3   OH244541   4.927   3.473   1.997  0.4591  0.7382  0.5236
 7709TIP3    H144542   4.978   3.415   1.941 -0.3081  0.3881  0.1701
 7709TIP3    H244543   4.989   3.539   2.027  0.9822  0.6672 -0.3770
 7710TIP3   OH244544   5.565   3.208   1.819 -0.1293 -0.4017  0.1455
 7710TIP3    H144545   5.572   3.211   1.724 -0.0739 -0.7869  0.1338
 7710TIP3    H244546   5.654   3.226   1.851  0.2329 -1.9250  0.0780
 7711TIP3   OH244547   5.538   3.698   3.074 -0.5502 -0.0295 -0.5337
 7711TIP3    H144548   5.510   3.636   3.141  3.1564 -0.0849  1.2202
 7711TIP3    H244549   5.560   3.644   2.998  1.4274 -0.8578  0.5462
 7712TIP3   OH244550   3.777   3.319  11.595 -0.3192  0.5849 -0.2526
 7712TIP3    H144551   3.746   3.362  11.515  0.3354 -0.2201 -0.9504
 7712TIP3    H244552   3.811   3.391  11.649  1.4613  0.9241 -1.7281
 7713TIP3   OH244553   2.011   4.723  12.421  0.0673  0.4192 -0.2289
 7713TIP3    H144554   1.986   4.813  12.402 -0.0206  0.5535  0.4872
 7713TIP3    H244555   1.998   4.714  12.515  1.7117  0.1689 -0.0025
 7714TIP3   OH244556   2.335   5.648  14.135 -0.0286 -0.0462 -0.7249
 7714TIP3    H144557   2.265   5.627  14.197 -0.9389 -0.6443 -1.9308
 7714TIP3    H244558   2.415   5.645  14.188 -0.9553  1.6564  0.9061
 7715TIP3   OH244559   2.295   1.333  15.297  0.3935 -0.1886 -0.3121
 7715TIP3    H144560   2.388   1.354  15.292  0.1184  1.2739  0.2173
 7715TIP3    H244561   2.288   1.280  15.377  0.8591 -0.9209 -0.7422
 7716TIP3   OH244562   5.642   4.546  11.247 -0.1682  0.0616  0.0182
 7716TIP3    H144563   5.557   4.528  11.288 -0.3757  1.7805  0.4433
 7716TIP3    H244564   5.704   4.492  11.294 -0.9280 -0.6849  0.1770
 7717TIP3   OH244565   6.718   0.583  13.879  0.3995 -0.7435  0.4010
 7717TIP3    H144566   6.645   0.614  13.825  0.0176  0.0651  1.3582
 7717TIP3    H244567   6.792   0.576  13.818 -0.3445 -1.0894 -0.4752
 7718TIP3   OH244568   6.053   3.460  14.681 -0.4474  0.1324 -0.4457
 7718TIP3    H144569   5.971   3.451  14.729 -0.3108  0.0430 -0.2231
 7718TIP3    H244570   6.052   3.389  14.617 -1.3103  1.1593 -1.6049
 7719TIP3   OH244571   2.833   2.864   4.521  0.3448  0.4858  1.0542
 7719TIP3    H144572   2.884   2.864   4.441 -2.5874  1.8057 -0.9905
 7719TIP3    H244573   2.848   2.951   4.559 -0.1525  0.7792  0.5897
 7720TIP3   OH244574   2.655   3.734  14.280 -0.4321 -0.4261  0.2195
 7720TIP3    H144575   2.626   3.648  14.311 -0.6476 -0.2672  0.4725
 7720TIP3    H244576   2.749   3.735  14.294 -0.3568 -0.8105 -0.2577
 7721TIP3   OH244577   4.116   2.312   4.730  0.2764  0.7051  0.0981
 7721TIP3    H144578   4.089   2.356   4.811 -0.7988  0.6602 -0.2163
 7721TIP3    H244579   4.066   2.357   4.661  0.2837 -0.0299 -0.3942
 7722TIP3   OH244580   5.146   6.338   3.458  0.1056 -0.2666  0.1286
 7722TIP3    H144581   5.191   6.318   3.541 -0.4460 -1.1029  0.2397
 7722TIP3    H244582   5.207   6.394   3.411  1.7053 -2.1245 -0.1357
 7723TIP3   OH244583   3.423   0.054   0.838 -0.0991  0.0301  0.0360
 7723TIP3    H144584   3.415   0.070   0.744  1.1730  0.0369 -0.0953
 7723TIP3    H244585   3.517   0.064   0.856 -0.4841  1.3843  1.5674
 7724TIP3   OH244586   2.430   3.809  16.418 -0.0294 -0.3360 -0.0465
 7724TIP3    H144587   2.428   3.872  16.489 -0.7870  1.5247 -1.6327
 7724TIP3    H244588   2.522   3.808  16.390 -0.1303  0.6066 -0.4458
 7725TIP3   OH244589   6.119   2.455  16.549 -0.2080 -0.7314  0.6207
 7725TIP3    H144590   6.046   2.517  16.541 -0.7100 -1.3293  0.5392
 7725TIP3    H244591   6.139   2.430  16.459  1.4079  0.9162  0.4690
 7726TIP3   OH244592   1.986   2.253  17.374  0.7229  0.1252 -0.1872
 7726TIP3    H144593   2.043   2.231  17.447  0.9516 -0.4112 -0.5186
 7726TIP3    H244594   2.026   2.331  17.335  0.3979  0.6263  0.4699
 7727TIP3   OH244595   6.129   5.576   0.720 -0.0616  0.2699  0.1127
 7727TIP3    H144596   6.107   5.650   0.664  2.8047  0.4752 -0.8920
 7727TIP3    H244597   6.219   5.592   0.748 -0.5850 -1.0206  2.9365
 7728TIP3   OH244598   3.617   2.724  16.515 -0.2238  0.3910  0.1278
 7728TIP3    H144599   3.638   2.632  16.500 -0.6542  0.3561 -0.3022
 7728TIP3    H244600   3.639   2.767  16.432  0.4624  0.7652  0.4993
 7729TIP3   OH244601   6.006   4.032  15.002  0.6598 -0.1316 -0.4160
 7729TIP3    H144602   6.062   3.974  14.950  0.0328  0.2552 -1.5738
 7729TIP3    H244603   5.954   4.079  14.937 -0.7837 -0.2382  0.6066
 7730TIP3   OH244604   5.946   0.003  14.818 -0.5086  0.6746 -0.1234
 7730TIP3    H144605   5.958   0.067  14.888  1.0368 -0.2759  0.5289
 7730TIP3    H244606   6.003   0.033  14.748  0.6720 -0.2388  0.4035
 7731TIP3   OH244607   2.071   4.942  16.169  0.6932 -0.1136 -0.2950
 7731TIP3    H144608   2.078   4.864  16.224  1.0528  0.7891  0.9912
 7731TIP3    H244609   2.130   5.006  16.210  0.8070  0.6737 -1.6124
 7732TIP3   OH244610   1.643   3.982  11.892  0.1086 -0.2311 -0.2931
 7732TIP3    H144611   1.664   4.001  11.800 -0.3970 -0.2229 -0.4088
 7732TIP3    H244612   1.576   4.047  11.915 -0.4134 -0.7986 -0.1854
 7733TIP3   OH244613   5.824   4.286  13.984  0.1862  0.3052 -0.0017
 7733TIP3    H144614   5.877   4.346  14.036  0.3688 -3.0249  4.2318
 7733TIP3    H244615   5.733   4.310  14.004  0.2298  0.4072  0.0730
 7734TIP3   OH244616   1.551   1.954  11.190  0.1053 -0.8820 -0.1713
 7734TIP3    H144617   1.482   1.960  11.256  1.5655  0.2968  1.3594
 7734TIP3    H244618   1.541   2.034  11.138 -1.0021 -1.7772 -1.3665
 7735TIP3   OH244619   5.627   0.568   5.800 -0.2480  0.0211 -0.0953
 7735TIP3    H144620   5.661   0.580   5.889  0.4090 -0.1690 -0.3120
 7735TIP3    H244621   5.632   0.474   5.785 -2.1890 -0.2047  0.3597
 7736TIP3   OH244622   3.219   3.858   0.974  0.5590 -0.2276 -0.3205
 7736TIP3    H144623   3.195   3.776   0.931 -0.2928  0.0042 -0.3087
 7736TIP3    H244624   3.215   3.839   1.068 -1.1162  0.2047 -0.2783
 7737TIP3   OH244625   3.459   0.046   5.580  0.0588 -0.3579  0.1593
 7737TIP3    H144626   3.384   0.068   5.524 -0.9755 -0.7233  1.3626
 7737TIP3    H244627   3.499  -0.030   5.539  0.4773  0.5060 -1.1102
 7738TIP3   OH244628   2.547   4.968   2.858  0.0725 -0.2354  0.6953
 7738TIP3    H144629   2.622   4.985   2.801  1.1947 -2.5460  1.3344
 7738TIP3    H244630   2.473   4.958   2.797 -0.0294  3.0346  0.1153
 7739TIP3   OH244631   2.639   2.839   0.064  0.5787  0.2801 -0.1566
 7739TIP3    H144632   2.570   2.872   0.122  0.2299  2.7910 -1.8353
 7739TIP3    H244633   2.651   2.748   0.090 -1.6641  0.4535  1.7933
 7740TIP3   OH244634   4.127   0.894   2.293  0.1523  0.1468  0.3658
 7740TIP3    H144635   4.091   0.806   2.280  1.1746 -0.1155 -0.9211
 7740TIP3    H244636   4.157   0.893   2.384 -1.7962 -0.0659  1.0557
 7741TIP3   OH244637   3.310   4.051  11.908  0.5651  0.5141  0.3175
 7741TIP3    H144638   3.305   4.007  11.823  1.8168  0.0974  0.4418
 7741TIP3    H244639   3.225   4.095  11.917  0.7319  1.3231 -1.5650
 7742TIP3   OH244640   5.529   0.741  10.434 -0.1196  0.2867 -0.5629
 7742TIP3    H144641   5.438   0.715  10.446  0.2138 -0.2361  1.0376
 7742TIP3    H244642   5.574   0.661  10.406  0.4318 -0.3510  1.9087
 7743TIP3   OH244643   0.550   4.755   1.321 -0.0907  0.5268 -0.0323
 7743TIP3    H144644   0.516   4.723   1.238  0.9681  0.2117 -0.3587
 7743TIP3    H244645   0.587   4.677   1.363 -0.1275  0.7854  0.4891
 7744TIP3   OH244646   1.699   0.963  14.058 -0.4467 -0.5034 -0.3303
 7744TIP3    H144647   1.632   1.005  14.004  0.3198  1.7486  0.3516
 7744TIP3    H244648   1.686   0.869  14.044 -4.9861 -0.3312  1.2997
 7745TIP3   OH244649   0.533   2.744   0.721  0.0569 -0.1478  0.9069
 7745TIP3    H144650   0.586   2.798   0.662  0.2696  0.5849  1.7478
 7745TIP3    H244651   0.522   2.661   0.674  0.2322  0.4097 -0.1494
 7746TIP3   OH244652   3.596   4.335  17.041  0.6224 -0.6994 -0.1301
 7746TIP3    H144653   3.660   4.281  17.088 -0.0430 -1.3615  0.0362
 7746TIP3    H244654   3.625   4.330  16.949 -1.4409 -4.4651 -0.7908
 7747TIP3   OH244655   4.610   6.009  13.187  0.1802  0.3333 -1.2037
 7747TIP3    H144656   4.543   6.040  13.249 -0.8156 -0.7829 -1.6799
 7747TIP3    H244657   4.689   6.058  13.211 -0.1040 -0.1713  1.0711
 7748TIP3   OH244658   3.175   4.655  15.743 -0.2548 -0.6054  0.0900
 7748TIP3    H144659   3.226   4.622  15.668 -0.2015 -1.2212  0.3909
 7748TIP3    H244660   3.128   4.730  15.708  1.6310  0.6386  0.0351
 7749TIP3   OH244661   2.739   3.476  16.738  0.0353  0.2470  0.9235
 7749TIP3    H144662   2.785   3.493  16.821  2.9828 -0.6959 -0.3842
 7749TIP3    H244663   2.769   3.389  16.712 -0.9602  0.4605 -1.0539
 7750TIP3   OH244664   4.016   3.607  12.245 -0.1823  0.7443  0.0526
 7750TIP3    H144665   4.007   3.633  12.337  2.0043  0.5249  0.3921
 7750TIP3    H244666   3.995   3.685  12.195  0.0779  1.3106  0.8126
 7751TIP3   OH244667   1.993   2.146  12.765 -0.0173  0.0078  0.3126
 7751TIP3    H144668   2.074   2.123  12.810 -0.6216 -1.6871  0.6166
 7751TIP3    H244669   2.019   2.156  12.673  0.8495  1.4493  0.6705
 7752TIP3   OH244670   5.422   2.690  16.449 -0.0160 -0.6365 -0.8601
 7752TIP3    H144671   5.326   2.688  16.446 -0.0057 -0.5641 -1.2619
 7752TIP3    H244672   5.446   2.605  16.488 -0.1890 -1.4588 -2.4865
 7753TIP3   OH244673   0.812   5.465  16.414 -0.2945  0.1083  1.4065
 7753TIP3    H144674   0.729   5.476  16.368 -0.1363  0.8103  1.2708
 7753TIP3    H244675   0.845   5.379  16.385  0.4523  1.0942 -0.8930
 7754TIP3   OH244676   6.343   5.225  15.985 -0.2941 -0.0138  0.2631
 7754TIP3    H144677   6.396   5.273  15.921  0.8625 -2.5326 -0.8229
 7754TIP3    H244678   6.340   5.282  16.062  1.5838  1.4523 -0.6694
 7755TIP3   OH244679   2.210   2.584   0.390 -0.0321 -0.0502  0.1782
 7755TIP3    H144680   2.155   2.592   0.468  0.1084 -1.4370  0.4474
 7755TIP3    H244681   2.296   2.615   0.418 -0.7266  2.5297 -0.3623
 7756TIP3   OH244682   5.795   1.418  16.584 -0.2706 -0.3250 -0.0083
 7756TIP3    H144683   5.767   1.425  16.493  0.2308  1.0339 -0.0727
 7756TIP3    H244684   5.815   1.508  16.611  0.7947 -0.8453  1.0619
 7757TIP3   OH244685   3.101   5.502   2.803  0.1030  0.5827  0.1403
 7757TIP3    H144686   3.078   5.416   2.769  1.5112 -0.2246  1.1368
 7757TIP3    H244687   3.178   5.487   2.858  0.7198  2.5593 -0.0833
 7758TIP3   OH244688   5.585   5.955   3.083  0.7702  0.0572  0.4442
 7758TIP3    H144689   5.560   5.988   2.997  0.0023 -0.1561  0.5842
 7758TIP3    H244690   5.530   5.878   3.097 -2.4328  2.5086  2.9948
 7759TIP3   OH244691   1.365   2.213   4.141  0.1757 -0.1670  0.0742
 7759TIP3    H144692   1.299   2.226   4.073 -0.0265 -1.4483  0.0047
 7759TIP3    H244693   1.428   2.152   4.102  1.9336  1.6945 -0.2081
 7760TIP3   OH244694   1.359   5.074   0.906  0.3864 -0.3345 -0.8096
 7760TIP3    H144695   1.432   5.135   0.921  0.6287 -0.5296 -1.2012
 7760TIP3    H244696   1.319   5.063   0.993  0.2745  0.4630 -0.7519
 7761TIP3   OH244697   2.278   2.824  14.289  0.6962  0.3173 -0.0694
 7761TIP3    H144698   2.368   2.852  14.305 -0.0292  1.6379  2.1118
 7761TIP3    H244699   2.236   2.901  14.250  0.2916  0.0251 -0.2131
 7762TIP3   OH244700   4.457   0.057  11.553 -0.2524  0.4084 -0.2952
 7762TIP3    H144701   4.551   0.069  11.568 -0.5266  0.4409  1.5931
 7762TIP3    H244702   4.415   0.120  11.611 -1.4701 -1.0909  0.5310
 7763TIP3   OH244703   2.186   5.867   2.616 -0.3609  0.0211 -0.2771
 7763TIP3    H144704   2.158   5.818   2.539 -0.3703 -0.6060  0.1209
 7763TIP3    H244705   2.257   5.815   2.653 -2.4635 -1.4813  1.9935
 7764TIP3   OH244706   1.263   0.776   5.884  0.2831 -0.2976 -0.0697
 7764TIP3    H144707   1.172   0.748   5.881  0.3919 -0.6118 -1.0739
 7764TIP3    H244708   1.268   0.849   5.823  0.3872  0.7616  1.1738
 7765TIP3   OH244709   6.184   6.658  12.780 -0.3850  0.6396  0.2015
 7765TIP3    H144710   6.267   6.618  12.807 -1.3870 -0.8681  1.2298
 7765TIP3    H244711   6.203   6.752  12.775  1.5194  0.2810 -0.1634
 7766TIP3   OH244712   4.343   2.646  13.777 -0.4248 -0.3262 -0.1809
 7766TIP3    H144713   4.387   2.584  13.835  0.9511  1.7847  1.1512
 7766TIP3    H244714   4.318   2.718  13.833 -1.3206  0.6943 -1.8054
 7767TIP3   OH244715   0.816   2.430  10.872  0.3010  0.1422  0.3632
 7767TIP3    H144716   0.838   2.476  10.791 -2.6250  0.1293 -0.5804
 7767TIP3    H244717   0.749   2.367  10.846 -0.1673 -0.4151  2.6723
 7768TIP3   OH244718   6.147   1.242   3.061  0.0912  0.3823 -0.3558
 7768TIP3    H144719   6.203   1.196   2.998  0.5119  1.4164 -0.7605
 7768TIP3    H244720   6.198   1.244   3.142  0.1982  0.4237 -0.4252
 7769TIP3   OH244721   3.855   0.160   1.792 -0.0831 -0.2725 -0.0592
 7769TIP3    H144722   3.901   0.143   1.710  0.1604 -0.7157  0.1713
 7769TIP3    H244723   3.870   0.253   1.809  2.1165 -0.7411  0.8648
 7770TIP3   OH244724   2.015   5.808  11.214 -0.4746  0.2555 -0.2997
 7770TIP3    H144725   1.962   5.775  11.286  0.0601  0.1050  0.0264
 7770TIP3    H244726   1.966   5.883  11.180  0.3384  1.7385  1.6399
 7771TIP3   OH244727   0.844   2.125   1.119  0.1509  0.4976  0.0352
 7771TIP3    H144728   0.763   2.159   1.082  1.2433  1.3854 -1.6616
 7771TIP3    H244729   0.859   2.043   1.073  1.5414  1.6282 -1.6468
 7772TIP3   OH244730   2.224   2.873  12.437 -0.1253  0.1024  0.2759
 7772TIP3    H144731   2.309   2.830  12.430 -0.6342 -0.8840 -0.1458
 7772TIP3    H244732   2.169   2.808  12.481 -0.7353  0.6154  0.2838
 7773TIP3   OH244733   3.465   3.435  12.353 -0.0658  0.1592  0.0297
 7773TIP3    H144734   3.416   3.497  12.408 -0.5213  1.2580 -1.5617
 7773TIP3    H244735   3.426   3.350  12.374 -0.5126  0.5984  1.0812
 7774TIP3   OH244736   0.159   1.549  12.564  0.2700 -0.4224  0.3119
 7774TIP3    H144737   0.133   1.599  12.641  0.2029 -0.5557  0.3765
 7774TIP3    H244738   0.139   1.607  12.490  1.5819  0.2452  0.4568
 7775TIP3   OH244739   2.327   5.098   3.020 -0.4769  0.5088 -0.4708
 7775TIP3    H144740   2.248   5.134   2.978 -1.4014  1.1743  1.6735
 7775TIP3    H244741   2.398   5.119   2.960 -1.6559  1.7966 -1.4827
 7776TIP3   OH244742   4.686   3.659   4.820  0.2083  0.6578  0.4567
 7776TIP3    H144743   4.629   3.605   4.875  0.2101 -1.4797 -1.4755
 7776TIP3    H244744   4.682   3.746   4.860 -3.8853  0.4949  0.8485
 7777TIP3   OH244745   1.826   4.101   3.000  0.1970  0.5002 -0.0574
 7777TIP3    H144746   1.857   4.153   2.926 -3.1419  0.5760 -1.5960
 7777TIP3    H244747   1.905   4.064   3.039  2.1814  1.2616 -3.0503
 7778TIP3   OH244748   1.824   1.618  14.870  0.1465  0.4312 -0.1774
 7778TIP3    H144749   1.892   1.621  14.936  0.2367 -0.2716 -0.2310
 7778TIP3    H244750   1.794   1.527  14.870 -0.3415  0.5847 -0.6038
 7779TIP3   OH244751   6.543   1.493   1.103 -0.0275 -0.0298  0.2884
 7779TIP3    H144752   6.489   1.543   1.042 -0.9313  0.4735  1.4632
 7779TIP3    H244753   6.613   1.553   1.128 -0.2716  0.1504  0.5558
 7780TIP3   OH244754   3.731   6.094   0.405 -0.0460 -0.0195  0.4446
 7780TIP3    H144755   3.682   6.063   0.481 -0.2273  0.3506  0.4763
 7780TIP3    H244756   3.821   6.099   0.435 -0.3977  2.1962  1.2935
 7781TIP3   OH244757   3.939   3.011   1.044  0.0563 -0.3050  0.0350
 7781TIP3    H144758   3.966   3.006   1.136 -1.2700 -1.2109  0.4181
 7781TIP3    H244759   3.907   3.100   1.032  0.1489 -0.2125  0.4792
 7782TIP3   OH244760   1.125   6.352  13.304  0.0912  0.4392  0.2046
 7782TIP3    H144761   1.034   6.377  13.319 -0.7938 -0.8265 -2.5529
 7782TIP3    H244762   1.174   6.434  13.315 -1.3295  1.1293  1.7843
 7783TIP3   OH244763   5.072   2.445  16.066 -0.2618 -0.7323 -0.2903
 7783TIP3    H144764   5.126   2.473  16.140 -2.6296 -0.6507  1.5518
 7783TIP3    H244765   5.045   2.356  16.089 -1.2387 -0.6104 -0.9136
 7784TIP3   OH244766   5.362   6.200  13.990  0.0168  0.3308 -0.3540
 7784TIP3    H144767   5.336   6.170  14.077 -0.1219 -1.1515 -0.8888
 7784TIP3    H244768   5.423   6.133  13.958  0.9208  1.4079 -0.9724
 7785TIP3   OH244769   3.321   2.041  15.929  0.5446  0.2289 -0.4709
 7785TIP3    H144770   3.416   2.040  15.939  0.4575 -0.4166  0.4760
 7785TIP3    H244771   3.293   1.958  15.968 -0.3212 -0.0674 -1.6767
 7786TIP3   OH244772   2.195   3.642   4.451 -0.1663 -0.8745 -0.2670
 7786TIP3    H144773   2.200   3.702   4.526 -1.9047 -1.7214  0.5618
 7786TIP3    H244774   2.218   3.556   4.487 -1.8519 -1.4404 -0.4951
 7787TIP3   OH244775   6.354   6.657   5.119  0.0800  0.0488 -0.0486
 7787TIP3    H144776   6.423   6.714   5.087  0.3173  0.2833  0.8584
 7787TIP3    H244777   6.335   6.599   5.046  0.1802  0.9664 -0.8111
 7788TIP3   OH244778   4.723   5.701   2.427  0.2334 -0.3824  0.3815
 7788TIP3    H144779   4.779   5.700   2.349  0.0313  1.7391  0.1696
 7788TIP3    H244780   4.768   5.643   2.489  3.3421  2.0616  0.6403
 7789TIP3   OH244781   4.097   6.617  13.364  0.0180  0.6043 -0.1463
 7789TIP3    H144782   4.130   6.536  13.325 -0.1240  0.6600 -0.3781
 7789TIP3    H244783   4.002   6.608  13.362 -0.0538  1.5070 -1.7171
 7790TIP3   OH244784   5.467   2.430  16.523 -0.9772 -0.1899  0.0828
 7790TIP3    H144785   5.516   2.349  16.516 -1.2195 -0.2655 -0.8461
 7790TIP3    H244786   5.478   2.457  16.614 -0.4166 -0.9546  0.2489
 7791TIP3   OH244787   0.653   1.010  14.430  0.4076 -0.1840 -0.3689
 7791TIP3    H144788   0.721   1.078  14.422  1.0756 -0.8511 -0.5504
 7791TIP3    H244789   0.606   1.014  14.347 -0.0753  0.5804 -0.0704
 7792TIP3   OH244790   6.654   5.876  14.452  0.7399 -0.2483  0.6043
 7792TIP3    H144791   6.697   5.794  14.428  1.3654  0.2995 -0.2355
 7792TIP3    H244792   6.565   5.867  14.419  0.6964 -0.7354  0.8492
 7793TIP3   OH244793   6.277   5.777  17.190  0.0198 -0.7101  0.0550
 7793TIP3    H144794   6.345   5.784  17.123  0.6378 -4.7132  0.0164
 7793TIP3    H244795   6.310   5.831  17.263  2.0242 -0.6216 -0.8438
 7794TIP3   OH244796   6.523   4.694  16.042  0.2119  0.1572  0.5410
 7794TIP3    H144797   6.494   4.767  15.987 -0.6113 -0.5004  0.0848
 7794TIP3    H244798   6.618   4.694  16.032  0.0154 -1.3844 -2.8502
 7795TIP3   OH244799   2.659   5.351  10.995  0.2483  0.6554  0.0051
 7795TIP3    H144800   2.688   5.442  11.008 -1.7788  1.1569  1.7116
 7795TIP3    H244801   2.576   5.359  10.948  0.9849 -0.4720 -1.5389
 7796TIP3   OH244802   6.623   5.003  13.051 -0.4215 -0.4908 -0.2993
 7796TIP3    H144803   6.536   5.042  13.041 -0.7225 -1.1365 -0.2931
 7796TIP3    H244804   6.663   5.051  13.123  0.5101  2.0201 -2.3189
 7797TIP3   OH244805   3.613   1.874  17.163  0.2690  0.2740  0.6184
 7797TIP3    H144806   3.526   1.854  17.197  0.6272 -0.9630  0.8542
 7797TIP3    H244807   3.648   1.939  17.224 -0.3553  0.5163  0.7217
 7798TIP3   OH244808   2.704   5.161  15.338  0.1779 -0.7139  0.3121
 7798TIP3    H144809   2.677   5.083  15.385 -0.6181 -0.0823  0.9448
 7798TIP3    H244810   2.665   5.233  15.388  1.6593  0.1525  0.2894
 7799TIP3   OH244811   0.011   1.229   6.149  0.4460 -0.2762 -0.4607
 7799TIP3    H144812  -0.010   1.323   6.149  1.2298 -0.0102 -3.2909
 7799TIP3    H244813  -0.069   1.187   6.181 -1.0484  1.2388 -1.9801
 7800TIP3   OH244814   0.664   0.791  13.743  0.0571 -0.2646  0.0074
 7800TIP3    H144815   0.630   0.861  13.688  1.5161  1.0243  0.6697
 7800TIP3    H244816   0.639   0.816  13.832 -0.7906 -1.4439  0.1286
 7801TIP3   OH244817   2.700   3.813  16.520 -0.7832  0.2354 -0.3606
 7801TIP3    H144818   2.718   3.724  16.492  0.0744  0.8468 -1.8614
 7801TIP3    H244819   2.772   3.835  16.579 -0.5598  0.2086 -0.6231
 7802TIP3   OH244820   1.926   4.168  15.166  0.4097 -0.6930 -0.4338
 7802TIP3    H144821   1.912   4.094  15.107 -1.0572  0.4348 -1.5812
 7802TIP3    H244822   2.021   4.173  15.177  0.5229 -2.9535 -0.0021
 7803TIP3   OH244823   2.214   2.650  14.499  0.0263  0.4662  0.0489
 7803TIP3    H144824   2.212   2.558  14.473 -0.7020  0.2856  0.7179
 7803TIP3    H244825   2.232   2.697  14.417 -1.0144 -0.1770 -0.5741
 7804TIP3   OH244826   2.834   5.963  14.795 -0.0098  0.5307  0.2997
 7804TIP3    H144827   2.754   6.004  14.762  0.4618  0.0590 -1.5478
 7804TIP3    H244828   2.803   5.900  14.861 -0.7270  3.8366  3.4518
 7805TIP3   OH244829   0.522   1.914  12.244  0.1241 -0.3152  0.2926
 7805TIP3    H144830   0.566   1.958  12.316 -1.0206  0.3276  0.6272
 7805TIP3    H244831   0.552   1.824  12.249  1.9254  0.2369  0.0655
 7806TIP3   OH244832   0.127   1.857   3.851  0.3172 -0.5784  0.2616
 7806TIP3    H144833   0.143   1.937   3.801 -3.3528  1.6508  2.1919
 7806TIP3    H244834   0.059   1.811   3.801 -1.4666  0.3574  1.6763
 7807TIP3   OH244835   0.841   0.784  13.520 -0.7657  0.0750  0.1387
 7807TIP3    H144836   0.784   0.843  13.571  2.6996  1.5846  2.6986
 7807TIP3    H244837   0.865   0.715  13.582  0.2427 -0.4328 -0.7833
 7808TIP3   OH244838   5.426   1.281   2.877 -0.0766  0.2987 -0.1237
 7808TIP3    H144839   5.500   1.234   2.913 -0.0169 -0.0233 -0.6580
 7808TIP3    H244840   5.355   1.265   2.938  0.2945  0.6261  0.4013
 7809TIP3   OH244841   4.959   5.678  12.236 -0.9682  0.0369  0.2350
 7809TIP3    H144842   4.879   5.677  12.183 -0.9914  0.5843  0.2461
 7809TIP3    H244843   4.943   5.614  12.305 -1.6263  0.5359  0.5594
 7810TIP3   OH244844   5.138   1.648  11.783 -0.0840  0.1189  0.3708
 7810TIP3    H144845   5.098   1.562  11.776 -0.7262  0.4845 -0.8232
 7810TIP3    H244846   5.216   1.635  11.836 -0.4699 -1.0828  0.6611
 7811TIP3   OH244847   6.039   5.541  13.858 -0.5299 -0.2277 -0.1214
 7811TIP3    H144848   6.053   5.502  13.772 -0.2232 -2.6011  0.9220
 7811TIP3    H244849   5.954   5.583  13.851 -0.7543 -0.8396 -1.4438
 7812TIP3   OH244850   6.445   5.845   3.251 -0.3257 -0.6554 -0.3296
 7812TIP3    H144851   6.401   5.928   3.232 -1.9147 -1.3963 -0.0532
 7812TIP3    H244852   6.477   5.855   3.340 -2.2123 -0.9872  0.4364
 7813TIP3   OH244853   0.513   1.691   0.924 -0.6184  0.8064  0.0837
 7813TIP3    H144854   0.518   1.786   0.911 -0.1588  0.8154  0.2990
 7813TIP3    H244855   0.554   1.654   0.845 -0.0591  0.8096  0.3647
 7814TIP3   OH244856   3.643   3.110  13.020  0.6102 -0.1534  0.0463
 7814TIP3    H144857   3.549   3.104  13.035  0.3885 -0.2104 -1.2418
 7814TIP3    H244858   3.676   3.022  13.038  0.2813 -0.3541 -0.3232
 7815TIP3   OH244859   1.354   0.258  16.246 -0.1993  0.7269 -0.9406
 7815TIP3    H144860   1.325   0.276  16.156 -0.4909 -0.5579 -1.1168
 7815TIP3    H244861   1.274   0.253  16.297 -0.0004  2.2747 -0.4202
 7816TIP3   OH244862   3.140   3.018   5.375 -0.1643 -0.6950 -0.0590
 7816TIP3    H144863   3.064   2.971   5.409 -1.2821 -1.3033 -3.0833
 7816TIP3    H244864   3.210   2.954   5.376 -0.3840 -0.9358  0.3043
 7817TIP3   OH244865   5.034   2.082  13.300 -0.0202  0.3738 -0.1790
 7817TIP3    H144866   4.972   2.154  13.289  1.0932  1.6585  1.3941
 7817TIP3    H244867   4.980   2.003  13.301 -1.5846  1.4012  0.6260
 7818TIP3   OH244868   4.398   0.057   4.249 -0.7569  0.2665 -0.6023
 7818TIP3    H144869   4.329   0.015   4.197 -0.6137  0.6977 -1.1544
 7818TIP3    H244870   4.352   0.121   4.303 -0.6658  1.5706 -2.0049
 7819TIP3   OH244871   0.352   0.478   2.639  0.4892  0.4186 -0.0449
 7819TIP3    H144872   0.368   0.442   2.726  0.8241 -0.3713 -0.4173
 7819TIP3    H244873   0.408   0.555   2.634  0.1906  0.6822  0.5673
 7820TIP3   OH244874   1.429   5.051  14.669 -0.1084  0.1301 -0.3193
 7820TIP3    H144875   1.382   5.020  14.746 -1.0617  0.8699 -0.5886
 7820TIP3    H244876   1.519   5.020  14.682 -0.3329 -0.0583  0.9042
 7821TIP3   OH244877   3.646   2.613   4.460  0.0422  0.5001 -0.6180
 7821TIP3    H144878   3.631   2.701   4.496 -0.0474 -0.5386  2.1244
 7821TIP3    H244879   3.560   2.571   4.463  0.2096  0.0924 -1.2957
 7822TIP3   OH244880   6.199   3.288   0.937  0.6720  0.3288  0.2394
 7822TIP3    H144881   6.126   3.345   0.963  0.5296  1.3694 -2.2250
 7822TIP3    H244882   6.198   3.289   0.842  1.7090 -2.5404  0.1007
 7823TIP3   OH244883   5.628   1.685  16.593 -1.0898 -0.4991  0.3074
 7823TIP3    H144884   5.577   1.608  16.569 -0.8930 -0.3469 -0.6215
 7823TIP3    H244885   5.668   1.715  16.511  0.9726 -0.9377  1.1042
 7824TIP3   OH244886   3.814   1.438   4.656 -0.4338  0.4267  0.4403
 7824TIP3    H144887   3.875   1.490   4.708  0.3486 -0.5381  0.5178
 7824TIP3    H244888   3.797   1.492   4.578 -0.4219  1.2206  0.9763
 7825TIP3   OH244889   4.502   1.940  16.907 -0.1343 -0.3876 -0.2422
 7825TIP3    H144890   4.493   2.035  16.921  2.9679  0.0355 -0.3885
 7825TIP3    H244891   4.553   1.933  16.826  2.5891 -2.0143  1.4809
 7826TIP3   OH244892   2.601   5.782   2.889  0.0053 -0.2504  0.1310
 7826TIP3    H144893   2.684   5.733   2.893  1.3207  1.9149  1.1853
 7826TIP3    H244894   2.541   5.732   2.944  0.6836 -1.6876 -0.3756
 7827TIP3   OH244895   4.590   5.356   5.546 -0.3238  0.1059  0.1597
 7827TIP3    H144896   4.657   5.385   5.608  0.3142  0.3820 -0.6359
 7827TIP3    H244897   4.630   5.282   5.500 -0.9654 -0.3928  0.3904
 7828TIP3   OH244898   3.163   2.117  11.702  0.3716  0.1896 -0.4421
 7828TIP3    H144899   3.231   2.053  11.720  1.5028  0.7065 -2.6081
 7828TIP3    H244900   3.181   2.189  11.763  0.4969 -0.5331  0.3889
 7829TIP3   OH244901   0.784   5.228  12.689  0.2330  0.2060 -0.2082
 7829TIP3    H144902   0.722   5.196  12.755  2.0912 -2.2974  0.4373
 7829TIP3    H244903   0.752   5.192  12.606 -1.4353  2.3891 -0.6095
 7830TIP3   OH244904   1.774   3.602  12.173 -0.8189 -0.1718 -0.6582
 7830TIP3    H144905   1.785   3.696  12.162  3.1800 -0.1775  1.7127
 7830TIP3    H244906   1.834   3.563  12.109 -0.2746 -0.9684  0.3030
 7831TIP3   OH244907   2.733   0.141  17.257  0.1493  0.2586  0.0810
 7831TIP3    H144908   2.665   0.074  17.254 -0.9245  1.3288 -0.5135
 7831TIP3    H244909   2.802   0.104  17.312 -0.9273 -0.8385  0.7198
 7832TIP3   OH244910   6.717   6.485   0.169 -0.2764 -0.6113  0.3126
 7832TIP3    H144911   6.811   6.487   0.155 -0.2604 -1.5619  0.2667
 7832TIP3    H244912   6.693   6.393   0.167 -1.0574 -0.4600  1.3893
 7833TIP3   OH244913   3.022   0.286  12.064 -0.2327  0.2313  0.6179
 7833TIP3    H144914   2.963   0.359  12.082  0.4825  1.0427 -0.1851
 7833TIP3    H244915   3.110   0.323  12.073  0.1456 -0.5887  0.4148
 7834TIP3   OH244916   0.914   0.399  14.662  0.0821 -0.6597 -0.1515
 7834TIP3    H144917   0.882   0.349  14.737 -1.7776 -0.1347 -0.5409
 7834TIP3    H244918   0.863   0.480  14.664 -0.5548 -0.9379 -2.3829
 7835TIP3   OH244919   0.548   0.396   1.939 -0.0151 -0.3697 -0.2176
 7835TIP3    H144920   0.610   0.345   1.991  0.1669 -0.7759 -0.8209
 7835TIP3    H244921   0.533   0.343   1.861  0.2686  0.5530 -0.9162
 7836TIP3   OH244922   4.263   4.147  15.839 -0.0489  0.0444  0.6796
 7836TIP3    H144923   4.209   4.071  15.817  1.9651 -1.2061 -0.2626
 7836TIP3    H244924   4.220   4.185  15.916 -0.8185 -2.3904  1.5631
 7837TIP3   OH244925   0.003   4.487  11.413 -0.0461 -0.0035 -0.1197
 7837TIP3    H144926   0.072   4.494  11.479 -0.7722  3.1321  0.4381
 7837TIP3    H244927  -0.078   4.473  11.463 -0.1760 -1.1818 -0.6156
 7838TIP3   OH244928   3.064   0.038  11.904  0.4236  0.2133 -0.1194
 7838TIP3    H144929   3.046   0.078  11.988 -1.1178 -0.6423 -0.0102
 7838TIP3    H244930   3.095   0.110  11.849 -0.0097  1.0735  0.7382
 7839TIP3   OH244931   1.815   6.303  16.933 -0.1268  0.2647 -0.2020
 7839TIP3    H144932   1.906   6.297  16.904 -0.9166 -1.1510 -2.7375
 7839TIP3    H244933   1.803   6.395  16.955  2.0515  0.3592  0.8066
 7840TIP3   OH244934   3.372   1.491   6.305 -0.2612  0.4134 -0.5161
 7840TIP3    H144935   3.414   1.433   6.242 -0.3137  1.4577 -1.5485
 7840TIP3    H244936   3.404   1.579   6.283  0.7821  0.7017  1.7838
 7841TIP3   OH244937   3.485   5.121  13.042 -0.2130  0.3316 -0.5242
 7841TIP3    H144938   3.472   5.046  12.983  1.3077 -0.1554 -0.2775
 7841TIP3    H244939   3.407   5.120  13.098  0.4629 -2.0431  0.5033
 7842TIP3   OH244940   5.023   2.542  10.585 -0.8159  0.5512  0.1442
 7842TIP3    H144941   4.936   2.541  10.544 -0.0736 -3.6546 -1.8054
 7842TIP3    H244942   5.009   2.503  10.671 -0.7752 -1.2010 -0.6094
 7843TIP3   OH244943   4.126   4.931   5.780 -0.4562  0.4794 -0.2615
 7843TIP3    H144944   4.202   4.941   5.837 -0.3897  2.6282 -0.6639
 7843TIP3    H244945   4.149   4.857   5.723  0.6264  0.0639  0.6785
 7844TIP3   OH244946   6.467   3.526  15.012  0.2071 -0.0289 -0.4990
 7844TIP3    H144947   6.412   3.494  14.940 -1.5020 -0.8529  1.0933
 7844TIP3    H244948   6.541   3.567  14.968 -2.0007  1.8615 -2.8280
 7845TIP3   OH244949   4.822   0.017  13.617 -0.1212  0.2032  0.8960
 7845TIP3    H144950   4.753   0.003  13.552 -0.7132  0.3335  1.4827
 7845TIP3    H244951   4.789  -0.026  13.696  0.6214 -0.0140  1.0863
 7846TIP3   OH244952   6.502   0.336  12.698  0.1400 -0.0945 -0.3092
 7846TIP3    H144953   6.545   0.258  12.733 -1.5648 -0.7328  0.4399
 7846TIP3    H244954   6.574   0.389  12.664  1.7183 -0.4135  2.2332
 7847TIP3   OH244955   6.735   3.987  14.367 -0.2600 -1.0096  0.4434
 7847TIP3    H144956   6.643   3.986  14.394 -1.1510 -1.6025 -2.2264
 7847TIP3    H244957   6.770   4.069  14.403 -2.2774 -0.0089  0.2815
 7848TIP3   OH244958   1.772   1.438   5.190 -0.0804 -0.4181  0.2099
 7848TIP3    H144959   1.794   1.371   5.254 -0.9048 -1.3717 -0.4853
 7848TIP3    H244960   1.725   1.505   5.239  1.9347  0.3772  1.1941
 7849TIP3   OH244961   4.344   2.366  13.883 -0.1310 -0.3939  0.5673
 7849TIP3    H144962   4.438   2.376  13.868 -0.2454  0.3692  0.3131
 7849TIP3    H244963   4.337   2.290  13.941  0.5537 -1.2405 -0.4320
 7850TIP3   OH244964   2.784   2.681   5.183 -0.3503  0.0003  1.0114
 7850TIP3    H144965   2.753   2.590   5.180  0.2930 -0.2476  1.4956
 7850TIP3    H244966   2.791   2.708   5.092  1.2621 -1.0819  0.7708
 7851TIP3   OH244967   0.043   0.290   5.884  0.9518 -0.0066  0.4112
 7851TIP3    H144968   0.049   0.385   5.884  1.9424 -0.0438  1.5248
 7851TIP3    H244969  -0.042   0.271   5.844  0.5469  1.3605  0.5802
 7852TIP3   OH244970   3.043   3.782  14.050  0.0759  0.1291 -0.6746
 7852TIP3    H144971   2.997   3.700  14.034  2.4712 -2.0951  2.5669
 7852TIP3    H244972   3.119   3.779  13.991  0.7703 -0.6496  0.2125
 7853TIP3   OH244973   1.216   0.276  16.513  0.2992 -0.0298  0.2703
 7853TIP3    H144974   1.150   0.294  16.581  1.7903 -0.9032  2.0380
 7853TIP3    H244975   1.188   0.193  16.474  0.9773 -1.1045  1.9360
 7854TIP3   OH244976   1.251   5.396  13.341 -0.3081 -0.0043 -0.1079
 7854TIP3    H144977   1.189   5.468  13.326  1.7952  2.0549  0.4079
 7854TIP3    H244978   1.200   5.317  13.325 -2.8365  1.5681 -0.4644
 7855TIP3   OH244979   6.463   3.119   4.876 -0.0618  0.3064 -0.0390
 7855TIP3    H144980   6.487   3.031   4.904  1.0127  0.7487  0.5115
 7855TIP3    H244981   6.367   3.120   4.880 -0.0374 -0.3479  1.5312
 7856TIP3   OH244982   2.923   5.680   4.664 -0.1940  0.5161 -0.2295
 7856TIP3    H144983   2.960   5.767   4.649 -1.9094  1.0864 -1.3467
 7856TIP3    H244984   2.838   5.696   4.704 -0.9254 -0.6118 -1.2761
 7857TIP3   OH244985   5.021   1.452   2.893 -0.2089 -0.0626 -0.0068
 7857TIP3    H144986   5.002   1.466   2.800 -1.5397  1.1102  0.4103
 7857TIP3    H244987   4.950   1.396   2.924 -0.3729  0.4483  0.5495
 7858TIP3   OH244988   2.180   2.550  12.056 -0.2016  0.5619 -0.2491
 7858TIP3    H144989   2.146   2.559  12.144  0.7330  0.7000  0.1091
 7858TIP3    H244990   2.267   2.511  12.067 -0.4937 -0.4057 -1.1787
 7859TIP3   OH244991   3.206   3.964  14.422  0.1683 -0.7632  0.2797
 7859TIP3    H144992   3.119   3.944  14.458 -1.1811  0.6591 -1.9088
 7859TIP3    H244993   3.255   3.999  14.497 -1.7428  0.0522  1.2350
 7860TIP3   OH244994   2.648   3.938  14.107  0.1921  0.1034 -0.4361
 7860TIP3    H144995   2.566   3.910  14.066  1.2710 -1.3711 -1.7092
 7860TIP3    H244996   2.669   3.869  14.169  1.5578 -0.7225 -1.7395
 7861TIP3   OH244997   0.679   0.512  14.822 -0.3704  0.3224  0.3859
 7861TIP3    H144998   0.630   0.450  14.876 -0.2734  0.3818  0.5421
 7861TIP3    H244999   0.632   0.513  14.739 -0.5171  0.2268  0.4671
 7862TIP3   OH245000   0.041   0.279  10.839 -0.1106  0.2791  0.0074
 7862TIP3    H145001  -0.013   0.354  10.865  1.1509  0.6885  1.6244
 7862TIP3    H245002   0.131   0.312  10.842  0.3093 -0.5358 -2.0719
 7863TIP3   OH245003   1.051   1.943   2.769 -0.3457 -0.1455  0.0400
 7863TIP3    H145004   1.099   2.003   2.827  0.7537  0.1586 -1.1329
 7863TIP3    H245005   0.959   1.970   2.777 -0.2617 -0.2793  1.8024
 7864TIP3   OH245006   3.905   2.870   2.128  0.2373  0.5441 -0.1060
 7864TIP3    H145007   3.941   2.884   2.041 -2.3280  2.6750 -0.9532
 7864TIP3    H245008   3.822   2.824   2.113  1.3094 -2.1947  1.5757
 7865TIP3   OH245009   0.352   3.203   5.582  0.5152  0.2719  0.1945
 7865TIP3    H145010   0.356   3.190   5.487  2.3468  0.1383  0.2596
 7865TIP3    H245011   0.411   3.276   5.599  1.2043 -0.5187  1.3458
 7866TIP3   OH245012   4.578   3.490  15.573  0.3915  0.1088  0.2118
 7866TIP3    H145013   4.621   3.501  15.658  0.1693 -2.4681  0.7161
 7866TIP3    H245014   4.619   3.557  15.517  1.3504  1.1049  2.0102
 7867TIP3   OH245015   6.453   4.493   1.528 -0.1633 -0.4631  1.0197
 7867TIP3    H145016   6.423   4.414   1.573 -1.9106 -0.5660 -0.2265
 7867TIP3    H245017   6.480   4.552   1.599  2.9326 -2.7333  1.9386
 7868TIP3   OH245018   3.265   2.106   2.719  0.1087  0.3425 -0.0379
 7868TIP3    H145019   3.254   2.030   2.776 -0.0079  0.2869 -0.1343
 7868TIP3    H245020   3.253   2.181   2.776  0.1529  0.2872  0.0434
 7869TIP3   OH245021   5.805   1.655   0.948  0.4582  0.1921 -0.1310
 7869TIP3    H145022   5.723   1.698   0.921  0.0080  0.2000  1.1616
 7869TIP3    H245023   5.787   1.624   1.037  1.7137 -0.2334 -0.0115
 7870TIP3   OH245024   1.514   2.727  12.709 -0.3659 -0.1957  0.9423
 7870TIP3    H145025   1.502   2.633  12.696 -0.3564 -0.1584  0.6517
 7870TIP3    H245026   1.609   2.740  12.711 -0.3677 -0.2478  1.4071
 7871TIP3   OH245027   5.410   4.651  14.420 -0.0658  0.0097  0.1064
 7871TIP3    H145028   5.330   4.700  14.402  1.7013  3.3848  0.6527
 7871TIP3    H245029   5.480   4.715  14.412  2.5327 -2.5277  0.7296
 7872TIP3   OH245030   6.231   6.195  13.991 -0.7071 -0.2085 -0.5038
 7872TIP3    H145031   6.317   6.226  14.020 -1.1344  0.6138 -0.0666
 7872TIP3    H245032   6.216   6.116  14.043  1.0552 -2.1497 -2.7110
 7873TIP3   OH245033   2.232   6.480  15.794 -0.0038 -0.4224  0.7899
 7873TIP3    H145034   2.176   6.558  15.793 -0.4734 -0.7500  1.0249
 7873TIP3    H245035   2.204   6.431  15.871 -0.3630 -1.2884  0.1295
 7874TIP3   OH245036   3.020   1.600   3.451 -0.0618  0.0897  0.6508
 7874TIP3    H145037   3.092   1.545   3.481 -0.8535 -1.0083  0.6010
 7874TIP3    H245038   3.050   1.638   3.369  1.9485  2.7391  2.4201
 7875TIP3   OH245039   5.082   4.384   0.606  0.5483  0.2947 -0.2322
 7875TIP3    H145040   5.168   4.351   0.578  0.4896 -1.0530  1.0168
 7875TIP3    H245041   5.085   4.478   0.589  2.3427  0.3032 -0.0515
 7876TIP3   OH245042   4.601   4.513   2.224  0.0458  0.1113 -0.0351
 7876TIP3    H145043   4.625   4.494   2.134 -1.3478  0.0272 -0.4099
 7876TIP3    H245044   4.573   4.429   2.260 -2.2554  0.6044 -0.4765
 7877TIP3   OH245045   5.638   6.579   4.600  0.0647 -0.4553 -0.0217
 7877TIP3    H145046   5.608   6.609   4.686  0.8431 -0.7974  0.3820
 7877TIP3    H245047   5.611   6.649   4.540 -1.4011 -0.6898  0.3225
 7878TIP3   OH245048   4.371   5.535   6.017  0.3503 -0.6631 -0.0346
 7878TIP3    H145049   4.373   5.618   6.065  1.8766 -0.9544  0.4777
 7878TIP3    H245050   4.300   5.544   5.954 -0.5899  0.3866  1.1535
 7879TIP3   OH245051   4.104   5.676  16.523  0.1701 -0.3065  0.0514
 7879TIP3    H145052   4.094   5.586  16.555 -0.2662 -0.3070 -0.0809
 7879TIP3    H245053   4.062   5.676  16.437 -1.1353  0.3701  0.6608
 7880TIP3   OH245054   4.123   5.216   4.733  0.0869  0.0736 -0.1694
 7880TIP3    H145055   4.119   5.128   4.771 -0.3830  0.6680  1.1937
 7880TIP3    H245056   4.163   5.202   4.647  1.3865 -1.2817  0.5897
 7881TIP3   OH245057   3.004   0.093  13.006 -0.1764  0.0438  0.3476
 7881TIP3    H145058   2.944   0.157  12.967 -0.7618 -0.2976  0.6838
 7881TIP3    H245059   3.056   0.061  12.932 -0.9733 -0.2663 -0.0905
 7882TIP3   OH245060   1.124   3.380   6.035  0.3411 -0.2600 -0.2279
 7882TIP3    H145061   1.099   3.359   6.125  1.3141  0.1739  0.1637
 7882TIP3    H245062   1.157   3.298   5.999 -1.9214 -0.9441 -0.8905
 7883TIP3   OH245063   3.344   4.139   5.505 -0.0635 -0.5442  0.9716
 7883TIP3    H145064   3.324   4.106   5.593 -0.7984  0.4646  1.2032
 7883TIP3    H245065   3.279   4.208   5.490  0.8052  0.1215  0.1201
 7884TIP3   OH245066   1.335   1.966   0.752 -0.2585  0.6827 -0.3491
 7884TIP3    H145067   1.392   2.017   0.695 -0.4986 -0.5927 -1.7994
 7884TIP3    H245068   1.388   1.892   0.779 -0.8918  0.0294 -0.8720
 7885TIP3   OH245069   4.313   1.811   4.645  0.1187  0.0274  0.2343
 7885TIP3    H145070   4.227   1.844   4.670  0.2859  0.4561  0.2560
 7885TIP3    H245071   4.339   1.755   4.717  0.0029  0.1673  0.3854
 7886TIP3   OH245072   5.794   2.089   3.891  0.1851  0.4974  0.2201
 7886TIP3    H145073   5.771   2.009   3.938 -0.1617 -0.3511 -1.3268
 7886TIP3    H245074   5.825   2.149   3.959 -0.1545 -0.7214  1.4903
 7887TIP3   OH245075   3.944   4.783  10.666  0.2532 -0.5687  0.3949
 7887TIP3    H145076   3.899   4.854  10.711  2.6582  0.4517  1.3595
 7887TIP3    H245077   3.934   4.707  10.724  1.1150  0.0720  1.4136
 7888TIP3   OH245078   4.787   2.809   3.043  0.3251 -0.3025 -0.0869
 7888TIP3    H145079   4.787   2.831   3.137  1.3698 -1.9996  0.3653
 7888TIP3    H245080   4.699   2.776   3.026 -0.1358  0.7993  0.0705
 7889TIP3   OH245081   5.105   5.281   4.037 -0.3043 -0.3738  0.2823
 7889TIP3    H145082   5.010   5.271   4.037 -0.2509 -1.9009  2.8277
 7889TIP3    H245083   5.129   5.283   3.945 -2.6235 -2.4937 -0.4957
 7890TIP3   OH245084   5.762   2.665  12.840  0.3230 -0.0822  0.5262
 7890TIP3    H145085   5.775   2.757  12.814 -0.7921 -0.3287 -1.0802
 7890TIP3    H245086   5.802   2.659  12.926  0.3641  1.9387  0.7095
 7891TIP3   OH245087   0.676   5.616  14.982  0.0252  1.4190 -0.4010
 7891TIP3    H145088   0.707   5.533  14.945 -0.5906  0.8246  0.3692
 7891TIP3    H245089   0.586   5.623  14.951 -0.7985  0.4777  1.6096
 7892TIP3   OH245090   1.209   4.739  17.089 -0.9161  0.3727  0.3516
 7892TIP3    H145091   1.248   4.823  17.114 -2.5216  1.3316 -0.1843
 7892TIP3    H245092   1.277   4.675  17.107  0.9921  1.9651 -0.7324
 7893TIP3   OH245093   2.963   2.671  12.195 -1.0432 -0.2155 -0.2518
 7893TIP3    H145094   2.894   2.728  12.228  0.6066  1.3887  0.5873
 7893TIP3    H245095   3.020   2.728  12.144 -0.0192 -1.3876 -0.4826
 7894TIP3   OH245096   1.075   5.971  14.178 -0.2360 -0.3842  0.4399
 7894TIP3    H145097   1.108   5.964  14.088 -0.9949  0.9778  0.0290
 7894TIP3    H245098   0.999   6.029  14.171  1.0879  1.7077  2.3085
 7895TIP3   OH245099   0.239   5.514   5.861 -0.4596  0.2104 -0.4344
 7895TIP3    H145100   0.303   5.488   5.794 -0.0912  0.9894 -0.3909
 7895TIP3    H245101   0.282   5.495   5.944 -0.0902  1.1522 -0.3976
 7896TIP3   OH245102   0.594   4.926   4.765  0.8216 -0.0982 -0.9164
 7896TIP3    H145103   0.617   4.833   4.758 -0.2908 -0.4008 -0.6162
 7896TIP3    H245104   0.504   4.927   4.796  1.2004  1.1025  0.2565
 7897TIP3   OH245105   4.724   3.449  12.457 -0.3064  0.0199  0.2302
 7897TIP3    H145106   4.800   3.392  12.460  1.8667  2.6828 -0.2921
 7897TIP3    H245107   4.687   3.444  12.546  0.2721 -1.5022  0.4179
 7898TIP3   OH245108   5.679   5.892  14.351  0.3221  0.3606 -0.2260
 7898TIP3    H145109   5.737   5.869  14.424 -0.7363  1.6517  1.0888
 7898TIP3    H245110   5.662   5.809  14.307  0.6119 -0.5445  1.2936
 7899TIP3   OH245111   2.797   1.192  16.187 -0.0511  0.6531  0.3186
 7899TIP3    H145112   2.804   1.152  16.274  1.0154  1.0086  0.4056
 7899TIP3    H245113   2.784   1.285  16.205  1.6561  0.9597  0.1119
 7900TIP3   OH245114   6.244   0.352  12.598  0.3819  0.3380 -0.0219
 7900TIP3    H145115   6.191   0.370  12.676  0.3820 -2.2885  0.7026
 7900TIP3    H245116   6.333   0.344  12.631  0.4695 -0.1633 -0.3617
 7901TIP3   OH245117   6.243   1.840   4.328 -0.2056 -0.2899  0.1582
 7901TIP3    H145118   6.281   1.904   4.387  0.3168 -0.0889 -0.3860
 7901TIP3    H245119   6.266   1.871   4.240 -1.6235 -0.1457 -0.2008
 7902TIP3   OH245120   1.780   3.649   0.931  0.4699  0.3542 -0.1025
 7902TIP3    H145121   1.749   3.717   0.872  1.2460  0.3158 -0.5687
 7902TIP3    H245122   1.829   3.589   0.875 -1.1043 -1.1969  0.0974
 7903TIP3   OH245123   3.411   2.035   5.249  0.3218 -1.3373 -0.1961
 7903TIP3    H145124   3.419   1.945   5.280  0.5296 -1.4701 -0.6209
 7903TIP3    H245125   3.501   2.063   5.233  0.2148 -1.3887 -0.9684
 7904TIP3   OH245126   0.027   0.821  11.161 -0.5639  0.0934  0.1364
 7904TIP3    H145127   0.076   0.769  11.098 -1.8209  0.0858 -0.8821
 7904TIP3    H245128   0.093   0.853  11.223  0.3904 -1.7177  0.1102
 7905TIP3   OH245129   2.539   0.796  12.522 -0.2040  0.4156  1.0236
 7905TIP3    H145130   2.497   0.741  12.456  0.8784 -1.7675  2.0696
 7905TIP3    H245131   2.599   0.738  12.567  1.6447  2.6880  1.6633
 7906TIP3   OH245132   0.375   5.602   1.311 -0.3071  0.4049 -0.2716
 7906TIP3    H145133   0.357   5.631   1.221 -0.8913  0.4647 -0.1392
 7906TIP3    H245134   0.333   5.517   1.318 -0.3306  0.4359 -0.0321
 7907TIP3   OH245135   4.086   3.550  14.741 -0.2333  0.7094  0.2065
 7907TIP3    H145136   4.116   3.509  14.822  0.9790 -0.8591 -0.9582
 7907TIP3    H245137   4.166   3.560  14.689 -1.1767  0.2678 -1.3733
 7908TIP3   OH245138   4.455   6.571   1.892 -0.3654 -0.4404 -0.7597
 7908TIP3    H145139   4.433   6.645   1.949 -0.6636 -1.0923 -0.0046
 7908TIP3    H245140   4.454   6.607   1.804 -0.6129  0.4323 -0.4114
 7909TIP3   OH245141   0.332   1.994   5.210  0.3450  0.0850  0.2631
 7909TIP3    H145142   0.313   2.038   5.293  1.2522  0.5450  0.2372
 7909TIP3    H245143   0.391   1.923   5.234  0.5180  0.1473  0.0255
 7910TIP3   OH245144   5.968   1.144   5.054 -0.4187 -0.2004  0.7641
 7910TIP3    H145145   5.953   1.235   5.081 -1.0732 -0.6200  1.8506
 7910TIP3    H245146   5.905   1.093   5.105  1.5871 -1.5432  2.0244
 7911TIP3   OH245147   0.529   4.636  16.913  0.1583  0.0747  0.0641
 7911TIP3    H145148   0.506   4.709  16.970  1.4661  0.1743  0.4910
 7911TIP3    H245149   0.450   4.620  16.862 -0.3882  1.2849  0.4966
 7912TIP3   OH245150   2.856   1.744   2.699  0.2632  0.5024  0.0453
 7912TIP3    H145151   2.791   1.795   2.747  0.2477  1.9965 -1.4685
 7912TIP3    H245152   2.804   1.694   2.635  0.4280 -0.0466  0.3381
 7913TIP3   OH245153   4.053   4.401  13.713 -0.3723  0.6861 -0.2535
 7913TIP3    H145154   4.020   4.487  13.739 -0.1688  0.2546  1.6106
 7913TIP3    H245155   3.999   4.376  13.639 -1.0369  2.0383 -0.2617
 7914TIP3   OH245156   3.447   3.883   3.643  0.3301 -0.4076  0.2742
 7914TIP3    H145157   3.420   3.909   3.555  0.5567  1.2813  0.6703
 7914TIP3    H245158   3.530   3.837   3.630  1.4551  1.6461 -0.2722
 7915TIP3   OH245159   5.117   4.304  14.652 -0.2661  0.3851 -0.0926
 7915TIP3    H145160   5.081   4.259  14.728  4.5774 -2.2713  1.0605
 7915TIP3    H245161   5.153   4.386  14.687  2.4200 -1.0701  0.8080
 7916TIP3   OH245162   1.908   4.795   0.324 -0.5277  0.2611 -0.2461
 7916TIP3    H145163   1.903   4.811   0.230 -3.1501 -1.2134 -0.4488
 7916TIP3    H245164   1.998   4.767   0.339 -0.6620 -1.9017 -2.7934
 7917TIP3   OH245165   1.502   1.673  11.578  0.3470 -0.0094 -0.4151
 7917TIP3    H145166   1.515   1.754  11.628  0.4361 -1.1618  1.5468
 7917TIP3    H245167   1.412   1.678  11.547  0.2032  0.6515  0.0828
 7918TIP3   OH245168   4.125   5.209   0.355  0.1458 -0.2835  0.7629
 7918TIP3    H145169   4.091   5.225   0.267 -1.3294 -0.9828  1.1660
 7918TIP3    H245170   4.070   5.263   0.412  2.3551  1.7134  1.1271
 7919TIP3   OH245171   5.274   6.202  16.744 -0.3870 -0.4647 -0.4667
 7919TIP3    H145172   5.240   6.176  16.830  0.5715 -1.8917 -0.4849
 7919TIP3    H245173   5.254   6.296  16.738  0.3077 -0.1130  1.6867
 7920TIP3   OH245174   2.891   5.390   3.110  0.0719  0.3916 -0.0102
 7920TIP3    H145175   2.864   5.481   3.097 -1.9372 -0.1697 -0.1198
 7920TIP3    H245176   2.887   5.352   3.022 -0.4745 -0.1203  0.2262
 7921TIP3   OH245177   4.804   3.890   5.432  0.6432 -0.5502  0.0642
 7921TIP3    H145178   4.714   3.860   5.445  1.1003 -1.3139  1.7129
 7921TIP3    H245179   4.799   3.946   5.354 -1.0173 -1.5389 -0.6066
 7922TIP3   OH245180   6.338   4.264   1.648 -0.8294  0.0776 -0.2720
 7922TIP3    H145181   6.271   4.205   1.615 -0.0404 -1.9203  1.4895
 7922TIP3    H245182   6.382   4.215   1.718  1.2635  1.9827 -0.1178
 7923TIP3   OH245183   1.994   5.226  15.446  0.2555 -0.4451  0.3458
 7923TIP3    H145184   2.005   5.216  15.352 -2.5901  1.4051 -0.3199
 7923TIP3    H245185   2.052   5.299  15.469  1.0609 -0.9889  0.0582
 7924TIP3   OH245186   3.870   5.133   3.404 -0.3715 -0.0288  0.1868
 7924TIP3    H145187   3.892   5.217   3.363 -1.4235  0.2238  0.1053
 7924TIP3    H245188   3.952   5.083   3.403  0.4827  1.2864  0.9473
 7925TIP3   OH245189   1.307   5.406   4.520 -0.3240  0.1785 -0.0868
 7925TIP3    H145190   1.360   5.360   4.455  0.8585  0.1253  0.8854
 7925TIP3    H245191   1.259   5.337   4.566  1.0054 -0.0650  0.9806
 7926TIP3   OH245192   3.693   1.531   5.500 -0.0072 -0.1879  0.4328
 7926TIP3    H145193   3.697   1.574   5.585 -0.4574  1.1897 -0.2071
 7926TIP3    H245194   3.707   1.438   5.519 -2.9471 -0.3626  2.3402
 7927TIP3   OH245195   1.233   4.974   0.673  0.1685  1.3404  0.4548
 7927TIP3    H145196   1.296   4.993   0.742 -1.0175  0.2239  1.8990
 7927TIP3    H245197   1.166   4.922   0.715 -0.1600 -0.1671 -1.7491
 7928TIP3   OH245198   1.255   5.953   5.851  0.5588  0.9196 -0.0097
 7928TIP3    H145199   1.204   5.979   5.928  1.4634  0.2143  0.8524
 7928TIP3    H245200   1.218   5.870   5.823 -1.2933  2.2433 -1.8041
 7929TIP3   OH245201   4.466   5.148   1.290  0.1660 -0.1173  0.3020
 7929TIP3    H145202   4.452   5.103   1.207 -1.0951 -0.4627  0.6876
 7929TIP3    H245203   4.440   5.239   1.272 -2.2409 -0.6360  0.8609
 7930TIP3   OH245204   2.514   1.936  15.042  0.2150  0.4945 -0.1792
 7930TIP3    H145205   2.598   1.978  15.023  0.4385  0.1635  0.0485
 7930TIP3    H245206   2.506   1.941  15.138  0.6190 -0.6561 -0.0627
 7931TIP3   OH245207   5.881   6.663   4.455 -0.1624 -0.0660  0.5907
 7931TIP3    H145208   5.955   6.601   4.462  0.3060  0.5737  1.6633
 7931TIP3    H245209   5.818   6.631   4.519 -0.1087  0.2997  0.8305
 7932TIP3   OH245210   2.830   0.605  13.981 -0.4897  0.1730 -0.0134
 7932TIP3    H145211   2.803   0.617  14.072 -2.0227  1.4541 -0.5933
 7932TIP3    H245212   2.776   0.534  13.949 -0.5111  0.2417 -0.1302
 7933TIP3   OH245213   6.553   0.280   3.446  0.2711  0.1925  0.5852
 7933TIP3    H145214   6.570   0.228   3.367  0.6302 -0.0656  0.8282
 7933TIP3    H245215   6.485   0.231   3.492  0.5921 -0.0520  0.8022
 7934TIP3   OH245216   2.249   3.499  15.495  0.3565 -0.0383  0.1920
 7934TIP3    H145217   2.172   3.530  15.448 -0.3459  0.9169  1.8819
 7934TIP3    H245218   2.304   3.577  15.504  0.0118  0.0608  1.7670
 7935TIP3   OH245219   1.859   5.476   4.290  0.0727  0.0141  0.5469
 7935TIP3    H145220   1.934   5.461   4.233 -0.2166 -0.1331  0.1977
 7935TIP3    H245221   1.894   5.523   4.365  0.4967  0.0225  0.3436
 7936TIP3   OH245222   4.468   0.102   5.632  0.4856 -0.3664  0.5885
 7936TIP3    H145223   4.564   0.098   5.631  0.5237  0.2571 -0.9351
 7936TIP3    H245224   4.440   0.011   5.643  1.2670 -0.8356 -0.9714
 7937TIP3   OH245225   3.650   4.011   2.625 -0.0911 -0.2708 -0.0057
 7937TIP3    H145226   3.705   4.043   2.553  1.4945 -2.2794  0.2027
 7937TIP3    H245227   3.676   4.064   2.700 -0.6406  0.8118 -0.5673
 7938TIP3   OH245228   4.516   3.692  13.062  0.0175  0.2473 -0.3574
 7938TIP3    H145229   4.591   3.732  13.018  0.7903  0.8779  1.4426
 7938TIP3    H245230   4.550   3.609  13.096  0.0045  0.6733  0.7251
 7939TIP3   OH245231   5.171   6.269   1.935 -0.0304 -0.4438  0.1211
 7939TIP3    H145232   5.190   6.175   1.948 -0.4753 -0.4020  1.1861
 7939TIP3    H245233   5.212   6.290   1.851  0.8076 -1.3994  0.2617
 7940TIP3   OH245234   6.370   3.672   1.772 -0.4290 -0.2991  0.0398
 7940TIP3    H145235   6.431   3.600   1.759 -1.3838 -1.0135 -0.6160
 7940TIP3    H245236   6.371   3.687   1.866 -0.9705 -1.8757  0.3342
 7941TIP3   OH245237   0.747   6.506  15.863  0.3171  0.0806 -0.2564
 7941TIP3    H145238   0.722   6.575  15.924 -1.5170 -1.8985  1.4039
 7941TIP3    H245239   0.708   6.532  15.779 -3.1789 -0.3096  1.0487
 7942TIP3   OH245240   4.218   2.123   4.578 -0.5439 -0.3039 -0.1549
 7942TIP3    H145241   4.253   2.195   4.525 -0.9299 -0.6809 -0.9381
 7942TIP3    H245242   4.167   2.167   4.647  0.7097  0.2162  0.4639
 7943TIP3   OH245243   1.373   1.572   5.401  0.1072 -0.9474 -0.5897
 7943TIP3    H145244   1.354   1.633   5.472 -3.2694 -0.7821 -1.4436
 7943TIP3    H245245   1.463   1.544   5.416  0.2912  0.8481  2.3683
 7944TIP3   OH245246   5.154   1.125  12.955 -0.0591 -0.3128  0.1674
 7944TIP3    H145247   5.090   1.068  12.997  0.4122 -0.9179  0.0882
 7944TIP3    H245248   5.138   1.211  12.992 -0.1507 -0.6882  1.0283
 7945TIP3   OH245249   4.331   4.828   1.050 -0.1222 -0.3008  0.4261
 7945TIP3    H145250   4.418   4.809   1.084 -0.1479  0.5957  1.0132
 7945TIP3    H245251   4.327   4.781   0.967  0.4999 -1.2878  0.9334
 7946TIP3   OH245252   6.206   4.588  11.022 -0.2580 -0.3458  0.1295
 7946TIP3    H145253   6.296   4.596  10.992 -0.3493  1.2110  0.1920
 7946TIP3    H245254   6.153   4.594  10.942 -0.3437 -0.3357  0.1865
 7947TIP3   OH245255   0.354   3.032   3.300 -0.1564  0.1845 -0.1740
 7947TIP3    H145256   0.391   2.949   3.269 -1.9760 -0.3030 -1.1963
 7947TIP3    H245257   0.421   3.097   3.281  0.7471 -0.8583 -0.6612
 7948TIP3   OH245258   4.699   3.604  13.914  0.1758  0.0684  0.3639
 7948TIP3    H145259   4.795   3.610  13.906  0.3789 -0.5181  2.0062
 7948TIP3    H245260   4.676   3.529  13.860  0.1023  2.4302 -3.2306
 7949TIP3   OH245261   2.815   5.565  11.267 -0.0801 -0.3977 -0.2344
 7949TIP3    H145262   2.743   5.553  11.206 -0.8848  2.1241  0.0830
 7949TIP3    H245263   2.817   5.485  11.319 -1.0361 -1.5303 -1.8631
 7950TIP3   OH245264   2.802   6.686  11.684  0.1448  0.2363 -0.6663
 7950TIP3    H145265   2.863   6.750  11.647  1.5796 -1.5350 -1.5388
 7950TIP3    H245266   2.835   6.601  11.655 -3.4077 -0.8352 -2.2299
 7951TIP3   OH245267   2.840   2.436   3.313  0.1326  0.0969 -0.0911
 7951TIP3    H145268   2.854   2.350   3.353  0.3864 -0.0146 -0.4130
 7951TIP3    H245269   2.910   2.491   3.348 -0.8360  0.5647  1.1975
 7952TIP3   OH245270   0.534   1.759  12.996  0.5510  0.0432  0.1312
 7952TIP3    H145271   0.624   1.749  12.965  0.5923 -1.5003  0.6418
 7952TIP3    H245272   0.541   1.821  13.069  1.1076  0.3480 -0.1744
 7953TIP3   OH245273   1.734   2.126  16.405 -0.0109 -0.3754  0.6395
 7953TIP3    H145274   1.813   2.162  16.364 -1.0043  0.8620 -0.2670
 7953TIP3    H245275   1.742   2.031  16.391  0.4262 -0.1320 -1.1267
 7954TIP3   OH245276   3.482   2.038  11.389  0.2209 -0.0223  0.2031
 7954TIP3    H145277   3.558   2.079  11.347 -2.2743  2.1084 -2.6892
 7954TIP3    H245278   3.467   1.958  11.340  0.1208 -0.0203  0.2292
 7955TIP3   OH245279   5.115   0.118   3.702  0.3061  0.5110 -0.3559
 7955TIP3    H145280   5.107   0.044   3.643 -0.5425  0.0987  0.2481
 7955TIP3    H245281   5.204   0.112   3.737  0.4470  0.1437 -0.7800
 7956TIP3   OH245282   4.386   3.388   3.630  0.4573  0.0490  0.2914
 7956TIP3    H145283   4.474   3.351   3.626  0.4714 -0.1116  1.5675
 7956TIP3    H245284   4.329   3.311   3.639  0.4967  0.2454  3.0785
 7957TIP3   OH245285   3.134   1.584  11.693  0.2026 -0.7815  0.4483
 7957TIP3    H145286   3.150   1.674  11.664  0.7466  0.4583  3.9653
 7957TIP3    H245287   3.054   1.557  11.649  0.9862  0.7137 -2.0551
 7958TIP3   OH245288   4.304   2.166  15.952 -0.3046 -0.5956 -0.4275
 7958TIP3    H145289   4.321   2.100  15.885  1.9612 -0.4129 -0.1246
 7958TIP3    H245290   4.388   2.212  15.963 -1.4230  1.4186  0.3686
 7959TIP3   OH245291   6.644   0.164  14.297 -0.4767  0.3603 -0.5007
 7959TIP3    H145292   6.577   0.097  14.315  0.8097 -1.6750 -2.6081
 7959TIP3    H245293   6.716   0.142  14.356 -0.0241 -0.2220 -1.2465
 7960TIP3   OH245294   4.048   4.013   4.600 -0.0620 -0.9548  0.1526
 7960TIP3    H145295   4.138   4.005   4.569  0.2616 -4.4300  1.5817
 7960TIP3    H245296   4.022   4.101   4.573  4.1266  0.7213  0.7870
 7961TIP3   OH245297   2.505   5.178   1.448 -0.5995  0.0029 -0.4365
 7961TIP3    H145298   2.515   5.101   1.391  0.2192 -0.6066  0.4973
 7961TIP3    H245299   2.587   5.182   1.497 -0.4749  1.7020 -0.7178
 7962TIP3   OH245300   5.499   4.923   5.097 -0.0087  0.4440  0.0159
 7962TIP3    H145301   5.457   4.839   5.077 -0.4054  0.2061  1.6724
 7962TIP3    H245302   5.428   4.979   5.128  0.5768  0.6594  1.0359
 7963TIP3   OH245303   0.745   5.842   0.470  0.4639  0.3038  0.0834
 7963TIP3    H145304   0.787   5.869   0.388 -0.1192 -0.7635 -0.5867
 7963TIP3    H245305   0.675   5.906   0.483  0.4273  0.3606 -0.3649
 7964TIP3   OH245306   5.087   1.670  15.152 -0.1715  0.2911 -0.2779
 7964TIP3    H145307   5.127   1.756  15.142  0.1119  0.1551 -0.3408
 7964TIP3    H245308   5.003   1.677  15.107 -0.9242  1.0416  1.1652
 7965TIP3   OH245309   2.160   3.207   2.532 -0.1347 -0.1089  0.1400
 7965TIP3    H145310   2.203   3.285   2.498  1.2342 -0.2950  1.3346
 7965TIP3    H245311   2.091   3.187   2.468 -0.1494  1.7290 -0.4699
 7966TIP3   OH245312   6.440   3.858   5.746  0.1217 -0.0808 -0.2203
 7966TIP3    H145313   6.458   3.921   5.816  1.3268 -0.1004 -0.4905
 7966TIP3    H245314   6.369   3.803   5.781  0.1406  0.4348  0.6491
 7967TIP3   OH245315   0.959   4.358  15.812  0.1786  0.1198 -0.2890
 7967TIP3    H145316   0.890   4.417  15.783  0.6916  0.0119 -1.8110
 7967TIP3    H245317   0.927   4.270  15.792  0.0523 -0.0446  0.5826
 7968TIP3   OH245318   6.501   2.353   3.989  0.4634  0.0587 -0.5004
 7968TIP3    H145319   6.440   2.418   4.023  0.3642  0.2516 -1.0355
 7968TIP3    H245320   6.530   2.388   3.904 -0.2840 -1.0050 -1.2237
 7969TIP3   OH245321   2.087   4.209   2.215 -0.6819 -0.0696  0.2486
 7969TIP3    H145322   2.017   4.168   2.165  0.7300 -0.8899 -1.1393
 7969TIP3    H245323   2.156   4.143   2.218  0.4097  1.0544  0.7582
 7970TIP3   OH245324   0.815   2.544  15.903  0.4545 -0.4056 -0.6903
 7970TIP3    H145325   0.798   2.535  15.809  2.3024  0.5493 -1.1593
 7970TIP3    H245326   0.910   2.555  15.909  0.4604 -1.2345  1.3679
 7971TIP3   OH245327   4.930   4.710  16.871 -0.5146 -0.3278 -0.1749
 7971TIP3    H145328   4.878   4.787  16.894 -0.1742  0.1202 -0.8555
 7971TIP3    H245329   4.953   4.724  16.780  2.1864  0.3448  0.5169
 7972TIP3   OH245330   5.283   1.429   3.978  0.7505  0.1581 -0.1644
 7972TIP3    H145331   5.356   1.412   4.037  0.7934 -1.4621 -0.6085
 7972TIP3    H245332   5.289   1.358   3.913 -0.6802  0.5176 -0.7232
 7973TIP3   OH245333   5.053   3.555  12.258 -0.4226 -0.2482  0.1677
 7973TIP3    H145334   5.017   3.476  12.218 -0.2516 -0.9030  1.2836
 7973TIP3    H245335   5.010   3.560  12.343  0.5620  0.1308  0.6513
 7974TIP3   OH245336   3.704   5.050  16.964 -0.3881 -0.1878 -0.5719
 7974TIP3    H145337   3.747   5.123  16.921 -1.0629  1.3902  1.2873
 7974TIP3    H245338   3.760   4.975  16.946  1.4953  1.2079 -0.7684
 7975TIP3   OH245339   6.742   6.245   2.029 -0.0520 -0.3630  0.5064
 7975TIP3    H145340   6.668   6.242   1.969  1.6294 -1.1865 -1.6570
 7975TIP3    H245341   6.779   6.157   2.026  0.7162 -0.1145  1.9433
 7976TIP3   OH245342   5.676   4.980   2.190  0.2928  0.2313 -0.1704
 7976TIP3    H145343   5.627   4.992   2.272  0.2096  0.8588 -0.3033
 7976TIP3    H245344   5.608   4.966   2.124  0.2695  1.2669 -0.3826
 7977TIP3   OH245345   6.115   0.056   0.650  0.0461 -0.4628 -0.0203
 7977TIP3    H145346   6.090  -0.030   0.617 -2.0262  0.0573  0.0843
 7977TIP3    H245347   6.102   0.050   0.745  0.2869 -0.1487  0.0332
 7978TIP3   OH245348   5.353   1.804   0.394  0.2471  0.6092 -0.3229
 7978TIP3    H145349   5.392   1.854   0.323  0.6795  0.2222 -0.3596
 7978TIP3    H245350   5.317   1.871   0.453 -0.8422  0.9047 -1.3030
 7979TIP3   OH245351   6.386   4.127  14.991 -0.7791  0.5949  0.1559
 7979TIP3    H145352   6.431   4.050  14.955  0.1040  1.5874 -0.9334
 7979TIP3    H245353   6.357   4.099  15.078  1.8468 -0.1704  0.8700
 7980TIP3   OH245354   4.218   1.039  15.659 -1.0339  0.1963 -0.4906
 7980TIP3    H145355   4.288   0.990  15.615  0.4559 -0.5461  2.3738
 7980TIP3    H245356   4.250   1.129  15.662 -1.2204  0.2818 -1.0686
 7981TIP3   OH245357   3.857   3.354   5.112 -0.2816  1.0397  0.1266
 7981TIP3    H145358   3.811   3.289   5.059  0.5013  0.0794  0.5761
 7981TIP3    H245359   3.944   3.360   5.072 -0.7240  2.7320 -0.6410
 7982TIP3   OH245360   0.615   0.817   3.179  0.2997  0.0495 -0.2662
 7982TIP3    H145361   0.675   0.878   3.222  1.9589 -1.8693  0.2346
 7982TIP3    H245362   0.614   0.845   3.087  1.3404  0.5811 -0.1249
 7983TIP3   OH245363   2.596   1.663   4.090 -0.6511 -0.2177  0.4963
 7983TIP3    H145364   2.617   1.571   4.102 -3.2491 -0.8747  0.4051
 7983TIP3    H245365   2.501   1.666   4.080 -0.7574  2.5552  1.3123
 7984TIP3   OH245366   1.588   2.471   4.937 -0.1529  0.6706 -0.3849
 7984TIP3    H145367   1.587   2.377   4.921  1.2574  0.4345  0.7736
 7984TIP3    H245368   1.632   2.508   4.860  2.5484 -0.0264  0.6908
 7985TIP3   OH245369   6.223   6.674  12.330 -0.0923  0.2652 -0.0688
 7985TIP3    H145370   6.181   6.636  12.407  0.1637 -2.4278 -1.1707
 7985TIP3    H245371   6.280   6.743  12.366  0.1358 -0.9882  2.1696
 7986TIP3   OH245372   1.740   3.786  15.490  0.0355  0.1031  0.1088
 7986TIP3    H145373   1.644   3.793  15.484  0.0673 -0.1226 -0.8510
 7986TIP3    H245374   1.755   3.749  15.577 -0.8529 -1.4165 -0.3286
 7987TIP3   OH245375   6.615   6.747   2.758  0.6556  0.4913 -0.3305
 7987TIP3    H145376   6.701   6.773   2.723  0.5573  0.4871 -0.5740
 7987TIP3    H245377   6.635   6.677   2.820  0.8166  0.4007 -0.4831
 7988TIP3   OH245378   4.988   4.661   5.322 -0.4985 -0.2096  0.4156
 7988TIP3    H145379   4.996   4.641   5.415 -0.9883  0.1151  0.5327
 7988TIP3    H245380   4.949   4.748   5.320  0.5811  0.2879 -0.0835
 7989TIP3   OH245381   3.773   3.783   2.683 -0.3624 -0.5884 -0.4715
 7989TIP3    H145382   3.805   3.796   2.772  0.8693  1.1980 -1.1241
 7989TIP3    H245383   3.759   3.872   2.650  1.0193 -1.1240 -2.6841
 7990TIP3   OH245384   3.104   2.718  17.273  0.2079 -0.1708  0.2725
 7990TIP3    H145385   3.159   2.789  17.239  1.3558  0.3102  2.9086
 7990TIP3    H245386   3.095   2.658  17.199  0.6701  1.8241 -1.5256
 7991TIP3   OH245387   5.255   1.268   4.597  0.0249  0.0569  0.0640
 7991TIP3    H145388   5.239   1.335   4.530  0.3602  0.2313  0.1569
 7991TIP3    H245389   5.347   1.280   4.621  0.4656 -1.2623 -0.8396
 7992TIP3   OH245390   6.390   4.617   5.236  0.1493  0.1292  0.4396
 7992TIP3    H145391   6.311   4.564   5.233 -0.7361  1.2603 -4.2018
 7992TIP3    H245392   6.456   4.565   5.190 -0.0032  1.8612 -1.8911
 7993TIP3   OH245393   4.013   1.288  13.855 -0.0412  0.2487  0.2745
 7993TIP3    H145394   4.086   1.229  13.874  0.0714  0.4889  0.5997
 7993TIP3    H245395   4.002   1.338  13.936 -0.7055  0.0680  0.2951
 7994TIP3   OH245396   2.011   6.427   6.400  0.3817  0.8189  0.5642
 7994TIP3    H145397   1.971   6.400   6.318  1.0325 -0.7773  0.7372
 7994TIP3    H245398   2.096   6.464   6.375  0.8104 -0.1574  0.5366
 7995TIP3   OH245399   6.127   3.302   0.007 -0.6228 -0.6466 -0.0492
 7995TIP3    H145400   6.124   3.397   0.019  0.7807 -0.4735 -0.8594
 7995TIP3    H245401   6.053   3.269   0.058 -0.4006  0.7772  1.2620
 7996TIP3   OH245402   4.284   3.055   3.438 -0.2472  0.6017 -0.4368
 7996TIP3    H145403   4.330   2.971   3.442  0.0117  0.7291 -0.6932
 7996TIP3    H245404   4.291   3.081   3.346 -2.0290 -0.0416 -0.7901
 7997TIP3   OH245405   3.560   4.336  16.112  0.2275 -0.2509  0.0681
 7997TIP3    H145406   3.562   4.242  16.095 -0.2854 -0.1961 -0.3368
 7997TIP3    H245407   3.546   4.344  16.206  0.2316 -0.5853  0.0962
 7998TIP3   OH245408   3.428   5.082   5.785 -0.5144 -0.2480  0.3820
 7998TIP3    H145409   3.480   5.132   5.724 -2.1303  1.4954  0.3377
 7998TIP3    H245410   3.411   5.142   5.858 -1.2096 -1.2444  1.0813
 7999TIP3   OH245411   5.628   5.787  11.391 -0.0671  0.5015  0.1366
 7999TIP3    H145412   5.604   5.829  11.308 -0.7957 -1.1724 -0.5436
 7999TIP3    H245413   5.710   5.740  11.370  0.3455  0.9809  0.6742
 8000TIP3   OH245414   2.288   3.913   1.539  0.2773  0.2016 -0.0742
 8000TIP3    H145415   2.290   3.882   1.448 -0.0198  0.0731 -0.0396
 8000TIP3    H245416   2.218   3.979   1.540  1.3641  1.3988 -0.3091
 8001TIP3   OH245417   3.276   1.978  13.061 -0.3572 -0.0371 -0.2095
 8001TIP3    H145418   3.307   2.067  13.044  0.0875 -0.3724 -1.2205
 8001TIP3    H245419   3.305   1.928  12.985 -0.6489 -1.0389  0.3292
 8002TIP3   OH245420   3.868   3.348  15.665 -0.7746  0.0567 -0.4603
 8002TIP3    H145421   3.954   3.349  15.707 -0.9237 -0.5791 -0.1205
 8002TIP3    H245422   3.879   3.399  15.585 -1.0002  3.0844  1.2967
 8003TIP3   OH245423   4.794   5.028  15.190 -0.2463 -0.1065 -0.3366
 8003TIP3    H145424   4.784   5.046  15.096 -2.3648  1.4347  0.1209
 8003TIP3    H245425   4.706   5.006  15.220 -0.2571  2.4308  1.8165
 8004TIP3   OH245426   2.331   5.312  13.009 -0.2755 -0.0524  0.3475
 8004TIP3    H145427   2.381   5.376  13.060  0.3864  0.0210 -0.3790
 8004TIP3    H245428   2.262   5.283  13.069 -1.1164  1.9532  0.4071
 8005TIP3   OH245429   1.639   5.724   5.952  0.0060 -0.1354  0.0864
 8005TIP3    H145430   1.614   5.814   5.932  1.6718  0.6925  1.4228
 8005TIP3    H245431   1.611   5.711   6.043 -0.2470 -1.0038 -0.0983
 8006TIP3   OH245432   2.351   4.849  15.346  0.2139  0.1990 -0.1259
 8006TIP3    H145433   2.306   4.816  15.268  2.9179 -0.4288 -1.5437
 8006TIP3    H245434   2.409   4.778  15.373 -0.1935  0.6463  2.1510
 8007TIP3   OH245435   2.044   5.998   3.882  0.1489  0.1975 -0.1552
 8007TIP3    H145436   1.950   6.001   3.865  0.2509 -0.4035 -0.8633
 8007TIP3    H245437   2.070   5.910   3.856  0.7058 -0.0429  1.1506
 8008TIP3   OH245438   0.873   1.424   5.079  0.1222  0.6028 -0.9014
 8008TIP3    H145439   0.808   1.454   5.142  1.2431  2.8002 -0.6977
 8008TIP3    H245440   0.836   1.344   5.042 -1.0952 -0.1506  1.6967
 8009TIP3   OH245441   2.936   0.424   5.446 -0.0857 -0.0694 -0.1047
 8009TIP3    H145442   2.845   0.456   5.440  0.8542  2.9689 -0.1361
 8009TIP3    H245443   2.981   0.490   5.499  1.4987 -3.1882  2.8177
 8010TIP3   OH245444   0.010   5.018  16.618  0.0065 -0.0656  0.2065
 8010TIP3    H145445   0.097   4.992  16.590 -0.1428 -1.8330  1.2496
 8010TIP3    H245446  -0.049   4.978  16.554 -0.1109 -0.3433  0.4832
 8011TIP3   OH245447   3.655   4.449   2.647  0.0072  0.1647  0.3198
 8011TIP3    H145448   3.673   4.522   2.707 -1.7892 -0.9958  2.3963
 8011TIP3    H245449   3.741   4.411   2.630  0.7186  1.3701  1.0130
 8012TIP3   OH245450   0.646   2.451  16.407  0.1610 -0.1521 -0.0805
 8012TIP3    H145451   0.587   2.391  16.362  1.2212 -1.3833  0.0955
 8012TIP3    H245452   0.689   2.499  16.337  0.6869 -0.9779 -0.3503
 8013TIP3   OH245453   5.050   0.248   2.190 -0.2259  0.1897  0.0361
 8013TIP3    H145454   5.005   0.211   2.266 -0.6850  0.7904  0.0721
 8013TIP3    H245455   4.988   0.237   2.118  0.1184 -0.1788 -0.2080
 8014TIP3   OH245456   1.877   0.720   0.573 -0.3953 -0.1933 -0.4182
 8014TIP3    H145457   1.850   0.752   0.659  1.7152 -1.2225  0.6953
 8014TIP3    H245458   1.879   0.798   0.518  0.5623  0.9325  1.1184
 8015TIP3   OH245459   0.914   3.033   3.694 -0.1693  0.0581 -0.0599
 8015TIP3    H145460   0.864   2.963   3.652  1.1919 -1.6537  1.0296
 8015TIP3    H245461   0.892   3.027   3.786  2.5381 -1.3097  0.6079
 8016TIP3   OH245462   2.480   4.283  16.593 -0.0772  0.5334  0.1232
 8016TIP3    H145463   2.451   4.373  16.581  1.1001  0.8460 -0.4932
 8016TIP3    H245464   2.553   4.272  16.532 -0.4372 -0.9561 -0.1000
 8017TIP3   OH245465   6.489   5.154  11.389 -0.0578 -0.1396  0.0045
 8017TIP3    H145466   6.446   5.078  11.430  0.3245 -0.5694 -0.3838
 8017TIP3    H245467   6.551   5.116  11.327  1.7606  0.4238  1.3842
 8018TIP3   OH245468   1.122   3.034   5.837  0.3265  0.3077  0.6008
 8018TIP3    H145469   1.137   2.941   5.850  0.7918  0.4033  0.7993
 8018TIP3    H245470   1.188   3.076   5.893  1.0531  0.7465 -0.5489
 8019TIP3   OH245471   4.066   4.881  14.921  0.3558 -0.1166 -0.1933
 8019TIP3    H145472   4.038   4.790  14.933 -3.5293  0.8271 -0.6714
 8019TIP3    H245473   4.042   4.924  15.003  0.5627  0.8089 -0.6121
 8020TIP3   OH245474   0.549   4.738  11.530  0.3466  0.4922 -0.2363
 8020TIP3    H145475   0.618   4.752  11.464 -1.7053  1.0959 -2.4085
 8020TIP3    H245476   0.476   4.701  11.480 -0.4439 -1.5396  2.2461
 8021TIP3   OH245477   1.709   5.671  12.719 -0.1680 -0.9925  0.6013
 8021TIP3    H145478   1.646   5.699  12.653 -0.7808 -0.8831  1.2153
 8021TIP3    H245479   1.676   5.586  12.749  0.9394 -1.7625 -0.2943
 8022TIP3   OH245480   1.907   4.402   4.534 -0.2225  0.5727 -0.0667
 8022TIP3    H145481   1.819   4.386   4.500  0.2356  1.6297 -1.8771
 8022TIP3    H245482   1.930   4.489   4.501  1.5608  0.2422  0.2089
 8023TIP3   OH245483   2.445   2.878   5.564 -0.1021 -0.0843 -0.5315
 8023TIP3    H145484   2.492   2.957   5.538 -2.7763  1.6406 -0.6287
 8023TIP3    H245485   2.478   2.809   5.506  0.8721  1.4609 -1.9034
 8024TIP3   OH245486   0.433   6.539  16.418  0.1624  0.4326 -0.6125
 8024TIP3    H145487   0.497   6.468  16.417  1.4281  1.5219 -0.5853
 8024TIP3    H245488   0.454   6.590  16.496 -2.7472 -0.8675  1.1592
 8025TIP3   OH245489   5.570   4.107  10.981 -0.1930  0.1395  0.0038
 8025TIP3    H145490   5.594   4.033  10.925 -0.7792 -0.3460  0.3817
 8025TIP3    H245491   5.653   4.136  11.020 -0.1011 -1.0645  0.7498
 8026TIP3   OH245492   3.298   1.562  12.178  0.0330  0.3698  0.5762
 8026TIP3    H145493   3.263   1.596  12.095 -0.3114 -1.5912 -0.1435
 8026TIP3    H245494   3.224   1.517  12.218  0.8847 -1.0828  0.5839
 8027TIP3   OH245495   3.766   6.595   0.193 -0.3875 -0.1340 -0.2725
 8027TIP3    H145496   3.820   6.577   0.116  0.1316 -1.7616  0.4227
 8027TIP3    H245497   3.676   6.586   0.162 -0.2286  0.4159 -0.9371
 8028TIP3   OH245498   0.107   4.650  15.849 -0.2068  1.1069 -0.7059
 8028TIP3    H145499   0.128   4.742  15.867  0.6052  0.8934 -0.5269
 8028TIP3    H245500   0.075   4.615  15.932 -0.0671  1.1059 -0.6530
 8029TIP3   OH245501   2.932   5.445  15.046  0.1125  0.7292 -0.4136
 8029TIP3    H145502   2.880   5.416  14.972  0.1313 -0.1362 -0.0908
 8029TIP3    H245503   2.941   5.540  15.033  0.8962  0.4814 -2.0097
 8030TIP3   OH245504   5.474   0.646   3.530 -0.5687  0.3033  0.3471
 8030TIP3    H145505   5.489   0.557   3.499 -0.8981  0.8020 -1.3636
 8030TIP3    H245506   5.441   0.693   3.453 -0.6517  1.8396  1.2747
 8031TIP3   OH245507   1.279   5.270  12.944  0.6434  0.1093 -0.4668
 8031TIP3    H145508   1.293   5.179  12.971  0.1331  0.0949 -0.2348
 8031TIP3    H245509   1.196   5.294  12.985 -0.1730  0.0966 -2.0324
 8032TIP3   OH245510   6.260   2.729  15.244  0.0629 -0.0582 -0.2021
 8032TIP3    H145511   6.278   2.710  15.152 -0.6568  0.4967 -0.4628
 8032TIP3    H245512   6.168   2.755  15.246  0.2694  0.6728  0.5564
 8033TIP3   OH245513   2.098   2.396  13.485  0.1182  0.0986  0.0615
 8033TIP3    H145514   2.108   2.489  13.466 -1.1139  0.6689  1.8909
 8033TIP3    H245515   2.123   2.351  13.404  0.8615  1.9961 -0.8119
 8034TIP3   OH245516   0.542   2.710   3.519 -0.0771  0.3012  0.5515
 8034TIP3    H145517   0.484   2.784   3.539  1.8378  1.3917  2.4462
 8034TIP3    H245518   0.491   2.656   3.459 -3.6860  0.3891  3.2067
 8035TIP3   OH245519   6.236   4.217  16.643  0.0649 -0.4686  0.0203
 8035TIP3    H145520   6.192   4.154  16.587 -2.3114  0.0169  1.2326
 8035TIP3    H245521   6.219   4.302  16.602  0.2816 -0.3113  0.2539
 8036TIP3   OH245522   5.635   1.412  16.355 -0.6064 -0.0339  0.3499
 8036TIP3    H145523   5.595   1.404  16.268 -1.7689  0.1059  0.8496
 8036TIP3    H245524   5.567   1.452  16.409 -0.0190 -0.4094  1.4035
 8037TIP3   OH245525   4.009   1.727  14.211 -0.1985  0.4253 -0.1050
 8037TIP3    H145526   4.035   1.682  14.130  0.2787  0.9455 -0.2507
 8037TIP3    H245527   3.931   1.681  14.240  0.8391 -1.1438  0.3056
 8038TIP3   OH245528   4.234   1.962  14.739  0.7515  0.3130  0.7685
 8038TIP3    H145529   4.239   1.935  14.831 -0.2728  1.0232  1.0498
 8038TIP3    H245530   4.140   1.962  14.719  0.9744 -0.3912 -0.4621
 8039TIP3   OH245531   4.283   6.628  11.645 -0.1395 -0.5511 -0.2098
 8039TIP3    H145532   4.269   6.673  11.729  1.5366 -0.2770 -0.0469
 8039TIP3    H245533   4.318   6.696  11.588 -1.4105 -0.7035 -1.1995
 8040TIP3   OH245534   1.110   3.256  10.349 -0.5719 -0.2284 -0.3021
 8040TIP3    H145535   1.088   3.171  10.386 -0.0189 -0.5391 -0.6540
 8040TIP3    H245536   1.055   3.319  10.395 -1.3338 -0.8366 -0.3759
 8041TIP3   OH245537   1.007   1.624  11.808 -0.4520  0.2031  0.4003
 8041TIP3    H145538   1.044   1.701  11.764 -0.5329  0.3775  0.6317
 8041TIP3    H245539   1.036   1.633  11.899 -0.6332  0.0669  0.4729
 8042TIP3   OH245540   3.566   4.066  13.063  0.2151 -0.1575  0.0433
 8042TIP3    H145541   3.504   4.063  13.136  0.2087  1.8622  0.1981
 8042TIP3    H245542   3.646   4.026  13.097 -0.1544 -0.2735  0.7826
 8043TIP3   OH245543   0.291   5.861  17.232  0.1171  0.3521  0.4536
 8043TIP3    H145544   0.299   5.819  17.147  0.2577  0.5308  0.3767
 8043TIP3    H245545   0.346   5.939  17.226 -0.7041  0.9398  0.3461
 8044TIP3   OH245546   0.850   0.108  10.621 -0.2077  0.0726 -0.1404
 8044TIP3    H145547   0.898   0.188  10.639  0.4155 -0.3703  0.2116
 8044TIP3    H245548   0.775   0.110  10.680 -0.1934  0.3973 -0.1353
 8045TIP3   OH245549   1.857   0.915  13.377 -0.3648 -0.5188  0.9063
 8045TIP3    H145550   1.938   0.944  13.336 -0.8797  1.6867  1.3321
 8045TIP3    H245551   1.862   0.948  13.467 -1.7335 -0.2814  0.9223
 8046TIP3   OH245552   3.799   6.745  17.087 -0.0724  0.2263  0.3365
 8046TIP3    H145553   3.706   6.733  17.103 -0.7567  2.3432 -1.5760
 8046TIP3    H245554   3.816   6.836  17.109  1.1578  0.3388 -0.9285
 8047TIP3   OH245555   6.108   4.950  13.053 -0.1119 -0.4800 -0.0907
 8047TIP3    H145556   6.149   4.972  12.969  0.8149 -0.7745  0.2697
 8047TIP3    H245557   6.102   5.033  13.099  0.2378 -0.4557 -0.0844
 8048TIP3   OH245558   0.505   1.724   2.055 -0.4616  0.4560 -0.5359
 8048TIP3    H145559   0.489   1.657   2.122  0.6237 -0.3298 -1.0279
 8048TIP3    H245560   0.486   1.679   1.973 -0.9799  1.1648 -0.8080
 8049TIP3   OH245561   5.065   4.593   5.553  0.2253  0.1007 -0.2499
 8049TIP3    H145562   5.008   4.607   5.628  0.1748  0.6508 -0.3884
 8049TIP3    H245563   5.113   4.513   5.573 -0.7731 -0.5115 -0.2332
 8050TIP3   OH245564   4.535   6.028   4.892 -0.0363 -0.0347  0.5444
 8050TIP3    H145565   4.478   6.090   4.846 -2.0849 -1.8928  0.4408
 8050TIP3    H245566   4.602   6.005   4.828 -0.9850 -0.1595 -0.4248
 8051TIP3   OH245567   0.822   5.300  14.646 -0.1418 -0.3056 -0.3603
 8051TIP3    H145568   0.851   5.279  14.558 -1.6344 -0.2721 -0.8880
 8051TIP3    H245569   0.733   5.264  14.652 -0.4161  0.4817  0.8071
 8052TIP3   OH245570   6.002   0.302  10.989 -0.3016 -0.1285 -0.3371
 8052TIP3    H145571   5.968   0.391  10.981  0.4154  0.0542 -1.5080
 8052TIP3    H245572   5.966   0.270  11.072 -0.7704  1.1575 -0.0252
 8053TIP3   OH245573   1.459   4.874  12.926 -0.0053 -0.0240 -0.0952
 8053TIP3    H145574   1.369   4.890  12.899  0.5219  0.6773 -1.5443
 8053TIP3    H245575   1.452   4.809  12.996 -1.7505  1.3875  1.1106
 8054TIP3   OH245576   2.540   4.399   0.497  0.2713 -0.0579 -0.5916
 8054TIP3    H145577   2.603   4.378   0.428 -1.6501  1.3298 -2.9131
 8054TIP3    H245578   2.565   4.487   0.526 -0.3492  0.3433 -1.2538
 8055TIP3   OH245579   4.811   0.044   6.404 -0.3610 -0.7200 -0.6601
 8055TIP3    H145580   4.906   0.039   6.400 -0.0598 -3.4440  3.2491
 8055TIP3    H245581   4.791   0.136   6.422  1.7097 -0.4269  0.3297
 8056TIP3   OH245582   3.660   5.206  13.701  0.2591 -0.0004 -0.1184
 8056TIP3    H145583   3.657   5.153  13.781 -1.1260  0.2976  0.0588
 8056TIP3    H245584   3.645   5.145  13.630  1.7052 -0.3007 -0.1919
 8057TIP3   OH245585   2.982   3.336   2.488  0.5630 -0.0041 -0.1934
 8057TIP3    H145586   2.934   3.403   2.537  1.7317 -0.0067  1.0147
 8057TIP3    H245587   3.023   3.383   2.416 -0.5327  0.1442 -0.7392
 8058TIP3   OH245588   6.593   2.625   3.194 -0.5066  0.3688  0.1419
 8058TIP3    H145589   6.588   2.634   3.098 -0.7577  2.3759  0.2878
 8058TIP3    H245590   6.686   2.609   3.211 -0.4858 -0.1700 -0.4445
 8059TIP3   OH245591   1.661   5.731   2.252 -0.1216  0.0087  0.2931
 8059TIP3    H145592   1.699   5.647   2.279  1.0969  0.7684  1.0654
 8059TIP3    H245593   1.597   5.752   2.321 -0.2086 -0.1455  0.2592
 8060TIP3   OH245594   3.015   0.439   4.745  0.1942 -0.3601 -0.2385
 8060TIP3    H145595   2.984   0.491   4.820 -0.1701 -3.4019  1.9238
 8060TIP3    H245596   2.936   0.423   4.693  0.2798  1.0272 -0.8319
 8061TIP3   OH245597   4.997   3.053   0.952 -0.0067 -0.2718 -0.4631
 8061TIP3    H145598   4.985   3.067   0.858 -2.4613 -2.6678 -0.5907
 8061TIP3    H245599   4.910   3.063   0.990  0.9955  1.1629  1.7336
 8062TIP3   OH245600   3.395   0.282  14.325 -0.1498 -0.1972  0.2328
 8062TIP3    H145601   3.301   0.300  14.323 -0.0777  0.1640 -0.1219
 8062TIP3    H245602   3.414   0.261  14.416 -0.8263 -1.6582  0.0702
 8063TIP3   OH245603   2.370   2.536  13.329  0.7117 -0.4300 -0.5285
 8063TIP3    H145604   2.402   2.480  13.399 -1.8856 -1.5187 -0.0893
 8063TIP3    H245605   2.419   2.508  13.252  1.4291 -1.3801  0.2497
 8064TIP3   OH245606   3.598   3.282  12.102  0.5217 -0.0429 -0.1578
 8064TIP3    H145607   3.577   3.201  12.148 -1.2397 -0.6456 -1.8794
 8064TIP3    H245608   3.665   3.257  12.038 -0.1239 -0.1986 -0.7852
 8065TIP3   OH245609   3.048   3.631   0.808 -0.1587  0.1151 -0.0644
 8065TIP3    H145610   3.129   3.585   0.787  0.8741  0.6207  2.4867
 8065TIP3    H245611   3.018   3.591   0.889  0.2567  3.1754  1.7381
 8066TIP3   OH245612   3.006   3.546  17.064 -0.1544 -0.2257 -0.6547
 8066TIP3    H145613   2.947   3.471  17.054  0.3997 -0.9004  0.8307
 8066TIP3    H245614   3.054   3.528  17.146 -0.2469  1.9163 -0.0864
 8067TIP3   OH245615   5.171   1.375   6.160 -0.1528  0.0359  0.4328
 8067TIP3    H145616   5.258   1.414   6.172 -0.3320  0.4545  0.3685
 8067TIP3    H245617   5.187   1.280   6.164  0.3013  0.1110  0.4558
 8068TIP3   OH245618   3.450   4.624  15.385 -0.3297 -0.0435  0.0585
 8068TIP3    H145619   3.425   4.555  15.447 -0.0785 -1.1877 -1.0507
 8068TIP3    H245620   3.399   4.700  15.411 -0.1898 -0.4755  1.6852
 8069TIP3   OH245621   0.086   2.348   3.450 -0.2375 -0.4468  0.0807
 8069TIP3    H145622  -0.007   2.327   3.439 -0.5232  0.6521  0.2899
 8069TIP3    H245623   0.104   2.329   3.542  0.1331 -2.0436 -0.2918
 8070TIP3   OH245624   6.760   1.400  12.236 -0.9594  0.0295  0.1291
 8070TIP3    H145625   6.688   1.402  12.299 -0.7174 -1.1546  0.4641
 8070TIP3    H245626   6.837   1.377  12.288 -0.1791  1.9141 -0.1109
 8071TIP3   OH245627   2.351   3.637  14.488 -0.5383  0.4142 -0.0575
 8071TIP3    H145628   2.309   3.723  14.495 -2.7761 -0.5911 -0.2265
 8071TIP3    H245629   2.294   3.588  14.429  0.3174 -1.4189  0.5776
 8072TIP3   OH245630   1.793   1.108  12.897 -0.1952  0.4386  0.1096
 8072TIP3    H145631   1.700   1.120  12.919  0.1885  1.5149  1.2614
 8072TIP3    H245632   1.812   1.179  12.835  0.3926  1.6794  1.6465
 8073TIP3   OH245633   2.086   1.869   1.642  0.4436  0.1333 -0.6131
 8073TIP3    H145634   2.034   1.922   1.581 -1.0043 -0.1930  0.2869
 8073TIP3    H245635   2.176   1.876   1.610  0.2254  2.6954 -0.8086
 8074TIP3   OH245636   3.967   0.529   3.211  0.2532 -0.0522 -0.2062
 8074TIP3    H145637   4.025   0.545   3.286  1.1979 -0.3842 -0.8477
 8074TIP3    H245638   4.016   0.469   3.155 -0.5939 -0.1011 -0.9184
 8075TIP3   OH245639   1.864   0.469   1.700 -0.0094  0.0598 -0.0278
 8075TIP3    H145640   1.929   0.509   1.757 -1.7630  1.2418  1.2279
 8075TIP3    H245641   1.861   0.377   1.727 -0.0202  0.3564  1.0033
 8076TIP3   OH245642   2.240   2.558   3.994  1.0325 -0.6534 -0.0974
 8076TIP3    H145643   2.256   2.652   4.005  1.1663 -0.7937  0.9846
 8076TIP3    H245644   2.229   2.547   3.900 -0.8632  0.7409 -0.0932
 8077TIP3   OH245645   4.533   3.045  15.078 -0.1510  0.0571 -0.3242
 8077TIP3    H145646   4.509   3.132  15.046  0.6825  0.1800 -0.6439
 8077TIP3    H245647   4.460   3.019  15.133 -0.3454  1.0279 -0.1030
 8078TIP3   OH245648   4.870   5.811   2.767  0.4653  0.2164  0.0745
 8078TIP3    H145649   4.848   5.778   2.854  0.9618  2.0202  0.9296
 8078TIP3    H245650   4.824   5.895   2.761  2.5824  1.4101 -0.3114
 8079TIP3   OH245651   6.446   1.421  16.900 -0.9128 -0.1471 -0.1238
 8079TIP3    H145652   6.536   1.430  16.871 -1.0692 -0.7220 -0.8132
 8079TIP3    H245653   6.448   1.441  16.994 -0.3121  1.2713 -0.4132
 8080TIP3   OH245654   6.663   1.510   4.680 -0.2839 -0.0697  0.2025
 8080TIP3    H145655   6.743   1.463   4.704  0.5042  0.1145 -1.8823
 8080TIP3    H245656   6.673   1.596   4.720  0.2662 -0.2513  0.4694
 8081TIP3   OH245657   2.418   4.921  16.014  0.2682  0.2832  0.3143
 8081TIP3    H145658   2.469   4.874  16.079  1.0167  1.3385  0.5121
 8081TIP3    H245659   2.460   4.900  15.930 -0.8340 -1.2579  0.1049
 8082TIP3   OH245660   5.221   0.705   4.590  0.2203  0.1970 -0.8687
 8082TIP3    H145661   5.201   0.792   4.554 -1.2342  0.7582  1.1249
 8082TIP3    H245662   5.147   0.650   4.563 -1.0154  0.6858  1.3164
 8083TIP3   OH245663   5.727   5.512  12.161  0.0284  0.2387 -0.4877
 8083TIP3    H145664   5.702   5.552  12.078 -0.8224  1.2658  0.2339
 8083TIP3    H245665   5.685   5.426  12.159  1.0065 -0.2436 -1.6069
 8084TIP3   OH245666   6.076   5.925  11.496 -0.6638 -1.0477  0.5969
 8084TIP3    H145667   6.103   6.007  11.539  0.1196 -1.8309  1.6477
 8084TIP3    H245668   6.006   5.951  11.437 -1.9880  0.0554  2.5513
 8085TIP3   OH245669   6.194   0.567  11.364 -0.0718 -0.0416 -0.0865
 8085TIP3    H145670   6.275   0.522  11.341 -0.0124  0.2003 -0.3642
 8085TIP3    H245671   6.125   0.511  11.328 -0.0976 -0.9081  1.2677
 8086TIP3   OH245672   3.067   2.773   0.412 -0.1585 -0.1473 -0.4753
 8086TIP3    H145673   3.089   2.776   0.319 -0.1387  1.0720 -0.4404
 8086TIP3    H245674   3.132   2.713   0.449  0.7666  0.4905 -1.0067
 8087TIP3   OH245675   4.425   2.048  13.499  0.2948 -0.3777 -0.2772
 8087TIP3    H145676   4.506   2.094  13.522 -0.1946  0.6761 -0.5725
 8087TIP3    H245677   4.424   2.047  13.403  0.2478 -0.9268 -0.2734
 8088TIP3   OH245678   3.915   1.983  16.314 -0.1479  0.0165  0.1988
 8088TIP3    H145679   3.944   2.025  16.233 -0.0310 -0.2021  0.1258
 8088TIP3    H245680   3.921   1.889  16.295  0.5869 -0.0456  0.7145
 8089TIP3   OH245681   5.750   3.388   3.592 -0.3766  0.4075 -0.9431
 8089TIP3    H145682   5.844   3.400   3.589 -0.0405 -1.7073 -0.6561
 8089TIP3    H245683   5.719   3.414   3.505  0.6319  0.0362 -1.4231
 8090TIP3   OH245684   3.385   2.633  17.319 -0.0265 -0.3156 -0.0352
 8090TIP3    H145685   3.381   2.654  17.226 -0.6012  0.8655  0.2469
 8090TIP3    H245686   3.410   2.715  17.361 -1.5573 -0.3548  1.0162
 8091TIP3   OH245687   4.377   2.232  12.230 -0.8227 -0.5545 -0.5003
 8091TIP3    H145688   4.366   2.186  12.146  0.6363  0.0053 -1.0294
 8091TIP3    H245689   4.387   2.162  12.294 -0.1867 -0.9952 -1.0663
 8092TIP3   OH245690   6.034   3.726  16.901  0.8056 -0.3727 -0.1907
 8092TIP3    H145691   6.028   3.686  16.988  2.2763 -1.1163 -0.4090
 8092TIP3    H245692   6.037   3.820  16.919 -0.7378 -0.4150  0.4378
 8093TIP3   OH245693   0.069   4.559  16.136  0.3919  0.3737 -0.2100
 8093TIP3    H145694   0.044   4.640  16.182 -0.8286  1.3380 -2.4125
 8093TIP3    H245695  -0.002   4.498  16.153 -0.5109  1.0306 -1.4300
 8094TIP3   OH245696   3.130   4.321   1.070 -0.3285 -0.2016 -0.1322
 8094TIP3    H145697   3.062   4.385   1.047 -1.4916 -0.9157  1.2145
 8094TIP3    H245698   3.105   4.242   1.023 -0.3451 -0.4316  0.2667
 8095TIP3   OH245699   5.096   1.825  11.475  0.6919 -0.1991  0.0495
 8095TIP3    H145700   5.073   1.918  11.474 -0.4585 -0.4550  0.4089
 8095TIP3    H245701   5.122   1.805  11.385 -0.9680  0.0376 -0.5179
 8096TIP3   OH245702   1.699   5.417   0.457 -0.1782 -0.0871 -0.1244
 8096TIP3    H145703   1.771   5.417   0.520 -0.6896 -1.5445  0.4984
 8096TIP3    H245704   1.644   5.491   0.484  0.4047  0.2366  0.1948
 8097TIP3   OH245705   5.286   6.548   1.979 -0.1553 -0.1980  0.0722
 8097TIP3    H145706   5.268   6.588   1.894 -0.1117 -2.8726 -1.2822
 8097TIP3    H245707   5.238   6.465   1.978 -0.3122 -0.2458  2.7629
 8098TIP3   OH245708   1.631   4.343  14.412 -0.4787 -0.5363  0.0597
 8098TIP3    H145709   1.700   4.376  14.470 -0.1482  0.3392 -0.8041
 8098TIP3    H245710   1.630   4.404  14.338 -2.3817 -0.3604  0.1810
 8099TIP3   OH245711   1.994   6.355  15.653 -0.1512 -0.4739 -0.1660
 8099TIP3    H145712   2.083   6.357  15.620  0.9068  1.2829  2.4670
 8099TIP3    H245713   1.967   6.446  15.659 -2.1030 -0.9477 -0.7154
 8100TIP3   OH245714   2.182   4.867   5.551 -0.1179 -0.5060  0.3318
 8100TIP3    H145715   2.207   4.958   5.542  1.1845 -1.0181 -2.3322
 8100TIP3    H245716   2.209   4.826   5.468 -2.4187 -2.9033  0.6109
 8101TIP3   OH245717   4.065   4.205  13.923  0.0601 -0.2435  0.3062
 8101TIP3    H145718   4.151   4.244  13.939  0.5143 -1.1368  0.1141
 8101TIP3    H245719   4.037   4.243  13.840  0.7564 -0.7552 -0.1699
 8102TIP3   OH245720   6.590   3.662  14.792  0.4538 -0.0289  0.0195
 8102TIP3    H145721   6.685   3.667  14.801  0.5909  0.2963 -1.3605
 8102TIP3    H245722   6.575   3.640  14.699 -0.7687 -2.7168  0.7465
 8103TIP3   OH245723   5.884   5.665  10.845  0.1957 -0.1602  0.4400
 8103TIP3    H145724   5.851   5.598  10.785  0.1629  0.1564  0.1057
 8103TIP3    H245725   5.968   5.691  10.809  0.7963 -0.9127  1.2513
 8104TIP3   OH245726   6.294   4.634   3.482 -0.0362  0.0017  0.0316
 8104TIP3    H145727   6.340   4.558   3.516 -0.0056 -0.1565 -0.3605
 8104TIP3    H245728   6.360   4.703   3.481 -0.2249  0.2082  0.9798
 8105TIP3   OH245729   2.751   5.142  13.436 -0.2398 -0.3236  0.0157
 8105TIP3    H145730   2.711   5.146  13.349  0.3440  0.7274 -0.2324
 8105TIP3    H245731   2.824   5.205  13.431 -0.9202  0.6676  1.6299
 8106TIP3   OH245732   6.597   1.846   0.188  0.2186 -0.1493  0.3418
 8106TIP3    H145733   6.633   1.768   0.232 -0.2130 -0.6334 -0.1471
 8106TIP3    H245734   6.525   1.874   0.245  1.9644  1.4575  1.8933
 8107TIP3   OH245735   4.958   0.764  17.134  0.3786  0.1156 -0.4118
 8107TIP3    H145736   4.902   0.688  17.146 -0.4547  0.8026  0.1595
 8107TIP3    H245737   5.019   0.761  17.207  1.8866 -1.2613 -1.6433
 8108TIP3   OH245738   2.922   1.594   6.384 -0.3524  0.7911  0.0481
 8108TIP3    H145739   2.851   1.557   6.437 -1.8161 -0.1120 -2.4008
 8108TIP3    H245740   3.002   1.555   6.421 -1.4498 -1.0572  0.5852
 8109TIP3   OH245741   2.860   3.347   0.450  0.0643 -0.1465  0.0887
 8109TIP3    H145742   2.780   3.362   0.500 -1.1647 -0.3946 -1.7219
 8109TIP3    H245743   2.846   3.263   0.406  0.0870  1.0645 -2.4287
 8110TIP3   OH245744   1.437   3.982   0.270  0.0887  0.2766 -0.2837
 8110TIP3    H145745   1.374   3.975   0.198  0.0583 -0.8625 -0.1613
 8110TIP3    H245746   1.452   4.076   0.279 -2.2198  0.6690  0.2229
 8111TIP3   OH245747   0.994   2.038  13.023 -0.3846  0.0529 -0.0388
 8111TIP3    H145748   1.017   2.128  13.045 -0.6851  0.0997  0.0841
 8111TIP3    H245749   1.009   2.031  12.929 -0.3270  0.2204 -0.0421
 8112TIP3   OH245750   6.275   6.133   0.106 -0.2509 -0.0225  0.9856
 8112TIP3    H145751   6.363   6.114   0.137  0.1143  1.7542  1.1140
 8112TIP3    H245752   6.285   6.148   0.012 -0.1798  1.3891  1.1991
 8113TIP3   OH245753   2.974   2.870  16.334 -0.1946 -0.5783  0.0110
 8113TIP3    H145754   2.943   2.835  16.418 -0.0136  0.2746  0.4406
 8113TIP3    H245755   3.046   2.811  16.309  0.2869 -0.3607  0.8592
 8114TIP3   OH245756   1.694   4.945  14.714 -0.0862  0.1448 -0.0100
 8114TIP3    H145757   1.716   4.862  14.672 -0.7371  0.8914 -1.9543
 8114TIP3    H245758   1.768   4.963  14.772  0.5953 -1.2231 -0.4086
 8115TIP3   OH245759   5.241   0.339  14.520 -0.0369  0.3656  0.4388
 8115TIP3    H145760   5.329   0.302  14.530 -0.6381 -0.5264  3.2813
 8115TIP3    H245761   5.211   0.308  14.435  2.6965  1.4532 -1.0353
 8116TIP3   OH245762   4.611   2.223   3.984  0.3803 -0.6204 -0.1018
 8116TIP3    H145763   4.702   2.232   3.957  1.0832  0.2293  2.2340
 8116TIP3    H245764   4.562   2.275   3.921  1.9254  1.5047  0.3245
 8117TIP3   OH245765   0.245   1.804  15.216 -0.3944 -0.6270 -0.2076
 8117TIP3    H145766   0.319   1.790  15.275 -0.7389 -0.7545  0.1954
 8117TIP3    H245767   0.280   1.862  15.148  0.0107 -0.4924  0.1100
 8118TIP3   OH245768   1.866   3.709   2.575 -0.1821  0.4867 -0.0876
 8118TIP3    H145769   1.845   3.708   2.482 -1.4966 -0.8498  0.1936
 8118TIP3    H245770   1.854   3.619   2.604  0.8530  0.7388  1.2525
 8119TIP3   OH245771   1.243   2.454   2.204  0.1473  0.2119 -0.0210
 8119TIP3    H145772   1.281   2.375   2.165 -0.7241 -1.6449  2.6454
 8119TIP3    H245773   1.318   2.503   2.237  0.5691 -1.2316  1.2769
 8120TIP3   OH245774   0.910   0.690   1.466 -0.1191  0.0384  0.1485
 8120TIP3    H145775   0.916   0.603   1.425  2.4138  0.9130 -1.5815
 8120TIP3    H245776   0.932   0.674   1.558  2.0629 -1.0210 -0.4769
 8121TIP3   OH245777   4.356   6.131   6.600  0.5278 -0.4114 -0.2398
 8121TIP3    H145778   4.315   6.055   6.559  1.1122 -0.0806 -1.4792
 8121TIP3    H245779   4.448   6.107   6.609  0.6516  0.0191 -0.3332
 8122TIP3   OH245780   4.069   1.864   0.555  0.0256  0.4585  0.0814
 8122TIP3    H145781   4.015   1.847   0.632  1.4174  1.0596  1.2245
 8122TIP3    H245782   4.008   1.897   0.489 -1.4678 -1.6238  0.3335
 8123TIP3   OH245783   3.153   0.777  15.280  0.2967  0.1255  0.3562
 8123TIP3    H145784   3.215   0.777  15.353  0.8434  1.2987 -0.0842
 8123TIP3    H245785   3.192   0.836  15.215 -1.5712  1.4328  0.3349
 8124TIP3   OH245786   1.186   4.175   5.862 -0.5652 -0.4281  0.5168
 8124TIP3    H145787   1.205   4.103   5.921  1.7360 -0.1895  0.1657
 8124TIP3    H245788   1.197   4.137   5.774  0.0360  0.1606  0.3252
 8125TIP3   OH245789   5.432   1.120  16.592  0.1663 -0.0935 -0.2482
 8125TIP3    H145790   5.527   1.104  16.585  0.3140 -0.9456  2.5955
 8125TIP3    H245791   5.419   1.152  16.681 -2.4769 -2.3364  0.3109
 8126TIP3   OH245792   0.823   5.204   3.498 -0.2401 -0.0394  0.0832
 8126TIP3    H145793   0.857   5.114   3.490  0.6016  0.3328 -0.6574
 8126TIP3    H245794   0.759   5.198   3.568  1.5505 -0.7297  1.7641
 8127TIP3   OH245795   2.328   5.602  12.209  0.2060 -0.1454 -0.2239
 8127TIP3    H145796   2.344   5.695  12.227  1.5655 -0.1942 -1.0461
 8127TIP3    H245797   2.415   5.562  12.209 -0.4447 -1.6902  1.4110
 8128TIP3   OH245798   6.379   6.283   3.418 -0.8404 -0.1316  0.2644
 8128TIP3    H145799   6.470   6.273   3.446 -0.5720  1.6680  0.1757
 8128TIP3    H245800   6.327   6.251   3.491 -0.1318 -0.4458  0.6360
 8129TIP3   OH245801   5.076   1.084  14.249  0.8454 -0.1253  0.6267
 8129TIP3    H145802   5.068   1.009  14.189  1.3463  0.5689 -0.3425
 8129TIP3    H245803   5.063   1.161  14.193  2.0850  0.5786  1.2561
 8130TIP3   OH245804   0.484   5.757  13.226  0.2772  0.5540 -0.2376
 8130TIP3    H145805   0.488   5.809  13.306  0.0658 -0.0058  0.1478
 8130TIP3    H245806   0.575   5.729  13.211 -0.0790 -1.9791  1.6216
 8131TIP3   OH245807   1.585   4.078  17.348  0.0626 -0.1690 -0.3532
 8131TIP3    H145808   1.654   4.036  17.399  0.1030  0.0521 -0.2245
 8131TIP3    H245809   1.549   4.007  17.294 -1.2649 -0.8697  1.3457
 8132TIP3   OH245810   1.293   4.139  13.901 -0.0483 -0.5813 -0.2259
 8132TIP3    H145811   1.349   4.136  13.823 -0.6606  1.8552 -0.8365
 8132TIP3    H245812   1.205   4.155  13.866  0.0128  3.2849  0.9255
 8133TIP3   OH245813   1.563   4.759   4.749 -0.2895 -0.5958 -0.2592
 8133TIP3    H145814   1.560   4.799   4.836 -0.3210 -0.6976 -0.2129
 8133TIP3    H245815   1.585   4.831   4.690  0.2456 -0.6274 -0.1035
 8134TIP3   OH245816   5.223   2.720  10.515  0.6139  0.5114  0.1195
 8134TIP3    H145817   5.137   2.678  10.516  0.6687  0.4019  0.4281
 8134TIP3    H245818   5.232   2.758  10.602  1.4495 -0.6818  0.5917
 8135TIP3   OH245819   0.267   4.529   1.307 -0.7755  0.2062  0.0349
 8135TIP3    H145820   0.291   4.594   1.241  0.4434  1.2595  1.4504
 8135TIP3    H245821   0.218   4.579   1.373 -3.0187 -1.0512 -0.5880
 8136TIP3   OH245822   0.263   5.680   0.251  0.3171 -0.1307  0.1332
 8136TIP3    H145823   0.212   5.691   0.332  0.6717 -0.2403  0.3740
 8136TIP3    H245824   0.288   5.769   0.227 -0.8892  0.0332 -0.5810
 8137TIP3   OH245825   1.251   1.764  11.746 -0.2342  0.0742  0.0896
 8137TIP3    H145826   1.314   1.824  11.787  2.5525 -1.5433 -1.5147
 8137TIP3    H245827   1.261   1.780  11.652 -1.0706 -1.3347 -0.2621
 8138TIP3   OH245828   0.673   4.049   2.645  0.0882 -0.0418 -0.5888
 8138TIP3    H145829   0.738   4.119   2.639 -0.2883  0.3642 -0.0270
 8138TIP3    H245830   0.713   3.985   2.703  0.2891 -0.1370 -0.8287
 8139TIP3   OH245831   5.312   5.982   0.526  0.3155 -0.2867 -0.1398
 8139TIP3    H145832   5.274   6.027   0.451  1.4093  1.3617  0.2494
 8139TIP3    H245833   5.402   5.962   0.499  0.3895 -0.6485  0.3564
 8140TIP3   OH245834   5.228   4.984  16.007 -0.4304 -0.4272 -0.1545
 8140TIP3    H145835   5.141   4.943  16.006 -0.9632  0.6767 -0.4608
 8140TIP3    H245836   5.265   4.959  16.091 -0.9148 -1.1710 -0.1490
 8141TIP3   OH245837   5.567   0.317   1.910  0.4250 -0.1086 -0.3062
 8141TIP3    H145838   5.488   0.283   1.868  0.5371 -1.1014  0.2714
 8141TIP3    H245839   5.625   0.242   1.917  0.1180 -0.1776  2.3130
 8142TIP3   OH245840   5.215   3.259   5.483 -0.1365  0.5484 -0.2912
 8142TIP3    H145841   5.170   3.175   5.478  0.3166  0.1825  1.2613
 8142TIP3    H245842   5.195   3.291   5.571 -0.2574  2.0472 -0.8394
 8143TIP3   OH245843   5.238   3.568   6.046  0.9119  0.1419 -0.7986
 8143TIP3    H145844   5.268   3.508   6.115  0.3465 -0.1665 -0.8090
 8143TIP3    H245845   5.218   3.650   6.093 -0.4616 -0.3801 -0.3938
 8144TIP3   OH245846   2.012   0.233   0.749 -0.4367  0.1474  0.2550
 8144TIP3    H145847   2.080   0.207   0.687  0.7364 -0.5098  1.7336
 8144TIP3    H245848   1.999   0.326   0.734 -1.1299 -0.2297 -1.8127
 8145TIP3   OH245849   0.565   4.325   6.225 -0.7254 -0.3599  0.0711
 8145TIP3    H145850   0.583   4.419   6.224  1.5761 -0.6919  1.7841
 8145TIP3    H245851   0.472   4.318   6.207 -0.7193  2.1537 -1.4363
 8146TIP3   OH245852   3.548   3.035  11.178 -0.2037  0.3535  0.4558
 8146TIP3    H145853   3.640   3.051  11.197  0.2398 -2.1386  0.7426
 8146TIP3    H245854   3.521   2.971  11.244 -1.8908  0.3536 -0.1809
 8147TIP3   OH245855   6.392   1.329   5.693 -0.5617 -0.4786  0.2210
 8147TIP3    H145856   6.366   1.241   5.668 -0.0312 -0.4501 -0.4550
 8147TIP3    H245857   6.394   1.328   5.789 -2.4960 -0.6332  0.3072
 8148TIP3   OH245858   0.034   1.381  15.152 -0.3900  0.2343  0.3716
 8148TIP3    H145859   0.039   1.469  15.190  0.7784 -0.0867  0.9914
 8148TIP3    H245860  -0.023   1.392  15.076  1.5694  2.0264 -0.9373
 8149TIP3   OH245861   0.988   0.254  12.243 -0.1216 -0.1132 -0.1769
 8149TIP3    H145862   0.986   0.198  12.165 -0.1935  1.1525 -1.1178
 8149TIP3    H245863   0.920   0.219  12.300  0.6906 -1.7691 -0.1505
 8150TIP3   OH245864   3.831   3.553  13.473 -0.6165  0.0761  0.5614
 8150TIP3    H145865   3.755   3.506  13.437 -0.3785 -1.2925  1.7825
 8150TIP3    H245866   3.805   3.646  13.469 -1.8406 -0.2743 -0.2133
 8151TIP3   OH245867   6.063   4.614  11.792 -0.2619 -0.7034  0.0193
 8151TIP3    H145868   6.134   4.612  11.856 -1.1916 -2.1266  1.0536
 8151TIP3    H245869   6.106   4.639  11.710  1.1190  0.1965  0.9597
 8152TIP3   OH245870   2.883   5.327  10.561 -0.5246  0.0674  0.2238
 8152TIP3    H145871   2.799   5.309  10.519 -0.1749  0.1496 -0.5400
 8152TIP3    H245872   2.866   5.321  10.655 -1.1952 -0.7353  0.0562
 8153TIP3   OH245873   1.335   2.281   5.832  0.0108  0.5291 -0.1719
 8153TIP3    H145874   1.381   2.206   5.796  0.9726  0.3934  1.2528
 8153TIP3    H245875   1.405   2.344   5.853 -0.6745  1.3237 -0.2172
 8154TIP3   OH245876   3.823   0.064   5.729 -0.0843 -0.2536 -0.1797
 8154TIP3    H145877   3.855   0.109   5.808 -0.5566  0.1575 -0.2137
 8154TIP3    H245878   3.729   0.085   5.726  0.4562  2.3912 -2.5611
 8155TIP3   OH245879   3.731   1.257  16.893 -0.5715  0.0206  0.2791
 8155TIP3    H145880   3.749   1.338  16.845  0.5714 -0.3299  0.0915
 8155TIP3    H245881   3.705   1.286  16.980 -3.5058  0.7086 -0.7003
 8156TIP3   OH245882   0.666   1.458   0.280  0.0891 -0.6299  0.2184
 8156TIP3    H145883   0.675   1.374   0.326 -1.4864 -0.5811  0.6543
 8156TIP3    H245884   0.653   1.523   0.349  0.6327 -0.1198 -0.1523
 8157TIP3   OH245885   3.672   2.140   5.216  0.8015 -0.0913 -0.5965
 8157TIP3    H145886   3.706   2.051   5.209  3.2885  0.7379  0.0711
 8157TIP3    H245887   3.687   2.177   5.129 -1.3365 -0.6183 -1.2507
 8158TIP3   OH245888   0.101   2.534   2.397  0.4102 -0.5763  0.3815
 8158TIP3    H145889   0.085   2.517   2.304 -1.0224 -1.1116  0.6926
 8158TIP3    H245890   0.136   2.452   2.431 -0.2589 -0.8012  0.5509
 8159TIP3   OH245891   0.590   0.754   4.471  0.0814  0.6929  0.4182
 8159TIP3    H145892   0.556   0.831   4.425 -1.6123 -1.3094 -2.0149
 8159TIP3    H245893   0.512   0.701   4.488  1.1123 -0.2144  2.6626
 8160TIP3   OH245894   4.452   6.153   5.877  0.7152 -0.1457 -0.0070
 8160TIP3    H145895   4.390   6.175   5.808  1.4737  2.1069 -0.0376
 8160TIP3    H245896   4.439   6.059   5.891 -2.5509  0.1628 -0.1312
 8161TIP3   OH245897   3.978   6.462  14.898  0.2377  0.0203 -0.5176
 8161TIP3    H145898   3.890   6.439  14.866  0.4186  0.1201 -1.0866
 8161TIP3    H245899   4.030   6.383  14.886 -0.4873 -1.1049  2.6298
 8162TIP3   OH245900   2.499   0.303   1.083  0.0411 -0.3773  0.1499
 8162TIP3    H145901   2.405   0.317   1.094  0.1429 -0.5602  1.3859
 8162TIP3    H245902   2.511   0.292   0.989 -1.0476  0.5513 -0.1212
 8163TIP3   OH245903   1.336   0.351   1.938  0.2135  0.3161  0.1652
 8163TIP3    H145904   1.425   0.381   1.957  0.3451  1.1124 -1.5120
 8163TIP3    H245905   1.345   0.292   1.863 -0.6904  0.7985 -0.3559
 8164TIP3   OH245906   1.291   6.674  13.496 -0.0111 -0.1740  0.1740
 8164TIP3    H145907   1.199   6.682  13.523 -0.2629  2.9180 -1.2519
 8164TIP3    H245908   1.286   6.645  13.405  0.3987  0.3303 -0.0140
 8165TIP3   OH245909   0.785   4.017   1.874  0.7810 -0.2118  0.2021
 8165TIP3    H145910   0.746   3.970   1.947  0.5230 -1.1257 -0.5059
 8165TIP3    H245911   0.863   4.058   1.911  1.2136 -1.4904  0.7840
 8166TIP3   OH245912   0.510   4.820   1.675 -0.7074 -0.0369  0.2242
 8166TIP3    H145913   0.485   4.902   1.634  0.9974  0.5684  0.3541
 8166TIP3    H245914   0.596   4.799   1.638 -0.5994 -1.1604  1.0529
 8167TIP3   OH245915   5.546   4.352   5.772 -0.3511 -0.2935 -0.1892
 8167TIP3    H145916   5.490   4.429   5.760  0.3969  0.3610  0.4019
 8167TIP3    H245917   5.593   4.368   5.854  1.8010 -0.0788 -1.3704
 8168TIP3   OH245918   3.036   5.347  15.282  0.4370 -0.2977 -0.0333
 8168TIP3    H145919   2.986   5.363  15.202  1.6636 -0.2291 -0.8049
 8168TIP3    H245920   3.010   5.418  15.341  0.4937  0.4150 -0.8451
 8169TIP3   OH245921   4.002   2.363  16.241 -0.6483 -0.0953  0.0584
 8169TIP3    H145922   4.018   2.282  16.192 -0.9223  0.5553 -1.1580
 8169TIP3    H245923   4.060   2.357  16.317 -1.8689 -2.1662  0.8963
 8170TIP3   OH245924   4.391   1.501  15.235 -0.2993  0.4596 -0.3831
 8170TIP3    H145925   4.398   1.593  15.209 -0.1330  0.2887 -0.9620
 8170TIP3    H245926   4.455   1.456  15.180 -0.2145  0.0286  0.0606
 8171TIP3   OH245927   2.417   2.813   6.195  0.2196 -0.2974 -0.4619
 8171TIP3    H145928   2.445   2.868   6.268  0.9341  0.0951 -1.0296
 8171TIP3    H245929   2.355   2.752   6.235 -0.7233  1.0130  0.1442
 8172TIP3   OH245930   4.980   2.225   0.667 -0.5707 -0.1623 -0.3207
 8172TIP3    H145931   4.918   2.297   0.663  1.6006  1.7803 -3.6921
 8172TIP3    H245932   5.063   2.266   0.694  0.3780 -1.6517 -0.8384
 8173TIP3   OH245933   1.002   4.983  12.426  0.0164  0.0809 -0.3455
 8173TIP3    H145934   1.029   4.920  12.359  0.8549  0.8812 -0.7651
 8173TIP3    H245935   0.931   4.938  12.473  0.8899 -1.3608 -0.3463
 8174TIP3   OH245936   1.854   6.436   3.089 -0.1684 -0.3136  0.3670
 8174TIP3    H145937   1.850   6.409   2.998 -0.4804 -0.1260  0.3212
 8174TIP3    H245938   1.870   6.355   3.138  0.2441 -0.3750  0.1278
 8175TIP3   OH245939   6.721   2.406   4.684 -0.1137 -0.7215 -0.0980
 8175TIP3    H145940   6.701   2.496   4.712  0.1745 -0.6872  0.0036
 8175TIP3    H245941   6.814   2.396   4.701  0.5424 -0.0402 -2.9024
 8176TIP3   OH245942   4.002   3.739   0.287 -0.2696 -0.2792  0.1992
 8176TIP3    H145943   3.965   3.826   0.272  1.7373  0.6191  0.1871
 8176TIP3    H245944   3.940   3.679   0.245 -0.8832  1.2565 -1.2001
 8177TIP3   OH245945   0.598   0.939   2.157  0.2719  0.1900 -0.2687
 8177TIP3    H145946   0.629   0.848   2.162 -1.1362 -0.2618  1.1171
 8177TIP3    H245947   0.674   0.991   2.183  0.4299 -0.7713  1.3153
 8178TIP3   OH245948   6.537   5.503   0.285 -0.6646 -0.2169  0.2591
 8178TIP3    H145949   6.484   5.424   0.273  0.3056 -0.6996 -1.0772
 8178TIP3    H245950   6.533   5.548   0.201  0.0260  0.3725  0.5311
 8179TIP3   OH245951   3.211   5.877   3.247  0.2693 -0.6009 -0.2546
 8179TIP3    H145952   3.179   5.794   3.211 -1.8543  0.7500 -1.7009
 8179TIP3    H245953   3.152   5.896   3.320  1.6005 -0.9661  0.9728
 8180TIP3   OH245954   6.102   4.842  17.099 -0.3640  0.1774  0.1941
 8180TIP3    H145955   6.098   4.749  17.120  1.6547 -0.0736 -0.3599
 8180TIP3    H245956   6.064   4.849  17.012  0.2814 -0.2751 -0.1289
 8181TIP3   OH245957   0.845   0.727   6.332  0.0562  0.1632  0.3427
 8181TIP3    H145958   0.886   0.785   6.269  0.1627 -0.4108 -0.1278
 8181TIP3    H245959   0.864   0.766   6.417  0.2911  0.7041  0.0448
 8182TIP3   OH245960   4.962   3.683   3.275 -0.0883 -0.5335 -0.3685
 8182TIP3    H145961   4.987   3.642   3.357 -0.1632 -0.5013 -0.3298
 8182TIP3    H245962   4.924   3.613   3.223 -1.3702 -0.2595  0.1749
 8183TIP3   OH245963   3.818   2.372   2.581  0.1212 -0.0101 -0.1708
 8183TIP3    H145964   3.750   2.363   2.648 -1.2954 -0.2626 -1.5901
 8183TIP3    H245965   3.849   2.283   2.567  0.6382  0.0838  0.3629
 8184TIP3   OH245966   1.674   0.733  14.526  0.5697  0.0185 -0.0021
 8184TIP3    H145967   1.756   0.775  14.502 -0.1247  1.8202  0.5849
 8184TIP3    H245968   1.697   0.673  14.597  1.4562  0.0989 -0.2165
 8185TIP3   OH245969   4.176   4.910   6.457  0.1912 -0.6881  0.2198
 8185TIP3    H145970   4.145   4.907   6.367 -0.3694  1.5260  0.2781
 8185TIP3    H245971   4.196   5.002   6.473 -0.0199 -0.9534  2.4535
 8186TIP3   OH245972   3.664   3.600   4.663 -0.4713  0.7828  0.0089
 8186TIP3    H145973   3.612   3.667   4.618  1.0937  1.7488 -0.4145
 8186TIP3    H245974   3.755   3.627   4.651  0.2462 -1.5354 -0.3509
 8187TIP3   OH245975   1.289   2.100  12.620  0.4975 -0.4042  0.0020
 8187TIP3    H145976   1.272   2.175  12.562  0.3872  1.2757  2.0731
 8187TIP3    H245977   1.377   2.071  12.596 -0.3546 -1.1990 -2.4346
 8188TIP3   OH245978   6.418   5.260   4.258  0.8821  0.5123  0.2973
 8188TIP3    H145979   6.405   5.355   4.267  0.3496  0.5929 -1.0405
 8188TIP3    H245980   6.337   5.222   4.292  1.4855  0.4734  1.7320
 8189TIP3   OH245981   5.408   6.205  16.224  0.3574  0.3315 -0.0144
 8189TIP3    H145982   5.471   6.160  16.281 -0.1685  0.7923  0.9652
 8189TIP3    H245983   5.342   6.138  16.204  0.2445  0.3118  0.4034
 8190TIP3   OH245984   6.523   0.178   2.942  0.0410  0.3361  0.0636
 8190TIP3    H145985   6.517   0.093   2.899  1.6289  0.1988  0.0512
 8190TIP3    H245986   6.509   0.241   2.872 -1.8955  0.1212  0.2049
 8191TIP3   OH245987   2.935   2.997  17.101 -0.1127 -0.3830 -0.1471
 8191TIP3    H145988   2.864   2.936  17.082 -1.3596  1.2378 -0.9312
 8191TIP3    H245989   2.994   2.990  17.026 -0.8960  0.2454 -0.8354
 8192TIP3   OH245990   0.928   2.595   0.550 -0.0740  0.0851  0.3052
 8192TIP3    H145991   0.892   2.569   0.466 -0.7553 -0.7554  0.8416
 8192TIP3    H245992   0.889   2.535   0.613  1.6350 -0.3329  1.0338
 8193TIP3   OH245993   2.990   1.430  11.946 -0.4851  0.2198 -0.1323
 8193TIP3    H145994   2.980   1.407  11.853 -0.2295 -1.0498  0.1368
 8193TIP3    H245995   3.061   1.494  11.947 -1.1882  1.0413 -0.9113
 8194TIP3   OH245996   0.830   2.714   6.358 -0.5790 -0.2334  0.6866
 8194TIP3    H145997   0.762   2.668   6.407 -0.1203 -0.6321  0.9640
 8194TIP3    H245998   0.785   2.750   6.282 -1.2546  0.1725  1.2668
 8195TIP3   OH245999   1.360   0.118   1.499  0.0593  0.2022 -0.2866
 8195TIP3    H146000   1.295   0.113   1.569 -0.7074 -0.7726 -1.0312
 8195TIP3    H246001   1.337   0.196   1.450 -0.6176 -0.1931 -0.6022
 8196TIP3   OH246002   6.524   4.702  13.405 -0.5273 -0.0912 -0.6074
 8196TIP3    H146003   6.479   4.633  13.356  0.5123 -0.8888 -0.4696
 8196TIP3    H246004   6.617   4.680  13.397 -0.1604  1.4132 -0.7348
 8197TIP3   OH246005   1.322   0.661   5.488 -0.2347 -0.1172 -0.1495
 8197TIP3    H146006   1.257   0.729   5.470 -0.4195 -0.5410 -1.1674
 8197TIP3    H246007   1.295   0.622   5.571  0.7745  2.1032  1.3139
 8198TIP3   OH246008   4.126   4.716   0.119 -0.5128 -0.6932  0.1152
 8198TIP3    H146009   4.174   4.719   0.202  0.2100  1.2595 -0.3032
 8198TIP3    H246010   4.048   4.769   0.135 -0.3448 -0.2661 -0.4499
 8199TIP3   OH246011   6.049   3.564   5.389  0.4003  0.0543  0.0213
 8199TIP3    H146012   6.006   3.497   5.443 -0.4377 -0.0657 -0.7627
 8199TIP3    H246013   6.112   3.606   5.448  0.3024 -0.8213  0.7714
 8200TIP3   OH246014   1.720   2.535  16.738 -0.2652 -0.1253 -0.2597
 8200TIP3    H146015   1.788   2.468  16.737 -0.2632 -0.1262 -0.1008
 8200TIP3    H246016   1.668   2.517  16.659 -0.0969 -0.1377 -0.3685
 8201TIP3   OH246017   5.518   0.354  14.870 -0.4110 -0.5846 -0.1789
 8201TIP3    H146018   5.458   0.388  14.803  0.4625 -0.2398 -0.8056
 8201TIP3    H246019   5.600   0.401  14.854 -0.0704 -0.7978  0.8842
 8202TIP3   OH246020   4.873   5.191   3.136  0.3195 -0.5783 -0.1089
 8202TIP3    H146021   4.867   5.129   3.209 -1.0042 -0.1306  0.1851
 8202TIP3    H246022   4.952   5.164   3.089  1.0018 -1.0950  1.2771
 8203TIP3   OH246023   2.576   0.044  16.338 -0.0128 -0.3352 -0.5288
 8203TIP3    H146024   2.612  -0.036  16.300 -0.2095 -0.2645 -0.8658
 8203TIP3    H246025   2.485   0.022  16.359  0.0618 -0.3392 -0.1971
 8204TIP3   OH246026   1.635   2.611  13.867  0.2433 -0.3833  0.6022
 8204TIP3    H146027   1.672   2.628  13.780 -0.1222 -2.2008  0.0366
 8204TIP3    H246028   1.565   2.675  13.877  1.7204  1.3075  0.5271
 8205TIP3   OH246029   2.809   1.082   4.295  0.3308 -0.2072  0.2928
 8205TIP3    H146030   2.844   1.171   4.284  1.1533 -0.2001  2.5527
 8205TIP3    H246031   2.718   1.096   4.320  0.3738 -0.0065  0.3420
 8206TIP3   OH246032   4.155   5.636  15.413  0.3750 -0.0210  0.4884
 8206TIP3    H146033   4.185   5.723  15.388  1.7217 -0.7651 -0.6224
 8206TIP3    H246034   4.060   5.644  15.420  0.2690  1.0996 -1.5131
 8207TIP3   OH246035   1.895   0.895   5.707 -0.1271  0.0045 -0.2760
 8207TIP3    H146036   1.859   0.983   5.714 -3.0050 -0.9769 -1.3328
 8207TIP3    H246037   1.868   0.851   5.787 -1.0542 -0.6390 -0.9178
 8208TIP3   OH246038   3.348   0.740   2.309  0.3278  0.0404  0.2830
 8208TIP3    H146039   3.302   0.716   2.228  0.2253  0.2526  0.2786
 8208TIP3    H246040   3.280   0.744   2.376  0.2620  0.8217  0.1796
 8209TIP3   OH246041   2.513   1.118   2.332 -0.1380  0.2549 -0.5137
 8209TIP3    H146042   2.544   1.170   2.258  2.2120 -0.3416 -0.0341
 8209TIP3    H246043   2.536   1.028   2.310 -0.0234 -0.0091  0.6241
 8210TIP3   OH246044   3.180   5.384  13.543  0.1690  0.2625  0.2904
 8210TIP3    H146045   3.217   5.419  13.624  1.1458  2.3101 -0.9689
 8210TIP3    H246046   3.235   5.420  13.474 -1.4998 -0.2616 -1.3941
 8211TIP3   OH246047   1.345   4.344  14.354 -0.3783  0.1327  0.1412
 8211TIP3    H146048   1.321   4.337  14.262 -0.1101  2.3753 -0.1655
 8211TIP3    H246049   1.438   4.365  14.353 -0.5021  0.7792  0.8776
 8212TIP3   OH246050   5.625   1.566   4.819  0.1412 -0.0392  0.0372
 8212TIP3    H146051   5.599   1.656   4.840 -1.5150 -0.8285  1.6316
 8212TIP3    H246052   5.711   1.556   4.858 -0.0098  0.6258  0.5620
 8213TIP3   OH246053   5.283   2.325   5.259 -0.3955  0.1422 -0.3898
 8213TIP3    H146054   5.284   2.293   5.349 -0.6186 -1.3220 -0.8783
 8213TIP3    H246055   5.266   2.419   5.267 -0.4909  0.0242  1.0860
 8214TIP3   OH246056   4.130   4.981  12.837 -0.7521  0.5375  0.4462
 8214TIP3    H146057   4.047   4.940  12.860 -0.9490 -0.9147 -2.3822
 8214TIP3    H246058   4.125   4.996  12.743  1.7170  1.5658  0.3880
 8215TIP3   OH246059   4.649   1.508  12.230  0.2038  0.5486  0.1536
 8215TIP3    H146060   4.740   1.478  12.238 -0.0296 -0.4520 -0.6828
 8215TIP3    H246061   4.655   1.589  12.179  0.7015  1.0987  1.0424
 8216TIP3   OH246062   3.673   6.443  12.301  0.0149  0.7865  0.0798
 8216TIP3    H146063   3.709   6.476  12.384 -1.4473  1.8341  0.3311
 8216TIP3    H246064   3.660   6.522  12.248 -0.0393  0.2278 -0.7492
 8217TIP3   OH246065   1.744   2.082   1.641 -0.8446 -0.4929  0.2252
 8217TIP3    H146066   1.774   2.066   1.730 -0.6243  0.4990  0.3376
 8217TIP3    H246067   1.819   2.059   1.586 -0.6742 -0.2422  0.3535
 8218TIP3   OH246068   6.301   5.662   0.410  0.0951 -0.5148 -0.2147
 8218TIP3    H146069   6.392   5.632   0.413  0.4474  0.5651  0.7823
 8218TIP3    H246070   6.304   5.752   0.444 -1.4314 -0.7089  0.5388
 8219TIP3   OH246071   4.533   3.283  11.837  0.2599 -0.7799  0.0423
 8219TIP3    H146072   4.525   3.191  11.863  0.1494 -0.6120  0.6053
 8219TIP3    H246073   4.599   3.282  11.767  0.5779 -1.2308  0.3429
 8220TIP3   OH246074   6.197   3.870  14.900 -0.5277  0.8868  0.2812
 8220TIP3    H146075   6.190   3.870  14.805  1.9933  3.4208 -0.0367
 8220TIP3    H246076   6.287   3.842  14.917 -1.2154 -0.4754  2.0394
 8221TIP3   OH246077   4.163   0.883   5.003 -1.1236 -0.1140 -0.5005
 8221TIP3    H146078   4.155   0.973   5.034  2.3469 -0.3691  1.7260
 8221TIP3    H246079   4.075   0.860   4.973 -2.3021  3.7514 -0.5951
 8222TIP3   OH246080   4.015   0.902  15.037  0.3601  0.0995 -0.3078
 8222TIP3    H146081   3.971   0.985  15.020 -0.1812 -0.1526 -0.1373
 8222TIP3    H246082   4.106   0.917  15.009  0.1989  0.6558 -0.5381
 8223TIP3   OH246083   0.454   0.493   3.977 -0.3678  0.3162  0.0245
 8223TIP3    H146084   0.496   0.504   3.892 -1.6561 -0.2776 -0.7353
 8223TIP3    H246085   0.525   0.470   4.037  0.4209 -0.2878 -1.1114
 8224TIP3   OH246086   4.693   4.871  13.331  0.2247  0.0649  0.0122
 8224TIP3    H146087   4.626   4.928  13.369  0.3709 -0.2279  0.7265
 8224TIP3    H246088   4.718   4.914  13.249 -0.7128  0.2580 -0.1784
 8225TIP3   OH246089   0.303   0.476  11.699  0.0490 -0.5326 -0.2343
 8225TIP3    H146090   0.213   0.502  11.681  0.3621 -0.1038 -1.2760
 8225TIP3    H246091   0.298   0.384  11.726 -0.8240 -0.1284  1.0724
 8226TIP3   OH246092   2.422   3.564   2.043  0.0399 -0.6347  0.2866
 8226TIP3    H146093   2.516   3.585   2.047  0.2938 -1.6084 -0.0513
 8226TIP3    H246094   2.378   3.648   2.037  1.0519 -0.2094 -2.4626
 8227TIP3   OH246095   5.175   5.918  12.343  0.0504  0.1370  0.0323
 8227TIP3    H146096   5.156   5.824  12.341  1.2642 -0.1853  1.7641
 8227TIP3    H246097   5.118   5.955  12.275 -0.2711 -1.8634 -0.8614
 8228TIP3   OH246098   0.807   1.605   3.078  0.2200  0.0934 -0.0110
 8228TIP3    H146099   0.838   1.551   3.005  1.1160  0.5438  0.0222
 8228TIP3    H246100   0.716   1.624   3.056  0.8056  1.2905 -1.7010
 8229TIP3   OH246101   3.574   5.128  11.653 -0.2055  0.3441 -0.2324
 8229TIP3    H146102   3.604   5.045  11.690 -1.5210 -0.8140 -1.6454
 8229TIP3    H246103   3.644   5.190  11.674  1.1931 -1.2906  0.1613
 8230TIP3   OH246104   2.338   3.969   1.021 -0.6178  0.1697  0.5827
 8230TIP3    H146105   2.432   3.969   1.042 -0.4356 -0.0447 -0.2067
 8230TIP3    H246106   2.330   3.906   0.949 -1.3552  0.2670  0.5744
 8231TIP3   OH246107   3.497   1.861  13.810  0.4322 -0.7505 -0.3809
 8231TIP3    H146108   3.422   1.823  13.765 -0.9584  1.2646  0.0802
 8231TIP3    H246109   3.513   1.945  13.766  0.3939  0.2809  1.4386
 8232TIP3   OH246110   6.747   3.649  11.337 -0.0173 -0.0962 -0.3634
 8232TIP3    H146111   6.752   3.568  11.286  0.4637 -0.1178 -0.2953
 8232TIP3    H246112   6.797   3.630  11.417 -0.4313  0.0659 -0.0620
 8233TIP3   OH246113   0.697   1.923   2.090 -0.0189 -0.2864 -0.2513
 8233TIP3    H146114   0.791   1.903   2.085 -0.0798 -0.5437 -0.4230
 8233TIP3    H246115   0.655   1.837   2.086 -0.2314 -0.2475  0.8229
 8234TIP3   OH246116   0.374   6.233  13.991  0.7856  0.1288  0.0017
 8234TIP3    H146117   0.390   6.253  14.084  1.1437  0.4783 -0.1328
 8234TIP3    H246118   0.369   6.137  13.988 -0.9394  0.1790  0.6539
 8235TIP3   OH246119   3.860   1.984  16.611  0.1618  0.7288  0.4993
 8235TIP3    H146120   3.892   1.992  16.521 -3.1428  1.4981 -0.7434
 8235TIP3    H246121   3.860   1.889  16.628 -0.2157  0.4821 -0.7525
 8236TIP3   OH246122   4.779   0.650  14.836  0.3418  0.1471  0.3188
 8236TIP3    H146123   4.766   0.736  14.795 -3.7217 -0.5561 -0.3329
 8236TIP3    H246124   4.791   0.670  14.929 -0.4789  1.4546  0.1753
 8237TIP3   OH246125   4.731   5.414   1.218 -0.3556  0.0599 -0.6110
 8237TIP3    H146126   4.677   5.393   1.143 -1.2936 -0.2152  0.1230
 8237TIP3    H246127   4.803   5.351   1.215  0.5844  1.1348 -2.2185
 8238TIP3   OH246128   3.240   0.010   4.892  0.4616 -0.2228 -0.2646
 8238TIP3    H146129   3.209   0.098   4.915  0.2185  0.1241 -1.7901
 8238TIP3    H246130   3.199  -0.047   4.957  0.6939  0.7799  0.8102
 8239TIP3   OH246131   1.934   2.545   4.459  0.0587  0.5159  0.0143
 8239TIP3    H146132   1.943   2.507   4.546 -1.6019 -0.9314 -0.4006
 8239TIP3    H246133   1.896   2.632   4.475 -2.4821 -0.6181  0.6879
 8240TIP3   OH246134   2.815   2.226   4.526  0.0040 -0.1707 -0.5548
 8240TIP3    H146135   2.906   2.235   4.554 -0.0143  0.6391 -0.7374
 8240TIP3    H246136   2.781   2.153   4.577  0.8207 -0.6264 -0.6480
 8241TIP3   OH246137   6.522   3.548   4.081  0.4535  0.4990 -0.0269
 8241TIP3    H146138   6.585   3.514   4.144 -1.1875 -0.2504  1.3085
 8241TIP3    H246139   6.456   3.592   4.134 -0.6920  0.3597 -1.2614
 8242TIP3   OH246140   5.907   3.945  10.806 -0.3554 -0.3598  0.4769
 8242TIP3    H146141   5.921   4.039  10.822  1.7487 -0.5023 -0.2853
 8242TIP3    H246142   5.974   3.902  10.859  1.1385 -1.2156 -1.9445
 8243TIP3   OH246143   3.430   2.297  14.546  0.0905  0.4495 -0.7402
 8243TIP3    H146144   3.413   2.220  14.600 -0.9968  0.4769 -1.0303
 8243TIP3    H246145   3.452   2.262  14.460 -0.5615  0.4625 -0.9147
 8244TIP3   OH246146   0.885   1.640   2.016  0.4892 -0.3641 -0.2760
 8244TIP3    H146147   0.929   1.557   2.030 -0.1720 -0.4325  1.6424
 8244TIP3    H246148   0.837   1.656   2.097  0.8059  2.0167 -0.4798
 8245TIP3   OH246149   6.404   2.439  10.294  0.2524  0.3040 -0.0821
 8245TIP3    H146150   6.395   2.344  10.291  0.3508  0.2297  1.3193
 8245TIP3    H246151   6.496   2.455  10.271 -0.4322  0.2944 -3.1660
 8246TIP3   OH246152   2.723   6.024   2.808 -0.3576 -0.2541 -0.2018
 8246TIP3    H146153   2.667   5.949   2.827  0.0999 -0.9538 -1.4936
 8246TIP3    H246154   2.791   6.020   2.875  0.4599 -1.8564 -1.0659
 8247TIP3   OH246155   6.595   5.409   4.528 -0.0609  0.2815 -0.4155
 8247TIP3    H146156   6.596   5.315   4.548  2.9366 -0.1100 -1.8718
 8247TIP3    H246157   6.548   5.448   4.602 -0.7236 -2.2527  0.6347
 8248TIP3   OH246158   1.175   6.703   4.822  0.3971 -0.2951  0.1824
 8248TIP3    H146159   1.149   6.795   4.823  1.7636  0.1351 -0.8246
 8248TIP3    H246160   1.102   6.656   4.863 -0.2232  1.2528  0.9040
 8249TIP3   OH246161   5.462   0.328  17.214  0.2985 -0.1975  0.0804
 8249TIP3    H146162   5.500   0.242  17.197 -1.0848 -0.6314 -0.9535
 8249TIP3    H246163   5.374   0.309  17.245 -0.3750  0.8734 -1.1260
 8250TIP3   OH246164   4.770   5.360  15.675 -0.2334 -0.0893  0.2300
 8250TIP3    H146165   4.717   5.285  15.701  2.0019 -1.8309  0.1132
 8250TIP3    H246166   4.714   5.436  15.689 -2.4775 -1.7415  0.7027
 8251TIP3   OH246167   3.848   1.015   2.128 -0.3316 -0.0547  0.0480
 8251TIP3    H146168   3.940   0.989   2.126 -0.1171  0.4390  2.0740
 8251TIP3    H246169   3.822   1.004   2.219 -2.0113  0.7697 -0.3066
 8252TIP3   OH246170   0.151   0.016  13.268 -0.1803  0.0490 -0.1991
 8252TIP3    H146171   0.190   0.098  13.237 -1.1849  0.3529 -0.7253
 8252TIP3    H246172   0.177  -0.049  13.203  1.5041 -0.3113  0.7739
 8253TIP3   OH246173   5.129   0.628  16.373  0.0289 -0.5554  0.5057
 8253TIP3    H146174   5.114   0.545  16.329 -1.3426 -0.9866  1.6875
 8253TIP3    H246175   5.085   0.693  16.318  0.3862 -0.7269  0.0129
 8254TIP3   OH246176   1.625   4.822   1.484  0.3324 -0.3100  0.1613
 8254TIP3    H146177   1.683   4.842   1.558 -1.1855 -0.2491  1.3905
 8254TIP3    H246178   1.540   4.857   1.511 -0.6180 -1.6747 -0.9611
 8255TIP3   OH246179   3.988   3.719   5.228 -0.4174  0.2482  0.1400
 8255TIP3    H146180   4.048   3.791   5.249 -0.2582 -0.1784  1.2112
 8255TIP3    H246181   3.901   3.757   5.240 -0.3336  0.1937  1.0095
 8256TIP3   OH246182   6.015   6.492   0.738 -0.0125 -0.0344  0.0815
 8256TIP3    H146183   5.933   6.444   0.751 -0.5565  0.8341 -0.1428
 8256TIP3    H246184   6.022   6.549   0.814 -0.8733  1.6962 -1.0975
 8257TIP3   OH246185   3.116   0.074   2.285  0.2044  0.0176 -0.9198
 8257TIP3    H146186   3.094   0.133   2.213  1.1583  2.5565  0.6999
 8257TIP3    H246187   3.183   0.122   2.335  1.0816 -2.5022  0.5207
 8258TIP3   OH246188   0.643   6.328   4.597  0.6876  0.3701 -0.4451
 8258TIP3    H146189   0.557   6.356   4.566  0.2854 -0.7687 -0.4279
 8258TIP3    H246190   0.670   6.397   4.658 -0.6149  0.3331  0.2225
 8259TIP3   OH246191   2.780   4.402  16.417  0.1046 -0.0782 -0.0765
 8259TIP3    H146192   2.852   4.463  16.401 -0.9309  1.8865  2.1511
 8259TIP3    H246193   2.804   4.357  16.498 -0.9965  0.4509  0.5826
 8260TIP3   OH246194   2.331   1.812  15.428  0.4393  0.4699 -0.5648
 8260TIP3    H146195   2.356   1.730  15.472 -0.4382  0.5850  0.1803
 8260TIP3    H246196   2.409   1.837  15.379  1.2126 -0.0608  0.3461
 8261TIP3   OH246197   2.750   0.427   3.469  0.2409 -0.2625 -0.2081
 8261TIP3    H146198   2.823   0.372   3.440  1.3290  0.2290  1.4476
 8261TIP3    H246199   2.770   0.447   3.561  0.2592  3.3848 -0.8518
 8262TIP3   OH246200   3.062   6.538  12.015  0.2919  0.2153 -0.2491
 8262TIP3    H146201   2.987   6.483  11.992 -1.7575  1.5310  2.6845
 8262TIP3    H246202   3.047   6.620  11.968 -0.5165  0.7025  0.8211
 8263TIP3   OH246203   6.184   5.417  12.311 -0.6314 -0.4999  0.5007
 8263TIP3    H146204   6.180   5.332  12.355 -0.7580 -0.9617 -0.3995
 8263TIP3    H246205   6.275   5.426  12.284 -0.5625 -0.2323  0.8180
 8264TIP3   OH246206   2.531   2.734  10.883 -0.0094 -0.1881  0.5653
 8264TIP3    H146207   2.454   2.790  10.877 -0.8879 -1.4807 -1.2270
 8264TIP3    H246208   2.496   2.646  10.898  1.0869 -0.8271 -0.4217
 8265TIP3   OH246209   2.504   2.161  15.549 -0.6189 -0.5016  0.1584
 8265TIP3    H146210   2.512   2.104  15.625 -0.6543  0.2997  0.7735
 8265TIP3    H246211   2.417   2.142  15.514 -0.1704 -1.6701 -0.3467
 8266TIP3   OH246212   2.514   3.041   4.382  0.4534  0.0849  0.4569
 8266TIP3    H146213   2.581   3.075   4.322 -1.0395 -3.0227 -3.4281
 8266TIP3    H246214   2.453   3.114   4.393  0.4291  0.6377 -2.5105
 8267TIP3   OH246215   6.120   5.934  16.824 -0.1983 -0.0420  0.3535
 8267TIP3    H146216   6.197   5.982  16.855 -2.0844  2.4461  1.6753
 8267TIP3    H246217   6.095   5.879  16.899  1.5038 -2.6806 -0.8862
 8268TIP3   OH246218   2.909   2.475  13.502  0.3853 -0.1479 -0.0978
 8268TIP3    H146219   2.955   2.395  13.526  1.4195  0.6864  0.7843
 8268TIP3    H246220   2.822   2.465  13.542  0.7881 -0.4830  0.7246
 8269TIP3   OH246221   0.413   2.053   3.812  0.0212 -0.7003 -0.2240
 8269TIP3    H146222   0.328   2.064   3.769 -0.2129  0.4264  0.5127
 8269TIP3    H246223   0.425   1.958   3.814 -1.2855 -0.8909 -0.2172
 8270TIP3   OH246224   6.447   0.250  11.878 -0.9691  0.1312  0.0254
 8270TIP3    H146225   6.405   0.288  11.955 -0.0325 -0.6167  0.9363
 8270TIP3    H246226   6.391   0.175  11.856 -1.3310  0.4442 -0.1371
 8271TIP3   OH246227   3.882   5.645  14.358  0.1830 -0.3403 -0.4286
 8271TIP3    H146228   3.968   5.654  14.399 -0.0066 -0.7412  0.0631
 8271TIP3    H246229   3.886   5.703  14.282  0.0727  1.4586  0.8823
 8272TIP3   OH246230   2.159   2.131  13.570  0.4645 -0.0069 -0.2905
 8272TIP3    H146231   2.092   2.076  13.530  0.5852 -0.4869  0.1606
 8272TIP3    H246232   2.127   2.220  13.559  1.1799  0.0276 -2.7892
 8273TIP3   OH246233   1.806   2.929   3.870  0.5053 -0.5289  0.2507
 8273TIP3    H146234   1.867   2.861   3.841  1.6183 -0.2006  1.7220
 8273TIP3    H246235   1.840   2.958   3.954 -2.7347 -1.6978  2.1695
 8274TIP3   OH246236   4.311   3.245  13.405  0.3288 -0.4707  0.3114
 8274TIP3    H146237   4.259   3.181  13.357 -0.0317  0.9799 -1.3343
 8274TIP3    H246238   4.395   3.246  13.361  0.9479 -1.0446  1.4355
 8275TIP3   OH246239   5.248   6.112  14.227  0.0888 -0.3491 -0.1735
 8275TIP3    H146240   5.289   6.027  14.218  0.1134 -0.4530  0.7986
 8275TIP3    H246241   5.254   6.133  14.320  0.3615  0.8557 -0.4362
 8276TIP3   OH246242   4.220   5.192   3.311 -0.1178 -0.4507  0.5824
 8276TIP3    H146243   4.225   5.279   3.272 -0.6338 -0.6637  0.0294
 8276TIP3    H246244   4.299   5.148   3.280 -0.3452 -0.5000  0.0605
 8277TIP3   OH246245   1.382   5.242   2.793 -0.2786  1.2810 -0.0700
 8277TIP3    H146246   1.392   5.311   2.728  0.1779  0.7570 -0.5666
 8277TIP3    H246247   1.305   5.193   2.765  0.6447  0.2883 -0.9518
 8278TIP3   OH246248   2.771   4.924  15.816 -0.4086 -0.0366  0.2628
 8278TIP3    H146249   2.748   4.989  15.882 -1.2554 -1.0438  0.9700
 8278TIP3    H246250   2.696   4.921  15.757  0.0233  0.2891 -0.3272
 8279TIP3   OH246251   4.524   3.835  14.264 -0.6019  0.2039  0.7333
 8279TIP3    H146252   4.444   3.886  14.249 -0.1607  0.5285 -0.6779
 8279TIP3    H246253   4.595   3.893  14.239 -0.0378 -0.7947 -0.0723
 8280TIP3   OH246254   2.454   6.444  11.805  0.5352  0.3181  0.2069
 8280TIP3    H146255   2.479   6.535  11.819  2.0883 -0.1715  0.8416
 8280TIP3    H246256   2.537   6.396  11.811 -0.3360 -1.1950  0.4713
 8281TIP3   OH246257   6.306   0.333  14.591  1.1645 -0.3439 -0.6469
 8281TIP3    H146258   6.379   0.272  14.599  0.5712 -1.0634 -0.6520
 8281TIP3    H246259   6.277   0.348  14.681  0.4560 -1.1298 -0.7329
 8282TIP3   OH246260   3.879   3.103   2.622 -0.0916 -0.0756 -0.5548
 8282TIP3    H146261   3.850   3.018   2.591  1.5517 -0.8742 -0.0279
 8282TIP3    H246262   3.857   3.104   2.715 -1.3513  0.6580 -0.8451
 8283TIP3   OH246263   2.804   1.261   3.186  0.0092 -0.0696 -0.1907
 8283TIP3    H146264   2.739   1.234   3.121  2.3197 -0.3460 -2.5610
 8283TIP3    H246265   2.815   1.355   3.170  0.6739 -0.1625 -0.2864
 8284TIP3   OH246266   2.332   2.399   1.136  0.2526 -0.1802  0.1952
 8284TIP3    H146267   2.263   2.363   1.081 -0.4186  0.6748  0.4392
 8284TIP3    H246268   2.358   2.327   1.193 -0.4934 -0.4996  0.1400
 8285TIP3   OH246269   6.253   0.013  16.042 -0.2733  0.2434  0.0535
 8285TIP3    H146270   6.331  -0.036  16.070  0.2418  0.8608 -0.3076
 8285TIP3    H246271   6.216   0.047  16.124 -1.9488 -2.6128  0.6247
 8286TIP3   OH246272   0.081   5.620  12.841 -0.3650 -0.3202 -0.2866
 8286TIP3    H146273   0.082   5.716  12.846 -1.4543 -0.2931 -0.2773
 8286TIP3    H246274   0.092   5.592  12.931 -1.1625 -0.1683 -0.1294
 8287TIP3   OH246275   4.119   3.529  11.017 -0.3777 -0.1318  0.1015
 8287TIP3    H146276   4.128   3.605  10.960  1.2116  0.3827  1.0031
 8287TIP3    H246277   4.194   3.473  10.995 -0.4497 -0.5227  0.8087
 8288TIP3   OH246278   0.557   4.040  11.630 -0.4350  0.1523  0.0548
 8288TIP3    H146279   0.560   4.025  11.725  0.3587 -3.6713 -0.3823
 8288TIP3    H246280   0.466   4.026  11.606 -0.6805  1.3491  0.2399
 8289TIP3   OH246281   1.009   3.515  15.057 -0.3988 -0.2990 -0.5041
 8289TIP3    H146282   0.943   3.463  15.104 -2.2044  1.9250 -0.4321
 8289TIP3    H246283   1.002   3.603  15.095  3.3383 -0.1294  0.1948
 8290TIP3   OH246284   6.218   4.146   5.411 -0.0739 -0.6629 -0.1498
 8290TIP3    H146285   6.283   4.110   5.471 -2.1988 -2.6569  1.1347
 8290TIP3    H246286   6.251   4.125   5.324  0.4877 -2.6916  0.5004
 8291TIP3   OH246287   6.734   1.275   1.249  0.2276 -0.1575 -0.6642
 8291TIP3    H146288   6.680   1.346   1.212 -0.0561  0.0805  0.1788
 8291TIP3    H246289   6.821   1.313   1.258 -0.2585  0.6390  1.2346
 8292TIP3   OH246290   1.963   3.634   4.066  0.2670 -0.0667 -0.7621
 8292TIP3    H146291   1.954   3.609   3.974  0.8527  0.5083 -0.9781
 8292TIP3    H246292   1.993   3.725   4.063 -0.0575  0.0675  0.0015
 8293TIP3   OH246293   4.239   0.492   5.974  0.5872 -0.0034 -0.2392
 8293TIP3    H146294   4.299   0.445   5.917  0.9507  0.9435 -0.6669
 8293TIP3    H246295   4.295   0.526   6.045  0.3964  0.0832 -0.1281
 8294TIP3   OH246296   2.422   5.868  17.189  0.0852 -0.4836 -0.3316
 8294TIP3    H146297   2.346   5.868  17.131 -0.0361  0.4873 -0.1870
 8294TIP3    H246298   2.486   5.811  17.146  0.2374  0.7046 -1.7427
 8295TIP3   OH246299   5.392   5.478  12.784 -0.4453  0.2265  0.4603
 8295TIP3    H146300   5.316   5.419  12.785  0.3123 -0.7715  0.2605
 8295TIP3    H246301   5.461   5.430  12.830 -0.3557  1.7488  2.0287
 8296TIP3   OH246302   0.079   0.226  13.446 -0.3736  0.1865  0.0077
 8296TIP3    H146303   0.111   0.138  13.464 -0.6115  0.2255  0.6789
 8296TIP3    H246304   0.159   0.280  13.442 -0.2608  0.0362  0.1813
 8297TIP3   OH246305   5.236   3.975  13.877  0.0872 -0.6966  0.3596
 8297TIP3    H146306   5.322   4.012  13.895  0.0768 -1.0379  1.1752
 8297TIP3    H246307   5.249   3.917  13.802  0.2095  0.5251 -0.5932
 8298TIP3   OH246308   4.278   5.451  13.991  0.8171 -0.0465  0.3456
 8298TIP3    H146309   4.224   5.401  13.930 -1.6685  1.7176  0.9558
 8298TIP3    H246310   4.255   5.416  14.077  1.2770  0.1850  0.5663
 8299TIP3   OH246311   5.473   2.210   1.929 -0.4901 -0.4986 -0.1259
 8299TIP3    H146312   5.412   2.267   1.975  2.9351  3.2816  0.2995
 8299TIP3    H246313   5.483   2.250   1.843 -0.4057 -2.4626 -1.0730
 8300TIP3   OH246314   0.949   6.523   2.077 -0.0848 -0.2100  0.2676
 8300TIP3    H146315   1.027   6.470   2.059  0.3680  0.9316 -1.3970
 8300TIP3    H246316   0.901   6.522   1.994 -0.6463  1.0339  0.5618
 8301TIP3   OH246317   0.776   2.938  15.819  0.6870 -0.0394  0.1330
 8301TIP3    H146318   0.849   2.976  15.770  0.1269  2.0671  0.8105
 8301TIP3    H246319   0.770   2.848  15.787  2.8620  0.0544 -0.7245
 8302TIP3   OH246320   5.300   4.546  13.302  0.4474  0.6044 -0.1716
 8302TIP3    H146321   5.294   4.582  13.391  0.0943 -2.1491  1.0244
 8302TIP3    H246322   5.330   4.456  13.315 -1.8143 -0.6328 -2.6679
 8303TIP3   OH246323   3.817   6.266  14.378 -0.0515  0.4836  0.2981
 8303TIP3    H146324   3.821   6.347  14.429  1.6064  1.4143 -1.2029
 8303TIP3    H246325   3.906   6.231  14.382 -0.4508 -0.6103 -0.1003
 8304TIP3   OH246326   4.593   0.736  15.659  0.0936  0.0411 -0.4413
 8304TIP3    H146327   4.539   0.705  15.732  1.7968  0.8437  1.2612
 8304TIP3    H246328   4.652   0.800  15.699  1.6722 -0.1094 -2.3911
 8305TIP3   OH246329   3.349   6.575  12.087  0.5764 -0.2027 -0.3048
 8305TIP3    H146330   3.387   6.520  12.018  0.8322  1.5569 -1.6565
 8305TIP3    H246331   3.254   6.561  12.079  0.6844 -1.4244  0.2774
 8306TIP3   OH246332   5.330   4.727   1.312  0.2488  0.1527 -0.2682
 8306TIP3    H146333   5.410   4.674   1.317 -1.4441 -2.4593  1.7854
 8306TIP3    H246334   5.300   4.718   1.222  0.3537 -1.9537 -0.1355
 8307TIP3   OH246335   0.539   1.007   4.360 -0.1204  0.1131  0.0486
 8307TIP3    H146336   0.538   1.010   4.265 -1.5270  0.1459  0.0519
 8307TIP3    H246337   0.577   1.091   4.386  1.6952 -0.4979 -0.4694
 8308TIP3   OH246338   6.252   0.280   4.418  0.0796 -0.2780  0.7263
 8308TIP3    H146339   6.179   0.313   4.366 -0.1284 -2.7684 -0.7271
 8308TIP3    H246340   6.211   0.222   4.483  0.6138  0.0635  1.3881
 8309TIP3   OH246341   4.581   4.387   1.952 -0.0503 -0.1076  0.1659
 8309TIP3    H146342   4.564   4.453   1.884 -1.4561 -1.3181 -0.7343
 8309TIP3    H246343   4.530   4.311   1.924  1.1790 -1.4388  1.3943
 8310TIP3   OH246344   4.750   6.754   5.134 -0.1751 -0.4663 -0.3311
 8310TIP3    H146345   4.671   6.793   5.095 -0.6666 -1.6872 -0.6153
 8310TIP3    H246346   4.786   6.824   5.189 -2.1167 -0.2264  0.7559
 8311TIP3   OH246347   5.054   2.899   6.051 -0.9299 -0.2552  0.6279
 8311TIP3    H146348   5.023   2.980   6.091  0.8889  0.7603  0.1434
 8311TIP3    H246349   5.083   2.845   6.124  0.5401  0.7780  0.8676
 8312TIP3   OH246350   5.995   6.287  17.305  0.8263 -0.2077 -0.0101
 8312TIP3    H146351   5.936   6.223  17.346  0.3998  1.2048  1.7566
 8312TIP3    H246352   5.943   6.325  17.235 -0.4741  1.0386  1.5400
 8313TIP3   OH246353   0.329   0.378  16.488  0.2575  0.2468 -0.0535
 8313TIP3    H146354   0.252   0.338  16.446  0.3781  1.0943 -1.1030
 8313TIP3    H246355   0.332   0.337  16.575 -2.9442  2.0464  1.0974
 8314TIP3   OH246356   0.427   1.748  10.996 -0.1987  0.2750  0.8841
 8314TIP3    H146357   0.467   1.704  11.071  1.3552 -0.1650 -0.1771
 8314TIP3    H246358   0.359   1.803  11.035 -1.4126 -2.1202  2.3542
 8315TIP3   OH246359   1.336   5.500  12.605 -0.4210  0.1948 -0.1804
 8315TIP3    H146360   1.262   5.560  12.594 -0.8877  0.4560  3.2739
 8315TIP3    H246361   1.303   5.415  12.577 -0.2778  1.1003 -3.5692
 8316TIP3   OH246362   4.475   0.390  15.315 -0.3058 -0.2324 -0.1295
 8316TIP3    H146363   4.492   0.482  15.331  0.5649 -0.3844 -0.0921
 8316TIP3    H246364   4.419   0.362  15.387 -1.8008  0.5986 -0.9382
 8317TIP3   OH246365   6.027   2.282  16.807 -0.5833 -0.0081 -0.1377
 8317TIP3    H146366   5.998   2.373  16.810  0.0542  0.2085 -0.3145
 8317TIP3    H246367   6.097   2.282  16.742 -2.1263 -1.0976 -1.8898
 8318TIP3   OH246368   2.008   0.201  14.957 -0.3287  0.1010  0.1054
 8318TIP3    H146369   2.002   0.272  14.893 -1.1769  2.1946  2.3489
 8318TIP3    H246370   1.918   0.176  14.975 -0.2968  1.1717  2.0775
 8319TIP3   OH246371   2.781   2.009   1.102  1.1158 -0.7860  0.0241
 8319TIP3    H146372   2.852   2.050   1.151  0.5667  0.4745 -0.2078
 8319TIP3    H246373   2.792   2.041   1.012 -0.8811  1.0460  0.3602
 8320TIP3   OH246374   1.666   1.684   4.009  0.0201 -0.4315  0.1751
 8320TIP3    H146375   1.732   1.668   3.942 -0.9536 -1.3368 -0.6048
 8320TIP3    H246376   1.646   1.777   4.001  1.5430 -0.0216  0.7723
 8321TIP3   OH246377   2.472   0.588   3.660  0.1896 -0.0027 -0.3049
 8321TIP3    H146378   2.433   0.504   3.636 -0.1232  0.4525 -1.4658
 8321TIP3    H246379   2.457   0.596   3.754 -2.2055 -0.0281 -0.6283
 8322TIP3   OH246380   2.465   5.771   4.378 -0.2152 -0.3213 -0.7734
 8322TIP3    H146381   2.423   5.767   4.463  1.7569  0.7058  0.3289
 8322TIP3    H246382   2.457   5.863   4.351  1.5361 -0.0035 -0.3552
 8323TIP3   OH246383   4.977   3.386  12.549  0.1110 -0.1797 -0.6479
 8323TIP3    H146384   4.975   3.322  12.620  0.8204  0.4779 -0.0189
 8323TIP3    H246385   5.061   3.371  12.506  0.3666  0.4458 -0.3772
 8324TIP3   OH246386   3.765   5.250   4.986  0.1514  0.3035  0.0586
 8324TIP3    H146387   3.719   5.191   5.046 -1.1789  1.1828 -0.0645
 8324TIP3    H246388   3.706   5.325   4.975  0.1435  0.0037 -2.6828
 8325TIP3   OH246389   3.876   6.656   5.527  0.2483 -0.4696 -0.2445
 8325TIP3    H146390   3.843   6.723   5.588 -0.8669 -0.9852 -0.2452
 8325TIP3    H246391   3.836   6.575   5.558  2.6841 -1.4195  0.5827
 8326TIP3   OH246392   3.146   4.145  11.524  0.5076  0.2632  0.3754
 8326TIP3    H146393   3.069   4.144  11.581 -0.0160  0.2816 -0.3143
 8326TIP3    H246394   3.206   4.082  11.564  0.0837  0.1569  0.8605
 8327TIP3   OH246395   0.778   6.354  14.751  0.1446 -0.3561  0.2171
 8327TIP3    H146396   0.866   6.332  14.722 -0.3907 -0.3536 -1.5200
 8327TIP3    H246397   0.752   6.283  14.810  0.4561 -1.5463 -1.0592
 8328TIP3   OH246398   0.299   4.767  13.334 -0.1678 -0.4718  0.2578
 8328TIP3    H146399   0.354   4.694  13.360 -0.2716 -0.6735 -0.0829
 8328TIP3    H246400   0.321   4.783  13.242 -0.2104 -0.1361  0.3029
 8329TIP3   OH246401   0.823   0.025  11.191  0.1942  0.1533  0.4467
 8329TIP3    H146402   0.752  -0.013  11.138  0.8137  1.1276 -1.1588
 8329TIP3    H246403   0.783   0.102  11.232 -0.3836 -0.7969  1.7271
 8330TIP3   OH246404   1.995   3.365   0.092  0.1702  0.3723  0.3481
 8330TIP3    H146405   1.966   3.369   0.184 -0.1783 -0.4371  0.2826
 8330TIP3    H246406   2.078   3.317   0.096 -0.7073 -1.2402  0.0734
 8331TIP3   OH246407   5.743   4.247   5.539  0.0472  0.0770 -0.0436
 8331TIP3    H146408   5.788   4.184   5.482  0.7820  1.1782 -0.7373
 8331TIP3    H246409   5.736   4.326   5.485 -2.4554  0.0651  0.1781
 8332TIP3   OH246410   5.476   3.007  15.047 -0.1810  0.2617  0.8410
 8332TIP3    H146411   5.485   2.955  15.127  0.7857 -0.6235  0.1731
 8332TIP3    H246412   5.552   3.064  15.046 -0.2375  0.3346  0.5880
 8333TIP3   OH246413   2.676   5.898  11.255 -0.4062 -0.4989 -0.8952
 8333TIP3    H146414   2.646   5.831  11.193  0.0922 -1.1325 -0.4567
 8333TIP3    H246415   2.639   5.871  11.339 -1.4395  0.5874 -0.9581
 8334TIP3   OH246416   6.567   6.757  17.028  1.0261  0.1342  0.3820
 8334TIP3    H146417   6.543   6.825  17.091  1.8784  0.2622  0.5824
 8334TIP3    H246418   6.549   6.675  17.074 -2.6432  0.1016 -0.8245
 8335TIP3   OH246419   0.082   4.929   5.643  0.1611 -0.9790 -0.3423
 8335TIP3    H146420   0.007   4.988   5.638  0.7035 -0.2540 -0.1914
 8335TIP3    H246421   0.082   4.883   5.559  0.6215  0.3841 -1.1221
 8336TIP3   OH246422   0.165   6.705  11.729 -0.2257  1.1490  0.3528
 8336TIP3    H146423   0.139   6.748  11.811 -1.7851  1.4954 -0.2835
 8336TIP3    H246424   0.258   6.688  11.740 -0.4782  0.7350  2.4165
 8337TIP3   OH246425   4.653   0.544  11.224 -0.1331  0.1232 -0.3656
 8337TIP3    H146426   4.674   0.457  11.258  0.5456 -0.3095 -1.7990
 8337TIP3    H246427   4.557   0.546  11.221 -0.1742 -0.3038  0.3203
 8338TIP3   OH246428   4.192   6.756   4.078 -0.3024  0.0517  0.9242
 8338TIP3    H146429   4.105   6.717   4.066 -0.6068  0.4604  1.7230
 8338TIP3    H246430   4.181   6.848   4.056  0.5834 -0.3758 -1.6593
 8339TIP3   OH246431   6.629   4.021   3.542  0.4737 -0.0736  0.2816
 8339TIP3    H146432   6.646   4.018   3.448 -0.5752 -0.3200  0.0892
 8339TIP3    H246433   6.682   4.095   3.573  1.8530 -0.7977 -0.2642
 8340TIP3   OH246434   0.288   0.663  12.621 -0.1556  0.3293 -0.1388
 8340TIP3    H146435   0.214   0.604  12.608  1.0106 -1.2857  0.0935
 8340TIP3    H246436   0.345   0.647  12.545  0.8730  0.0331  0.6633
 8341TIP3   OH246437   0.224   4.892  15.258 -0.0271 -0.3186 -0.0845
 8341TIP3    H146438   0.289   4.950  15.217 -1.3207  1.3901  0.1581
 8341TIP3    H246439   0.148   4.898  15.200  0.0979 -2.5871 -0.5673
 8342TIP3   OH246440   3.425   4.784   1.472 -0.0418 -0.0891  0.1783
 8342TIP3    H146441   3.423   4.718   1.541 -0.1229 -0.3743 -0.0967
 8342TIP3    H246442   3.467   4.740   1.398 -1.6232 -0.3845 -0.5789
 8343TIP3   OH246443   2.931   4.807   1.050  0.0167 -0.0675 -0.2016
 8343TIP3    H146444   2.994   4.841   1.113 -1.0617  0.3799  0.6748
 8343TIP3    H246445   2.972   4.729   1.014  0.4094 -0.6863  1.4974
 8344TIP3   OH246446   1.238   1.977   3.293 -0.1944  0.2040 -0.0883
 8344TIP3    H146447   1.167   1.917   3.272 -0.1977  0.0727  0.2852
 8344TIP3    H246448   1.219   2.056   3.243  0.6902 -0.6696 -1.9032
 8345TIP3   OH246449   5.492   3.629  17.062 -0.4764 -0.0864  0.7515
 8345TIP3    H146450   5.561   3.695  17.055 -0.0007 -0.7313 -1.2025
 8345TIP3    H246451   5.519   3.559  17.003 -1.7029 -1.3850  1.6531
 8346TIP3   OH246452   4.026   5.262   2.316 -0.0350  0.4548 -0.7520
 8346TIP3    H146453   4.085   5.198   2.276  0.0778  0.1658 -0.1270
 8346TIP3    H246454   4.059   5.274   2.405 -0.6089  0.6858 -0.5643
 8347TIP3   OH246455   2.322   4.881   2.721 -0.3848  0.0036 -0.0192
 8347TIP3    H146456   2.291   4.821   2.789 -1.0906  0.7287  0.3157
 8347TIP3    H246457   2.267   4.860   2.645 -0.1069 -0.2970 -0.1374
 8348TIP3   OH246458   0.239   6.179   4.189 -0.1419  0.0424 -0.6736
 8348TIP3    H146459   0.289   6.197   4.269  0.5777 -1.9192 -0.6250
 8348TIP3    H246460   0.147   6.179   4.217  0.1687 -2.1715  0.5573
 8349TIP3   OH246461   3.878   1.817   0.759  0.3710 -0.2693  0.0317
 8349TIP3    H146462   3.914   1.765   0.830  0.7831 -0.7491 -0.5190
 8349TIP3    H246463   3.788   1.836   0.786  0.9872  0.9107  1.4039
 8350TIP3   OH246464   5.356   6.635  14.844  0.1737  0.2638  0.0880
 8350TIP3    H146465   5.451   6.642  14.838  0.1632  0.3537  0.0316
 8350TIP3    H246466   5.332   6.697  14.913  0.2070 -0.1368  0.4683
 8351TIP3   OH246467   2.627   2.105  11.947 -0.5167 -0.5229 -0.1374
 8351TIP3    H146468   2.680   2.046  11.894 -0.5147 -0.3913 -0.2847
 8351TIP3    H246469   2.558   2.050  11.984 -1.8095 -0.2374 -1.9903
 8352TIP3   OH246470   4.836   3.480   1.655 -0.6676 -0.2980 -0.1757
 8352TIP3    H146471   4.790   3.473   1.738  0.9459  0.7210  0.8734
 8352TIP3    H246472   4.845   3.575   1.641  0.3250 -0.4582 -0.7500
 8353TIP3   OH246473   4.397   1.895   0.921 -0.6875  0.6356  0.5410
 8353TIP3    H146474   4.317   1.919   0.874 -0.5204  2.7351  1.1955
 8353TIP3    H246475   4.366   1.855   1.002 -1.1160  1.8349  0.9924
 8354TIP3   OH246476   4.507   1.136   3.637  0.1526 -0.6177 -0.0052
 8354TIP3    H146477   4.496   1.124   3.731 -0.4006 -1.7414 -0.1909
 8354TIP3    H246478   4.491   1.229   3.622 -1.3268 -0.7174  0.8166
 8355TIP3   OH246479   2.856   6.495   0.161 -0.2841 -0.2575  0.5415
 8355TIP3    H146480   2.866   6.425   0.097  1.6533  2.0276 -1.8870
 8355TIP3    H246481   2.924   6.479   0.226  1.1899  0.1374 -0.8448
 8356TIP3   OH246482   3.378   4.668  15.123  0.1795  0.2539  0.4213
 8356TIP3    H146483   3.420   4.588  15.092  0.9177  1.1598 -1.0549
 8356TIP3    H246484   3.382   4.663  15.218 -1.3739 -2.2606  0.4497
 8357TIP3   OH246485   2.556   2.301  10.887 -0.5903  0.3233  0.0543
 8357TIP3    H146486   2.602   2.291  10.803  0.8267  1.3411  0.6562
 8357TIP3    H246487   2.616   2.354  10.940 -1.7103  0.1727  1.5198
 8358TIP3   OH246488   2.460   2.481  12.098  0.0378 -0.2635  0.3968
 8358TIP3    H146489   2.537   2.454  12.048 -0.8316 -2.1745 -0.0232
 8358TIP3    H246490   2.468   2.436  12.182  0.4207  1.2422  1.2004
 8359TIP3   OH246491   1.207   2.239   3.215  0.3657 -0.2465 -0.6050
 8359TIP3    H146492   1.126   2.291   3.214  2.7094  4.1493  2.6108
 8359TIP3    H246493   1.267   2.288   3.158  1.7837 -1.2546 -0.0354
 8360TIP3   OH246494   2.467   2.134   2.190 -0.7267  0.4036  0.0394
 8360TIP3    H146495   2.420   2.060   2.230 -3.3975  1.4497 -0.9285
 8360TIP3    H246496   2.543   2.147   2.246 -1.2504 -1.8055  1.3928
 8361TIP3   OH246497   4.952   5.918   2.004  0.3811  0.8254 -0.2791
 8361TIP3    H146498   4.935   5.976   1.929  1.0810  0.4994 -0.6969
 8361TIP3    H246499   5.045   5.929   2.022  0.4623  0.0414 -0.1917
 8362TIP3   OH246500   5.288   2.089  13.958  0.0319  0.1639 -0.5116
 8362TIP3    H146501   5.203   2.055  13.932 -0.4906  1.2399 -0.2936
 8362TIP3    H246502   5.338   2.095  13.877 -0.4882  0.5516 -0.8085
 8363TIP3   OH246503   5.174   3.465  16.084  0.4114 -0.1858 -0.4453
 8363TIP3    H146504   5.174   3.478  16.178 -1.1583 -2.6979 -0.0097
 8363TIP3    H246505   5.259   3.498  16.055  0.5221  1.5758  1.6538
 8364TIP3   OH246506   2.913   2.221  14.300 -0.2676 -0.3924  0.0281
 8364TIP3    H146507   2.913   2.278  14.223  1.8022 -0.9175 -0.4085
 8364TIP3    H246508   2.841   2.160  14.284 -3.2209  2.5233  0.9622
 8365TIP3   OH246509   0.072   1.510   1.114  0.4718  0.0830  0.5157
 8365TIP3    H146510   0.108   1.560   1.041  0.6824  0.7239  1.0457
 8365TIP3    H246511   0.140   1.513   1.181 -0.6605  1.6173  1.6763
 8366TIP3   OH246512   0.053   4.734  11.302 -0.7910 -0.2835  0.2438
 8366TIP3    H146513   0.033   4.668  11.369 -0.9643  0.2471  0.7217
 8366TIP3    H246514   0.056   4.684  11.220  1.2143 -1.2629  0.8508
 8367TIP3   OH246515   4.780   0.561  17.200 -0.0248  0.1076  0.7318
 8367TIP3    H146516   4.843   0.493  17.222  0.8074  0.4573 -0.4714
 8367TIP3    H246517   4.701   0.514  17.173  0.9228 -0.4340 -1.2129
 8368TIP3   OH246518   3.481   1.179  12.679  0.3557  0.8460  0.3195
 8368TIP3    H146519   3.499   1.087  12.698  0.7474  0.9534  0.4731
 8368TIP3    H246520   3.405   1.201  12.734  0.0679  0.5334  0.0533
 8369TIP3   OH246521   1.804   1.333   0.432 -0.4032  0.2160  0.3709
 8369TIP3    H146522   1.878   1.372   0.385 -1.6370  1.5529 -0.5321
 8369TIP3    H246523   1.771   1.265   0.373 -0.9380  0.7850  0.0024
 8370TIP3   OH246524   3.280   6.394  15.472 -0.2041 -0.2747 -0.2284
 8370TIP3    H146525   3.262   6.314  15.423  1.3803 -0.8423  0.0375
 8370TIP3    H246526   3.247   6.465  15.417  2.1470 -0.8185 -2.5372
 8371TIP3   OH246527   2.759   0.867  16.256  0.3283 -0.3286  0.4983
 8371TIP3    H146528   2.738   0.863  16.162  1.9869 -0.1987  0.0843
 8371TIP3    H246529   2.833   0.808  16.266  0.4990  0.0570  1.6402
 8372TIP3   OH246530   0.705   6.721  16.058 -0.1315 -0.1237 -0.1985
 8372TIP3    H146531   0.636   6.743  16.120 -0.1026 -1.3945  0.3206
 8372TIP3    H246532   0.739   6.805  16.029 -1.2089  0.5123  0.3097
 8373TIP3   OH246533   2.798   2.881   0.761  0.1545 -0.1304 -0.1473
 8373TIP3    H146534   2.814   2.961   0.811  1.8968 -0.1156 -0.6996
 8373TIP3    H246535   2.705   2.886   0.738  0.1807  1.6118  0.0160
 8374TIP3   OH246536   0.017   3.129  13.901  0.0573  0.3293  0.2477
 8374TIP3    H146537   0.040   3.201  13.959  0.1297  0.7480 -0.2922
 8374TIP3    H246538   0.054   3.051  13.943  2.8568  0.9988 -0.7930
 8375TIP3   OH246539   4.602   4.700   5.061  0.3487 -0.4587  0.4597
 8375TIP3    H146540   4.597   4.628   5.125  0.8269  1.3860  2.6972
 8375TIP3    H246541   4.525   4.754   5.080 -0.2181 -0.5244 -1.4484
 8376TIP3   OH246542   6.583   3.955  14.113  0.1963  0.4739  0.5178
 8376TIP3    H146543   6.588   4.018  14.041 -1.4048 -1.0767 -1.0783
 8376TIP3    H246544   6.654   3.979  14.171  1.9567  1.5041 -1.8721
 8377TIP3   OH246545   5.176   4.860  10.644  0.4007 -0.3025 -0.0548
 8377TIP3    H146546   5.244   4.898  10.700 -0.0378  0.0071  0.2712
 8377TIP3    H246547   5.095   4.904  10.671 -0.8603 -3.9414  2.8970
 8378TIP3   OH246548   0.927   4.140  15.076 -0.1043 -0.1148  0.1454
 8378TIP3    H146549   0.911   4.079  15.148 -1.0591 -0.1162 -0.0577
 8378TIP3    H246550   1.016   4.172  15.091  0.8380 -2.3259 -0.3088
 8379TIP3   OH246551   1.214   3.103   1.284 -0.0529  0.2844 -0.2601
 8379TIP3    H146552   1.285   3.154   1.244 -1.1882  2.3786  0.2631
 8379TIP3    H246553   1.155   3.083   1.212  0.8588 -1.2259 -0.6457
 8380TIP3   OH246554   1.140   3.178  14.123 -0.1942  0.4114 -0.3610
 8380TIP3    H146555   1.169   3.094  14.157 -0.3486  0.4974 -0.0109
 8380TIP3    H246556   1.109   3.226  14.200 -2.3012 -0.0875 -0.8187
 8381TIP3   OH246557   3.238   1.847  13.681 -0.1474  0.4051 -0.0389
 8381TIP3    H146558   3.231   1.906  13.757  1.3045 -0.5287  0.8803
 8381TIP3    H246559   3.183   1.887  13.614 -1.0355  1.5669  1.3211
 8382TIP3   OH246560   5.651   0.197  13.949 -0.6176  0.0779 -0.2432
 8382TIP3    H146561   5.605   0.121  13.914 -3.2080  1.3048  0.3234
 8382TIP3    H246562   5.621   0.270  13.895  0.8239  0.9378  0.0552
 8383TIP3   OH246563   6.203   2.625  11.408 -0.1812 -0.0838  0.2754
 8383TIP3    H146564   6.130   2.675  11.372 -0.9379 -0.2304  1.5293
 8383TIP3    H246565   6.270   2.691  11.428 -0.0967  0.0917 -0.5472
 8384TIP3   OH246566   2.831   1.479   5.533  0.0406 -0.6270  0.2773
 8384TIP3    H146567   2.832   1.566   5.573  2.2652 -1.0669  1.3490
 8384TIP3    H246568   2.748   1.475   5.487 -0.1619  2.0351  0.2426
 8385TIP3   OH246569   4.996   6.096   6.304 -0.0272  0.1233  0.7642
 8385TIP3    H146570   4.943   6.033   6.255 -0.3488 -0.8542  2.3012
 8385TIP3    H246571   5.085   6.064   6.298 -0.0177  0.1955  0.5288
 8386TIP3   OH246572   6.403   1.102   1.734 -0.3926 -0.1920  0.7383
 8386TIP3    H146573   6.402   1.167   1.664 -0.5328 -0.1723  0.7588
 8386TIP3    H246574   6.312   1.095   1.762 -0.1173  1.1063  2.1176
 8387TIP3   OH246575   5.416   3.538   2.457  0.1143 -0.2928  0.4500
 8387TIP3    H146576   5.355   3.587   2.512 -0.8087 -2.3401  1.3664
 8387TIP3    H246577   5.502   3.558   2.494 -0.3649 -0.4689  1.7104
 8388TIP3   OH246578   1.528   3.384  13.358 -0.4363  0.1386 -0.1404
 8388TIP3    H146579   1.528   3.427  13.272  1.1151  0.1787 -0.1471
 8388TIP3    H246580   1.521   3.291  13.337 -0.0103  0.1443 -0.3103
 8389TIP3   OH246581   5.491   4.871   3.349 -0.1318  0.0906  0.4878
 8389TIP3    H146582   5.475   4.780   3.323 -0.7250  0.1935  0.4732
 8389TIP3    H246583   5.482   4.921   3.268  1.7243  0.0054  0.1913
 8390TIP3   OH246584   2.430   6.668  15.802 -0.1251 -0.3971  0.4095
 8390TIP3    H146585   2.371   6.593  15.801 -1.3459  0.5405  0.3415
 8390TIP3    H246586   2.436   6.692  15.894  0.9967 -1.1001  0.5503
 8391TIP3   OH246587   3.682   5.511   4.167 -0.2164  0.2384  0.7384
 8391TIP3    H146588   3.664   5.492   4.075 -2.1242  0.9275  0.9309
 8391TIP3    H246589   3.620   5.580   4.190  0.3824  0.2438  2.4971
 8392TIP3   OH246590   1.132   3.135  15.921 -0.2646  0.0782  0.0907
 8392TIP3    H146591   1.082   3.217  15.923 -0.1965  0.1163  0.2664
 8392TIP3    H246592   1.093   3.085  15.849  0.6074  0.8412 -0.9292
 8393TIP3   OH246593   1.009   3.439  10.508  0.1009 -0.0507 -0.0632
 8393TIP3    H146594   1.003   3.533  10.489  0.1503  0.2337  1.2398
 8393TIP3    H246595   0.963   3.429  10.591 -0.8341 -1.3629 -0.7035
 8394TIP3   OH246596   3.315   2.347   3.752 -0.3297 -0.0494  0.3109
 8394TIP3    H146597   3.272   2.415   3.804  1.2770  0.5898  0.8743
 8394TIP3    H246598   3.354   2.395   3.678  1.9063 -0.0634  1.3825
 8395TIP3   OH246599   6.038   1.282  11.991 -0.5619 -0.0969  0.3583
 8395TIP3    H146600   6.052   1.376  11.981 -1.8833  0.0967  0.2503
 8395TIP3    H246601   6.051   1.266  12.085 -0.9457  0.2975  0.4789
 8396TIP3   OH246602   2.661   0.245  15.458 -0.0286 -0.0824 -0.2540
 8396TIP3    H146603   2.730   0.199  15.410 -1.3144 -1.0257 -1.2813
 8396TIP3    H246604   2.623   0.179  15.515 -1.5483 -0.2094 -1.3600
 8397TIP3   OH246605   0.035   4.299   3.382 -0.6798  0.3389  0.2225
 8397TIP3    H146606   0.062   4.298   3.474  1.3244 -0.4881 -0.3275
 8397TIP3    H246607   0.087   4.230   3.341 -0.9910  1.1858 -1.6875
 8398TIP3   OH246608   4.617   3.404  13.723  0.3171  0.0736  0.1668
 8398TIP3    H146609   4.671   3.425  13.646 -0.4301 -1.5280 -0.8401
 8398TIP3    H246610   4.535   3.450  13.708 -0.2053 -1.0422 -0.5416
 8399TIP3   OH246611   6.740   6.647   5.665 -0.2403 -0.3877 -0.0105
 8399TIP3    H146612   6.828   6.640   5.628 -0.9094 -1.0771 -1.5619
 8399TIP3    H246613   6.751   6.698   5.745  1.3062  1.2151 -1.1708
 8400TIP3   OH246614   4.419   3.831  13.731  0.4460  0.3247 -0.1769
 8400TIP3    H146615   4.475   3.849  13.806 -0.0342 -0.0049  0.2778
 8400TIP3    H246616   4.356   3.903  13.730  0.5845  0.4425 -0.3945
 8401TIP3   OH246617   1.958   4.169   5.233  0.2656  0.2091 -0.4261
 8401TIP3    H146618   1.904   4.206   5.163  2.0987  2.0041 -0.9827
 8401TIP3    H246619   1.973   4.241   5.293  2.3290 -0.0962 -0.4974
 8402TIP3   OH246620   5.078   2.647  10.929  0.5118 -0.1929 -0.1331
 8402TIP3    H146621   5.039   2.561  10.917 -2.2017  1.2232 -2.7535
 8402TIP3    H246622   5.158   2.645  10.877  0.7107 -1.2419  0.1972
 8403TIP3   OH246623   3.999   4.939  14.671  0.0953 -0.7808 -0.3430
 8403TIP3    H146624   3.927   4.879  14.690 -2.0189  2.2733  2.4134
 8403TIP3    H246625   4.035   4.962  14.756  0.9743  1.5535 -1.2502
 8404TIP3   OH246626   2.876   3.523   3.126 -0.1238  0.4968 -0.0763
 8404TIP3    H146627   2.813   3.557   3.062 -0.9957  0.4372  0.7228
 8404TIP3    H246628   2.920   3.451   3.080 -0.7973  0.3964 -0.5896
 8405TIP3   OH246629   0.822   0.958  17.201 -0.2601  0.0198 -0.2022
 8405TIP3    H146630   0.853   0.883  17.252 -1.3491  0.0719  0.5578
 8405TIP3    H246631   0.729   0.962  17.219 -0.6987  0.0307 -2.2415
 8406TIP3   OH246632   6.378   0.027   4.268 -0.4443 -0.0178  0.0544
 8406TIP3    H146633   6.322   0.103   4.255  0.8837  0.8547 -0.7804
 8406TIP3    H246634   6.346  -0.013   4.349 -2.8654 -0.1136 -0.8624
 8407TIP3   OH246635   5.810   1.544   1.856 -0.3097  0.6940  0.5016
 8407TIP3    H146636   5.716   1.530   1.845  0.2978 -3.0703 -1.6285
 8407TIP3    H246637   5.849   1.457   1.841  3.5931  2.3180  0.1151
 8408TIP3   OH246638   1.799   6.083   1.261 -0.4755 -0.1467  0.1313
 8408TIP3    H146639   1.760   6.023   1.197  0.3887 -0.9256  0.3280
 8408TIP3    H246640   1.885   6.103   1.225 -0.9784  1.5014 -0.2547
 8409TIP3   OH246641   3.270   6.074   2.091 -0.1334  0.4041  0.5620
 8409TIP3    H146642   3.311   6.133   2.028 -1.9651  0.8375 -0.2935
 8409TIP3    H246643   3.338   6.057   2.156  1.9246 -0.2000 -1.5860
 8410TIP3   OH246644   4.065   1.572   4.296  0.6284 -0.3600 -0.2879
 8410TIP3    H146645   4.114   1.552   4.376 -0.4903 -0.9066  0.2852
 8410TIP3    H246646   4.018   1.654   4.316  1.0264 -0.0208 -0.7103
 8411TIP3   OH246647   0.880   1.236   2.640  0.0849 -0.7516 -0.3211
 8411TIP3    H146648   0.932   1.195   2.572 -1.2323 -1.8786 -0.7093
 8411TIP3    H246649   0.797   1.188   2.639 -0.6304  0.3728  0.8701
 8412TIP3   OH246650   4.670   2.956  13.418  0.6587 -0.1994  0.2380
 8412TIP3    H146651   4.666   3.029  13.357  0.8653 -0.8592 -0.5770
 8412TIP3    H246652   4.592   2.966  13.473  0.7929  0.7364  0.2593
 8413TIP3   OH246653   0.172   1.460  14.715  0.1960  0.0907 -0.0484
 8413TIP3    H146654   0.256   1.471  14.760 -0.1286  0.1498  0.5574
 8413TIP3    H246655   0.141   1.375  14.745 -0.6296  0.6976  0.8613
 8414TIP3   OH246656   5.538   1.073   5.734 -0.0465 -0.2553 -0.1570
 8414TIP3    H146657   5.595   1.102   5.663 -0.9061 -0.6017 -0.9995
 8414TIP3    H246658   5.589   1.006   5.779  0.9771  0.8081  0.3104
 8415TIP3   OH246659   0.478   5.314  17.371 -0.0308 -0.3267  0.1738
 8415TIP3    H146660   0.455   5.374  17.300 -2.3899 -0.8303  0.4510
 8415TIP3    H246661   0.450   5.358  17.451  0.8962 -0.5651  0.6420
 8416TIP3   OH246662   6.516   2.756  13.007 -0.2470  0.3796  0.3047
 8416TIP3    H146663   6.448   2.692  13.027  1.4417 -1.7732 -0.4482
 8416TIP3    H246664   6.551   2.728  12.923  1.5076  1.4797  0.6204
 8417TIP3   OH246665   2.147   2.047  17.303 -0.3069 -0.5565  0.1017
 8417TIP3    H146666   2.198   2.011  17.230  0.4330 -0.5478  0.5992
 8417TIP3    H246667   2.123   2.135  17.274  1.3217  0.0458  0.4511
 8418TIP3   OH246668   6.492   4.227  12.168 -0.0873 -0.1246 -0.2194
 8418TIP3    H146669   6.562   4.236  12.233  0.6229  0.1399 -1.0021
 8418TIP3    H246670   6.534   4.247  12.085 -0.7436 -1.3495 -0.8854
 8419TIP3   OH246671   0.609   1.854   4.369 -0.2660 -0.4900 -0.2339
 8419TIP3    H146672   0.669   1.780   4.380  1.8441  1.4106  2.6248
 8419TIP3    H246673   0.606   1.868   4.274  2.5569 -1.7254 -0.6309
 8420TIP3   OH246674   1.227   3.328   2.740 -0.5150 -0.4503 -0.1482
 8420TIP3    H146675   1.259   3.242   2.715  1.3572  0.4401 -1.0470
 8420TIP3    H246676   1.203   3.370   2.657  2.4932  1.2962 -0.2996
 8421TIP3   OH246677   3.822   6.565   1.579  0.1014  0.0377 -0.0530
 8421TIP3    H146678   3.734   6.529   1.584  0.0902  0.2268  2.5720
 8421TIP3    H246679   3.870   6.520   1.648  2.1633 -0.2198 -1.5592
 8422TIP3   OH246680   0.576   5.163  14.606  0.1738  0.0201  0.4777
 8422TIP3    H146681   0.589   5.078  14.649  1.8375 -0.2704 -0.5260
 8422TIP3    H246682   0.481   5.168  14.594 -0.3394 -0.1323  3.5782
 8423TIP3   OH246683   0.655   3.197   0.349  0.3939  0.0755 -0.2481
 8423TIP3    H146684   0.737   3.156   0.377 -0.9322 -3.0168 -0.5251
 8423TIP3    H246685   0.669   3.218   0.257  0.9098 -0.3107 -0.2642
 8424TIP3   OH246686   4.302   2.431  16.937  0.2362 -0.0771 -0.0960
 8424TIP3    H146687   4.259   2.467  17.015  0.4646 -3.3041  1.7247
 8424TIP3    H246688   4.320   2.507  16.882 -0.5777  2.3155  2.6670
 8425TIP3   OH246689   2.823   2.507  14.698 -0.3940 -0.0655 -0.7199
 8425TIP3    H146690   2.841   2.498  14.604 -1.0302 -0.6205 -0.7979
 8425TIP3    H246691   2.793   2.597  14.708 -1.0265 -0.2209 -1.1769
 8426TIP3   OH246692   2.888   4.564  13.593  0.1360  0.2603  0.5048
 8426TIP3    H146693   2.838   4.535  13.517 -1.7192  1.6544  1.1357
 8426TIP3    H246694   2.871   4.497  13.659 -0.8014  0.6412  0.6637
 8427TIP3   OH246695   2.577   0.086  15.659  0.3428  0.0037 -0.0611
 8427TIP3    H146696   2.509   0.023  15.681 -1.1757  1.7827  0.6206
 8427TIP3    H246697   2.614   0.114  15.743 -0.6692  1.7212 -0.1379
 8428TIP3   OH246698   5.447   1.424  12.125 -0.0752  0.0929  0.1111
 8428TIP3    H146699   5.512   1.357  12.148  0.2070 -0.3876 -1.8510
 8428TIP3    H246700   5.499   1.499  12.096 -0.3994  0.4730  0.5098
 8429TIP3   OH246701   5.385   0.063  11.404 -0.2717  0.0535  0.2605
 8429TIP3    H146702   5.316   0.061  11.470 -0.0368 -0.6750  0.4886
 8429TIP3    H246703   5.395  -0.028  11.377  0.2191  0.2324 -0.1698
 8430TIP3   OH246704   1.633   4.212  12.572  0.0727  0.1273 -0.8610
 8430TIP3    H146705   1.581   4.166  12.639  0.7121  0.3027 -0.2299
 8430TIP3    H246706   1.669   4.143  12.518  3.1594 -0.4448  1.6048
 8431TIP3   OH246707   4.611   1.247  16.808 -0.0148 -0.2563  0.3054
 8431TIP3    H146708   4.548   1.314  16.781 -0.2653  0.4126  2.3750
 8431TIP3    H246709   4.696   1.291  16.806 -0.3607  0.7887  3.3304
 8432TIP3   OH246710   2.226   1.425   6.339  0.1718  0.5546 -0.6575
 8432TIP3    H146711   2.281   1.349   6.321 -0.9296 -1.0111  2.0114
 8432TIP3    H246712   2.219   1.428   6.435 -2.1477  2.3031 -0.7888
 8433TIP3   OH246713   1.918   3.225  15.863  0.0774 -0.3418 -0.7487
 8433TIP3    H146714   1.952   3.292  15.803 -1.0443  0.8068 -0.1357
 8433TIP3    H246715   1.861   3.171  15.808 -2.0994  1.5728 -0.5051
 8434TIP3   OH246716   5.712   5.973   3.880  0.2706  0.1071 -0.0720
 8434TIP3    H146717   5.685   5.901   3.937 -0.8182  1.2826  0.9591
 8434TIP3    H246718   5.724   5.932   3.795 -0.3631 -1.2920  0.4733
 8435TIP3   OH246719   0.313   2.983   4.703  0.1799  0.3981  0.3971
 8435TIP3    H146720   0.350   2.940   4.626 -1.8944 -1.2890  0.2550
 8435TIP3    H246721   0.319   2.918   4.773  0.5713  1.3368  1.2742
 8436TIP3   OH246722   3.379   4.376   3.430  0.0575 -0.1451  0.8687
 8436TIP3    H146723   3.451   4.435   3.406 -0.1179 -0.8058 -1.6135
 8436TIP3    H246724   3.301   4.421   3.400 -0.1040 -1.4246 -0.8192
 8437TIP3   OH246725   0.022   2.219  16.517  0.7934  0.4096 -0.4073
 8437TIP3    H146726   0.075   2.213  16.437 -0.7970 -2.1347 -1.3922
 8437TIP3    H246727  -0.053   2.273  16.492  1.1069  0.9815 -0.1212
 8438TIP3   OH246728   1.944   4.189   5.907  0.0002 -1.1274 -0.3982
 8438TIP3    H146729   1.994   4.240   5.843 -1.2038 -1.0501 -1.2969
 8438TIP3    H246730   1.980   4.100   5.900  0.0039 -1.0785 -1.0526
 8439TIP3   OH246731   1.349   0.331   2.671  0.1998  0.9653 -0.2780
 8439TIP3    H146732   1.366   0.378   2.753 -1.8191 -0.4327  1.0289
 8439TIP3    H246733   1.267   0.285   2.686  0.6418 -0.7319 -2.5017
 8440TIP3   OH246734   2.185   1.776  13.710  0.5301 -0.4498  0.3892
 8440TIP3    H146735   2.159   1.863  13.742 -0.5413  0.2980 -2.2210
 8440TIP3    H246736   2.156   1.775  13.618  1.8965 -3.0097 -0.1015
 8441TIP3   OH246737   1.729   2.820   1.352 -0.0520  0.3190 -0.0559
 8441TIP3    H146738   1.688   2.883   1.291 -2.1967 -0.7625  0.1599
 8441TIP3    H246739   1.717   2.735   1.309  1.2090 -0.1467  0.4781
 8442TIP3   OH246740   5.742   2.213  11.083 -0.2895  0.5980  0.2173
 8442TIP3    H146741   5.648   2.197  11.071 -0.2493  1.1295 -0.8996
 8442TIP3    H246742   5.748   2.307  11.097 -0.0358  0.3876  1.7208
 8443TIP3   OH246743   4.264   6.622  15.817  0.4973  0.2548  0.2196
 8443TIP3    H146744   4.338   6.681  15.805  1.8158 -1.1698  0.8765
 8443TIP3    H246745   4.297   6.537  15.787 -0.8457 -0.4317  0.6355
 8444TIP3   OH246746   1.483   5.761   3.770 -0.4398 -0.5417  0.1587
 8444TIP3    H146747   1.443   5.714   3.843  0.4598  1.8817  2.3312
 8444TIP3    H246748   1.411   5.805   3.726 -0.7869 -0.6078  0.6628
 8445TIP3   OH246749   5.746   0.685   2.488  0.2198 -0.3463 -0.5192
 8445TIP3    H146750   5.667   0.733   2.460  1.5529  1.7517 -0.8795
 8445TIP3    H246751   5.712   0.612   2.540 -1.9421  0.8974 -0.0519
 8446TIP3   OH246752   0.961   1.704   3.453 -0.1859  0.2609 -0.6026
 8446TIP3    H146753   0.872   1.669   3.461 -0.0554 -0.0045 -0.2836
 8446TIP3    H246754   0.970   1.725   3.360 -0.1521 -0.8524 -0.8681
 8447TIP3   OH246755   0.938   2.210   3.244 -0.0892  0.1733 -0.2641
 8447TIP3    H146756   0.954   2.128   3.292  0.6062 -0.4742 -1.5425
 8447TIP3    H246757   0.909   2.181   3.157 -1.4091  1.3144 -0.2367
 8448TIP3   OH246758   4.612   3.734  15.097 -0.5800  0.2795 -0.0055
 8448TIP3    H146759   4.552   3.694  15.034  0.6118 -0.4470 -0.7206
 8448TIP3    H246760   4.624   3.668  15.165  1.4066 -0.6913 -1.1998
 8449TIP3   OH246761   2.347   3.182   2.790  0.3728 -0.3773  0.7033
 8449TIP3    H146762   2.293   3.154   2.864  1.1805  1.7992  2.2227
 8449TIP3    H246763   2.285   3.220   2.727 -0.0588  0.7327  1.7590
 8450TIP3   OH246764   5.372   6.398   4.047 -0.3207 -0.3423 -0.2530
 8450TIP3    H146765   5.467   6.391   4.052 -0.2152  1.1974  0.5314
 8450TIP3    H246766   5.349   6.360   3.962  0.7783 -2.3673  0.2799
 8451TIP3   OH246767   0.182   0.003   4.910  0.1107  0.0425 -0.3664
 8451TIP3    H146768   0.146   0.085   4.943  0.5337 -0.2227  0.8096
 8451TIP3    H246769   0.230  -0.033   4.985  0.1400 -1.1489 -0.9497
 8452TIP3   OH246770   2.630   3.443   3.580  0.5854  0.1376  0.1464
 8452TIP3    H146771   2.676   3.367   3.546  0.5972  0.3102 -0.2314
 8452TIP3    H246772   2.616   3.424   3.672 -0.6302 -0.9467 -0.2201
 8453TIP3   OH246773   4.712   3.395  14.679  0.2480  0.0405 -0.1917
 8453TIP3    H146774   4.805   3.417  14.676  0.5518 -0.9047  1.1507
 8453TIP3    H246775   4.671   3.466  14.729  0.5586 -0.4282  0.7419
 8454TIP3   OH246776   2.919   3.255   4.122  0.2863 -0.3074 -0.0351
 8454TIP3    H146777   2.956   3.340   4.100 -1.4688  0.0991 -1.5846
 8454TIP3    H246778   2.993   3.194   4.114  1.3221  0.8953  0.0674
 8455TIP3   OH246779   4.835   5.000  12.232 -0.5403  0.3108 -0.0065
 8455TIP3    H146780   4.889   4.954  12.167 -0.3700  0.4467  0.0368
 8455TIP3    H246781   4.755   5.023  12.184 -0.0741  1.1393 -0.4133
 8456TIP3   OH246782   2.814   6.331  12.704  0.1853  0.1840  0.7779
 8456TIP3    H146783   2.747   6.333  12.772  0.8165 -2.0585  1.5476
 8456TIP3    H246784   2.852   6.244  12.710 -0.0196 -0.2829 -2.7954
 8457TIP3   OH246785   1.851   3.730  16.665  0.0327  0.0849 -0.5696
 8457TIP3    H146786   1.773   3.721  16.719  0.1287  0.1699 -0.4174
 8457TIP3    H246787   1.866   3.825  16.660  1.2005  0.0133  0.9416
 8458TIP3   OH246788   5.423   3.258   2.483  0.1801  0.1737  0.0552
 8458TIP3    H146789   5.415   3.351   2.465 -0.1780  0.1761  0.2191
 8458TIP3    H246790   5.395   3.216   2.402  0.1220  0.2076  0.0573
 8459TIP3   OH246791   3.702   3.423   2.121 -0.4993  0.7245  0.1465
 8459TIP3    H146792   3.776   3.413   2.181  0.8960  2.0256 -1.2732
 8459TIP3    H246793   3.742   3.448   2.037 -2.3655 -1.0302 -1.3680
 8460TIP3   OH246794   4.133   5.003  14.191 -0.2741  0.2615  0.5933
 8460TIP3    H146795   4.210   5.012  14.134 -1.4674  2.7788 -0.7775
 8460TIP3    H246796   4.169   4.973  14.275  2.2048  1.2345 -0.0159
 8461TIP3   OH246797   5.831   1.299   0.541 -0.0806 -0.3022  0.0173
 8461TIP3    H146798   5.858   1.342   0.621  1.8932  0.4798 -1.0004
 8461TIP3    H246799   5.861   1.209   0.551  2.7450  0.4361 -0.8942
 8462TIP3   OH246800   5.800   6.294   0.798 -0.0340 -0.8492 -0.2918
 8462TIP3    H146801   5.809   6.237   0.722 -1.6585 -1.9445  0.2617
 8462TIP3    H246802   5.705   6.295   0.815  0.0120  1.5308  0.1075
 8463TIP3   OH246803   1.872   2.330  16.595 -0.2275 -0.2960 -0.1725
 8463TIP3    H146804   1.879   2.311  16.501  0.7282  0.1868 -0.2046
 8463TIP3    H246805   1.954   2.373  16.617  0.1137 -1.5528  1.1712
 8464TIP3   OH246806   5.783   2.926   4.931 -0.1025  0.3391 -0.0619
 8464TIP3    H146807   5.832   2.878   4.865 -0.3245  0.1280 -0.0721
 8464TIP3    H246808   5.796   2.876   5.012 -0.3927  0.2187 -0.0882
 8465TIP3   OH246809   2.134   0.279   3.305 -0.3328  0.0322 -0.0349
 8465TIP3    H146810   2.117   0.216   3.376 -0.0409 -2.0087 -1.6917
 8465TIP3    H246811   2.092   0.359   3.335  1.6934 -0.0027  3.4961
 8466TIP3   OH246812   2.925   2.970   0.545 -0.3965  0.0370  1.1854
 8466TIP3    H146813   2.887   2.935   0.625 -0.3325  0.3438  1.3510
 8466TIP3    H246814   2.967   2.895   0.503  1.1117  0.2189  2.3161
 8467TIP3   OH246815   2.093   3.883   3.468  0.0893 -0.0006 -0.2269
 8467TIP3    H146816   2.154   3.934   3.522 -0.0757  0.7855 -0.7629
 8467TIP3    H246817   2.107   3.793   3.495  3.3222 -0.2082 -2.0388
 8468TIP3   OH246818   6.025   6.689   4.020 -0.0368 -0.2607 -0.5088
 8468TIP3    H146819   6.085   6.763   4.010  0.2028 -0.1982  1.1205
 8468TIP3    H246820   6.082   6.613   4.030 -0.1635 -0.1481  1.4584
 8469TIP3   OH246821   0.117   1.319   5.689 -0.1807 -0.5577  0.3857
 8469TIP3    H146822   0.098   1.225   5.690 -1.1263 -0.4951 -2.7400
 8469TIP3    H246823   0.031   1.361   5.694  0.0756  0.0801 -0.4200
 8470TIP3   OH246824   5.971   0.502  14.685  0.1886  0.2852  0.1109
 8470TIP3    H146825   5.959   0.595  14.705  1.3770  0.1544  1.5602
 8470TIP3    H246826   6.026   0.502  14.607  0.8928  0.8123  0.5905
 8471TIP3   OH246827   3.688   2.739  14.957  0.0792  0.3214  0.0956
 8471TIP3    H146828   3.699   2.652  14.996 -1.0519 -0.3905 -1.0788
 8471TIP3    H246829   3.774   2.760  14.921  0.6588  0.2107  1.3801
 8472TIP3   OH246830   1.455   3.121   0.444  0.0943 -0.0245 -0.4941
 8472TIP3    H146831   1.437   3.054   0.510 -2.9284  0.8065 -0.3200
 8472TIP3    H246832   1.423   3.084   0.362 -2.5222  1.4215 -0.2365
 8473TIP3   OH246833   1.216   4.752   0.871 -0.4695  0.2442  0.0395
 8473TIP3    H146834   1.133   4.794   0.895 -0.4042 -0.3245  1.3670
 8473TIP3    H246835   1.263   4.744   0.954  0.2949 -0.7869 -0.4701
 8474TIP3   OH246836   0.832   0.228   0.159  0.1120 -0.5797 -0.3540
 8474TIP3    H146837   0.880   0.305   0.126 -0.0585 -1.2114 -2.1938
 8474TIP3    H246838   0.877   0.205   0.240 -0.4601  2.0524  0.8291
 8475TIP3   OH246839   3.672   4.380   1.167  0.0202  0.0874 -0.4542
 8475TIP3    H146840   3.723   4.383   1.086  0.4974 -2.8300 -0.3937
 8475TIP3    H246841   3.585   4.353   1.139  0.5726 -2.4908 -0.0020
 8476TIP3   OH246842   1.361   4.164   1.651 -0.2331  0.3187 -0.3176
 8476TIP3    H146843   1.343   4.179   1.558 -1.3741 -0.9775 -0.3388
 8476TIP3    H246844   1.323   4.240   1.696  1.8384  1.8502 -0.9721
 8477TIP3   OH246845   5.999   1.569   2.128 -0.9072  0.2828  0.4095
 8477TIP3    H146846   6.080   1.604   2.090  1.8133 -1.7091  3.6959
 8477TIP3    H246847   5.969   1.504   2.065 -0.2942  1.3961 -1.1054
 8478TIP3   OH246848   2.995   0.084   3.810  0.1546 -0.0773  0.1989
 8478TIP3    H146849   2.990   0.027   3.887  0.9301 -0.7119 -0.1935
 8478TIP3    H246850   2.929   0.151   3.825 -0.8745 -1.1529  0.6236
 8479TIP3   OH246851   6.044   0.714   0.504 -0.5840  0.6324  0.0459
 8479TIP3    H146852   6.041   0.806   0.477  1.0708  0.5861 -0.3860
 8479TIP3    H246853   6.118   0.710   0.564 -0.6249 -0.4415  0.0368
 8480TIP3   OH246854   2.686   5.435  17.160 -0.1926  0.1309 -0.1132
 8480TIP3    H146855   2.714   5.359  17.212 -1.4217 -0.9544 -0.9639
 8480TIP3    H246856   2.681   5.506  17.223 -1.1693 -1.0270  1.1876
 8481TIP3   OH246857   4.556   3.572   3.794  0.1593 -0.0952 -0.1177
 8481TIP3    H146858   4.553   3.556   3.700  1.3103  1.3698 -0.4438
 8481TIP3    H246859   4.581   3.488   3.832 -1.3060 -0.9675 -0.9942
 8482TIP3   OH246860   0.702   1.578   5.503 -0.3815  0.4749  0.4942
 8482TIP3    H146861   0.792   1.587   5.535 -0.0126 -1.0347 -0.0335
 8482TIP3    H246862   0.706   1.609   5.412  0.6714 -3.4306 -1.0000
 8483TIP3   OH246863   6.655   3.252   0.916 -0.9075 -0.2280  0.0901
 8483TIP3    H146864   6.706   3.269   0.837 -1.9028  0.4900 -0.4266
 8483TIP3    H246865   6.719   3.221   0.980  0.5458  2.3979  0.0570
 8484TIP3   OH246866   0.031   2.779  13.638  1.0789  0.0591  0.1448
 8484TIP3    H146867   0.083   2.849  13.600 -0.1810  0.7687 -0.3259
 8484TIP3    H246868   0.035   2.708  13.574 -3.2825  2.1875 -3.0079
 8485TIP3   OH246869   6.175   2.635   3.268  0.9860 -0.1344  0.0538
 8485TIP3    H146870   6.167   2.605   3.178  2.8914  0.5941 -0.4129
 8485TIP3    H246871   6.094   2.683   3.285  1.0958  0.7659 -1.7145
 8486TIP3   OH246872   5.899   6.035  17.026  0.6079  0.2016 -0.2342
 8486TIP3    H146873   5.963   6.100  16.998  0.5637 -0.0390 -0.9163
 8486TIP3    H246874   5.948   5.953  17.030  0.5910  0.2105  0.3211
 8487TIP3   OH246875   6.379   5.767   6.312 -0.3847  0.4841 -0.3725
 8487TIP3    H146876   6.284   5.754   6.320 -0.4412  1.0875 -0.0024
 8487TIP3    H246877   6.411   5.762   6.403  0.2113 -1.6578 -0.6323
 8488TIP3   OH246878   3.841   0.858   4.611 -0.1522 -0.1701  0.2423
 8488TIP3    H146879   3.887   0.780   4.579  0.4944  0.3718 -0.1829
 8488TIP3    H246880   3.900   0.930   4.591  0.3267  0.2239  2.7513
 8489TIP3   OH246881   2.961   0.438  11.500  0.2073  0.0198 -0.0317
 8489TIP3    H146882   3.052   0.461  11.520 -0.7123  1.4834  2.9931
 8489TIP3    H246883   2.934   0.502  11.434  1.8899 -1.7798 -2.6581
 8490TIP3   OH246884   2.226   4.138   1.345  0.4814 -0.8006  0.2910
 8490TIP3    H146885   2.208   4.076   1.274  0.9513 -2.9365  1.9379
 8490TIP3    H246886   2.146   4.140   1.396  0.3288  0.3218  0.0335
 8491TIP3   OH246887   2.426   5.144  13.557 -0.2133 -0.0103 -0.6906
 8491TIP3    H146888   2.441   5.050  13.565 -0.4448  0.0837  1.8188
 8491TIP3    H246889   2.341   5.152  13.513 -1.1585 -1.0786  0.8493
 8492TIP3   OH246890   4.854   1.586   0.687  0.2347  0.4675  0.3308
 8492TIP3    H146891   4.902   1.515   0.645  0.3004  0.9490 -0.4227
 8492TIP3    H246892   4.766   1.552   0.699  0.3646  0.1258  0.3100
 8493TIP3   OH246893   4.700   5.228   2.918  1.2350  0.3174  0.5017
 8493TIP3    H146894   4.617   5.195   2.952  0.3971  1.3844 -0.4153
 8493TIP3    H246895   4.764   5.207   2.986  0.6058 -2.2055  0.4203
 8494TIP3   OH246896   2.687   2.376  11.932 -0.2045 -0.0333  0.0164
 8494TIP3    H146897   2.782   2.368  11.929 -0.2907 -1.4102  0.2317
 8494TIP3    H246898   2.656   2.285  11.937 -1.5067  0.4231  0.4900
 8495TIP3   OH246899   5.825   3.902  11.135  0.0044 -1.0238  0.1385
 8495TIP3    H146900   5.907   3.886  11.087 -1.3755  1.1015 -3.2993
 8495TIP3    H246901   5.812   3.996  11.128 -1.9052 -1.0771  2.1624
 8496TIP3   OH246902   5.915   2.727   4.328 -0.6064 -0.0510 -0.0118
 8496TIP3    H146903   5.885   2.797   4.387 -2.4641 -2.0312  1.5566
 8496TIP3    H246904   5.885   2.754   4.242 -2.0931  0.6959  0.6938
 8497TIP3   OH246905   3.498   1.180  12.392 -0.1224 -0.1314 -0.6081
 8497TIP3    H146906   3.570   1.238  12.365 -0.2720  0.0368 -0.6478
 8497TIP3    H246907   3.506   1.175  12.487 -2.1108  2.6703 -0.1550
 8498TIP3   OH246908   0.332   3.503   1.838  0.3010  0.2453  0.1060
 8498TIP3    H146909   0.407   3.490   1.781  2.8032  0.1669  3.1177
 8498TIP3    H246910   0.360   3.470   1.924 -2.0738  2.8933  2.1332
 8499TIP3   OH246911   5.843   1.121  13.501 -0.6666  0.3315 -0.1987
 8499TIP3    H146912   5.910   1.181  13.533 -0.4689 -0.8076  1.7010
 8499TIP3    H246913   5.892   1.051  13.458 -0.9359  1.9154 -3.3655
 8500TIP3   OH246914   0.297   2.482  16.263  0.0751  0.0895  0.0007
 8500TIP3    H146915   0.256   2.467  16.178  1.0036  0.1215 -0.4657
 8500TIP3    H246916   0.318   2.395  16.295  1.0686  0.1404 -0.4879
 8501TIP3   OH246917   0.617   2.426  11.489 -0.3497 -0.2412 -0.1248
 8501TIP3    H146918   0.683   2.480  11.446 -0.8083 -0.7578 -1.5335
 8501TIP3    H246919   0.554   2.405  11.420 -1.8587  0.0199  1.1207
 8502TIP3   OH246920   1.749   2.946   3.178  0.5715 -0.1266  0.1877
 8502TIP3    H146921   1.678   2.910   3.126  0.2717  1.4273 -0.5113
 8502TIP3    H246922   1.716   2.945   3.268 -0.6100  1.1749 -0.2076
 8503TIP3   OH246923   1.857   4.320   1.563  0.1294  0.1175 -0.0137
 8503TIP3    H146924   1.807   4.402   1.561 -0.5914 -0.3054  0.1395
 8503TIP3    H246925   1.887   4.312   1.653 -1.5115 -0.7695  0.4925
 8504TIP3   OH246926   0.152   2.986   0.296 -0.3412 -0.1311 -0.0468
 8504TIP3    H146927   0.116   2.918   0.238 -0.1882  0.1080 -0.4270
 8504TIP3    H246928   0.161   3.063   0.239 -2.2081  0.7566  0.7787
 8505TIP3   OH246929   5.706   2.090  13.472 -0.5379  0.1648 -0.0945
 8505TIP3    H146930   5.655   2.170  13.472  0.3529  0.7598 -1.0868
 8505TIP3    H246931   5.680   2.045  13.392  1.1388  0.9370 -1.1197
 8506TIP3   OH246932   1.012   4.587  17.231 -0.7018 -0.4762 -0.9015
 8506TIP3    H146933   0.937   4.645  17.246  1.2720  2.2223 -0.8369
 8506TIP3    H246934   1.078   4.643  17.191  0.4900 -3.3404 -3.2669
 8507TIP3   OH246935   1.562   0.927   3.695 -0.1556  0.3999 -0.0457
 8507TIP3    H146936   1.472   0.933   3.663 -0.1265  1.7012  0.0727
 8507TIP3    H246937   1.614   0.967   3.627  0.2784  0.1584  0.1409
 8508TIP3   OH246938   3.447   2.181   2.518  0.2725  0.3662 -0.8241
 8508TIP3    H146939   3.486   2.242   2.581  0.1000  0.7864 -1.1155
 8508TIP3    H246940   3.366   2.152   2.560  1.7791 -2.0204  0.6480
 8509TIP3   OH246941   0.648   5.199   4.727 -0.5756  0.0110 -0.4642
 8509TIP3    H146942   0.639   5.104   4.731  0.2797 -0.1551 -1.8841
 8509TIP3    H246943   0.587   5.231   4.793 -1.4067 -1.4901 -0.4480
 8510TIP3   OH246944   4.582   2.604   2.974 -0.4135 -0.0407  0.4283
 8510TIP3    H146945   4.525   2.643   2.908 -0.6244 -0.9180  0.0872
 8510TIP3    H246946   4.559   2.511   2.974 -1.0411  0.0781  2.3578
 8511TIP3   OH246947   5.305   6.365   5.804  0.1894  0.1864  0.2262
 8511TIP3    H146948   5.287   6.282   5.759  0.2232  0.6480 -0.6497
 8511TIP3    H246949   5.304   6.342   5.897  2.5559 -1.2903 -0.0256
 8512TIP3   OH246950   2.379   0.388  15.017  0.0524  0.4153 -0.0854
 8512TIP3    H146951   2.411   0.471  14.982 -0.3007  0.3780 -0.4949
 8512TIP3    H246952   2.425   0.379  15.101 -0.6602  1.5176  0.4380
 8513TIP3   OH246953   6.629   2.717  15.207 -0.4200 -0.8490  0.0871
 8513TIP3    H146954   6.569   2.714  15.282 -0.8851  1.1115 -0.1409
 8513TIP3    H246955   6.577   2.684  15.134 -1.7835  2.0384 -0.3858
 8514TIP3   OH246956   6.687   3.759   5.781 -0.7228 -0.3010  0.1922
 8514TIP3    H146957   6.607   3.799   5.746 -0.4617  2.3304  2.2939
 8514TIP3    H246958   6.656   3.694   5.844 -1.1863 -0.4781 -0.2113
 8515TIP3   OH246959   5.566   5.785  14.671 -0.1991 -0.7513 -0.2385
 8515TIP3    H146960   5.533   5.875  14.677 -0.3160 -0.7458 -0.8445
 8515TIP3    H246961   5.630   5.777  14.742  0.8286  0.2413 -1.0214
 8516TIP3   OH246962   4.341   3.154   3.942 -0.2775  0.2734 -0.1205
 8516TIP3    H146963   4.277   3.103   3.892  0.1333  0.1412 -0.5195
 8516TIP3    H246964   4.305   3.243   3.943  0.0545  0.4437 -1.2841
 8517TIP3   OH246965   1.022   1.830  14.371  0.7727 -0.1024  0.2902
 8517TIP3    H146966   0.976   1.914  14.373  1.9951  0.5862  1.4723
 8517TIP3    H246967   1.088   1.837  14.441  1.4476 -1.7327 -0.1282
 8518TIP3   OH246968   3.601   5.338   1.861  0.4683  0.2897  0.1035
 8518TIP3    H146969   3.524   5.282   1.848 -1.2195  2.0215  1.9531
 8518TIP3    H246970   3.576   5.396   1.933  4.3286 -0.5055  2.3431
 8519TIP3   OH246971   2.090   1.416   0.592  0.0043 -0.2826  0.5574
 8519TIP3    H146972   2.097   1.464   0.674 -0.5257 -1.8949  1.5930
 8519TIP3    H246973   2.014   1.359   0.603 -0.4869 -0.0803 -1.3262
 8520TIP3   OH246974   0.358   6.737  14.820  0.1094  0.4599 -0.5899
 8520TIP3    H146975   0.424   6.675  14.853 -0.1656  0.8290  0.6983
 8520TIP3    H246976   0.380   6.747  14.727  1.5039  0.1039 -0.3318
 8521TIP3   OH246977   2.446   6.225  16.788 -0.2044  0.3818 -0.0439
 8521TIP3    H146978   2.356   6.196  16.800 -0.2551  0.1850 -0.8530
 8521TIP3    H246979   2.438   6.311  16.747 -0.0203  0.2629 -0.3280
 8522TIP3   OH246980   6.351   3.987  11.596 -0.1254  0.2064 -0.0108
 8522TIP3    H146981   6.334   4.036  11.515  1.0222 -0.4325 -0.6603
 8522TIP3    H246982   6.375   4.054  11.659 -0.1083  0.6323 -0.4577
 8523TIP3   OH246983   3.930   2.637  16.320 -0.1284 -0.2764 -0.4465
 8523TIP3    H146984   3.914   2.543  16.317  1.8747 -0.6386 -0.8336
 8523TIP3    H246985   3.927   2.659  16.413 -0.7388 -0.6683 -0.3606
 8524TIP3   OH246986   6.740   2.275  11.909  0.3394 -0.6414  0.3089
 8524TIP3    H146987   6.734   2.222  11.830 -1.7517 -0.7795  0.4810
 8524TIP3    H246988   6.762   2.212  11.978 -1.3207 -1.2087  0.3759
 8525TIP3   OH246989   0.916   1.642  13.290  0.1109 -0.5640 -0.8731
 8525TIP3    H146990   0.929   1.706  13.360 -1.0916  0.2634 -1.3562
 8525TIP3    H246991   0.961   1.680  13.215 -0.1949 -0.5142 -1.0339
 8526TIP3   OH246992   2.126   2.958   2.655 -0.4908  0.2538 -0.2465
 8526TIP3    H146993   2.114   3.032   2.596 -2.4402  1.3324  1.3266
 8526TIP3    H246994   2.209   2.975   2.698  0.0157  0.4740 -1.2886
 8527TIP3   OH246995   6.065   6.437   4.494 -0.0575  0.0349 -0.3996
 8527TIP3    H146996   6.062   6.454   4.588 -0.1810 -1.2527 -0.1428
 8527TIP3    H246997   6.020   6.353   4.484  0.8423 -0.3509 -1.4697
 8528TIP3   OH246998   0.602   6.107  16.453  0.2943  0.1462  0.6560
 8528TIP3    H146999   0.618   6.199  16.475  0.6070 -0.2005  1.9518
 8528TIP3    H247000   0.555   6.072  16.529  0.0440 -0.7206  0.1108
 8529TIP3   OH247001   2.204   5.579   1.875  0.2533  0.0230  0.3518
 8529TIP3    H147002   2.236   5.622   1.795  0.0272  0.9943  0.7744
 8529TIP3    H247003   2.280   5.578   1.933  0.0063  0.7263  0.6958
 8530TIP3   OH247004   5.805   2.821   1.547  0.6787  0.0729  0.1563
 8530TIP3    H147005   5.737   2.813   1.480 -1.1091  0.5930  1.8034
 8530TIP3    H247006   5.756   2.836   1.628  2.8232  1.7218  1.2311
 8531TIP3   OH247007   2.386   5.190   0.729 -0.1505  0.3852  0.0650
 8531TIP3    H147008   2.304   5.196   0.778  0.0398 -1.0321  0.6218
 8531TIP3    H247009   2.435   5.121   0.774  0.3642 -0.4040 -1.6523
 8532TIP3   OH247010   5.815   1.346  11.635 -0.5115 -0.4641 -0.1816
 8532TIP3    H147011   5.754   1.304  11.697 -0.1967 -0.1213  0.3614
 8532TIP3    H247012   5.786   1.437  11.631  0.2778 -0.1698  0.4871
 8533TIP3   OH247013   5.670   1.472  16.029  0.4911  0.2920 -0.0946
 8533TIP3    H147014   5.628   1.543  15.980 -1.1009  0.0310  0.8326
 8533TIP3    H247015   5.600   1.434  16.082  1.1455 -2.4015 -0.9996
 8534TIP3   OH247016   0.984   0.146   0.695 -0.0753 -0.2417 -0.2043
 8534TIP3    H147017   1.037   0.105   0.762  0.8383 -1.1472 -1.4393
 8534TIP3    H247018   0.960   0.075   0.636 -0.9986  0.4968 -0.7580
 8535TIP3   OH247019   5.937   2.487  15.260  0.8634  0.0770 -0.2501
 8535TIP3    H147020   5.989   2.474  15.181  1.6930 -0.1558  0.3255
 8535TIP3    H247021   5.927   2.400  15.298 -0.5374  0.0119 -0.6984
 8536TIP3   OH247022   6.579   5.088   4.840  0.4117  0.3087  0.9293
 8536TIP3    H147023   6.611   5.011   4.886 -0.6593 -0.5689  0.2422
 8536TIP3    H247024   6.485   5.087   4.853  0.1818  0.5370 -0.5286
 8537TIP3   OH247025   6.072   5.464  16.984  0.4034  0.2347 -0.2730
 8537TIP3    H147026   6.049   5.462  17.077 -0.4721  1.2401 -0.4547
 8537TIP3    H247027   6.153   5.514  16.980  0.1933  0.5863 -0.0990
 8538TIP3   OH247028   5.953   3.210   0.581  0.4708  0.1800  0.3317
 8538TIP3    H147029   5.995   3.296   0.575 -0.2645  0.5981  1.1220
 8538TIP3    H247030   6.004   3.163   0.647  0.0963  0.4646  0.8291
 8539TIP3   OH247031   0.063   3.359   6.029  0.2148 -0.5374  0.2419
 8539TIP3    H147032   0.074   3.436   5.974 -1.8965 -0.6900 -0.4850
 8539TIP3    H247033   0.149   3.346   6.070  1.4782  0.3892 -1.9449
 8540TIP3   OH247034   4.735   4.008  11.997 -0.0374  0.3853 -0.8222
 8540TIP3    H147035   4.806   3.975  12.053  0.2152  0.4446 -1.1077
 8540TIP3    H247036   4.668   3.940  12.001 -0.0159  0.3799 -0.4595
 8541TIP3   OH247037   0.264   1.989  12.352 -0.2046 -0.1553  0.2574
 8541TIP3    H147038   0.331   1.944  12.300 -0.0699 -0.6840  0.8794
 8541TIP3    H247039   0.312   2.055  12.401 -0.2585 -0.0003  0.1036
 8542TIP3   OH247040   0.486   4.695   5.358 -0.3157 -0.6691 -0.1427
 8542TIP3    H147041   0.559   4.704   5.419  0.8125  0.1365 -1.5298
 8542TIP3    H247042   0.459   4.603   5.366  1.1264 -1.0968  0.1313
 8543TIP3   OH247043   1.250   6.285   4.375 -0.4303 -0.2489 -0.0732
 8543TIP3    H147044   1.320   6.232   4.414 -1.1379 -0.3398  1.1187
 8543TIP3    H247045   1.292   6.331   4.303  0.8517 -0.3526  0.5810
 8544TIP3   OH247046   2.440   5.933   4.726  0.6781 -0.0213  0.0617
 8544TIP3    H147047   2.511   5.963   4.668 -0.6577 -0.1490 -1.7392
 8544TIP3    H247048   2.364   5.927   4.668 -0.7228 -0.2401  1.8640
 8545TIP3   OH247049   2.646   2.839   1.628  0.3640 -0.0286 -0.2491
 8545TIP3    H147050   2.615   2.890   1.703  0.7308 -0.8453  0.4734
 8545TIP3    H247051   2.609   2.752   1.641 -0.2901  0.0454 -1.4921
 8546TIP3   OH247052   6.688   3.012  14.604 -0.7526 -0.2622  0.8980
 8546TIP3    H147053   6.602   3.044  14.576  0.4039  1.5456 -0.8916
 8546TIP3    H247054   6.691   2.922  14.571 -1.4097  0.1443 -0.3396
 8547TIP3   OH247055   0.656   0.686   5.395  0.8183  0.0372 -0.2184
 8547TIP3    H147056   0.612   0.711   5.314  1.4764 -0.5524 -0.7692
 8547TIP3    H247057   0.585   0.659   5.454  0.4034 -0.3361 -0.8873
 8548TIP3   OH247058   3.056   3.655  11.349  0.0020  0.6581 -0.0791
 8548TIP3    H147059   3.125   3.698  11.298 -0.6263  1.2809 -0.4163
 8548TIP3    H247060   3.032   3.719  11.416 -0.8847  0.8012 -0.5307
 8549TIP3   OH247061   3.567   0.776  16.600  0.2878 -0.2108  0.3996
 8549TIP3    H147062   3.501   0.844  16.592  0.8758  1.1112  4.5116
 8549TIP3    H247063   3.517   0.695  16.611 -0.5817  0.3800  0.8714
 8550TIP3   OH247064   1.656   0.145  16.664  0.3323  0.0745 -0.2304
 8550TIP3    H147065   1.703   0.191  16.733  1.5353  1.0658 -1.6462
 8550TIP3    H247066   1.578   0.198  16.649  1.1047  1.0233 -1.0162
 8551TIP3   OH247067   3.184   6.356  12.811  0.0768 -0.1468 -0.0305
 8551TIP3    H147068   3.221   6.404  12.737  2.8262 -0.9960  0.6532
 8551TIP3    H247069   3.179   6.420  12.882 -1.0713  0.2846 -0.4808
 8552TIP3   OH247070   1.622   1.085   1.292  0.9626 -0.4701  0.1182
 8552TIP3    H147071   1.671   1.098   1.210 -1.4167  0.7998 -1.2069
 8552TIP3    H247072   1.665   1.143   1.355  2.3563 -0.8738 -0.4323
 8553TIP3   OH247073   3.716   1.890   2.694 -0.4193 -0.1169  0.7257
 8553TIP3    H147074   3.688   1.969   2.740 -0.1016 -0.7582  2.0683
 8553TIP3    H247075   3.794   1.861   2.741  1.5485  0.6381 -1.8172
 8554TIP3   OH247076   0.007   0.955  16.219 -0.7551  0.9749 -0.1300
 8554TIP3    H147077  -0.027   0.997  16.298 -0.6292  1.3301 -0.2633
 8554TIP3    H247078  -0.049   0.989  16.149 -2.3022 -0.9888  0.0533
 8555TIP3   OH247079   5.082   2.710   1.501  0.3304  0.4160 -0.4955
 8555TIP3    H147080   5.121   2.717   1.414  0.7295 -1.7217 -0.5441
 8555TIP3    H247081   5.046   2.622   1.504  0.0326  0.5575  1.3953
 8556TIP3   OH247082   4.418   0.540  13.955 -0.0686 -0.3301 -0.5778
 8556TIP3    H147083   4.400   0.523  13.863  1.8043  0.4568 -1.1358
 8556TIP3    H247084   4.502   0.496  13.972 -0.2255 -0.1928  0.6669
 8557TIP3   OH247085   5.678   4.300  14.926  0.0456  0.1596 -0.1283
 8557TIP3    H147086   5.725   4.260  14.853  0.0100  1.7917 -1.0970
 8557TIP3    H247087   5.589   4.311  14.894 -0.1070  0.4087  0.3602
 8558TIP3   OH247088   5.937   6.288  16.397 -0.0227 -0.0546 -0.3200
 8558TIP3    H147089   5.952   6.200  16.431 -0.2837  0.4091  1.0467
 8558TIP3    H247090   5.860   6.279  16.340 -0.4464 -0.5895  0.3318
 8559TIP3   OH247091   5.353   2.993  12.586  0.2318  0.1842 -0.1920
 8559TIP3    H147092   5.307   2.911  12.603  0.3376  0.4191  1.3289
 8559TIP3    H247093   5.442   2.966  12.562  0.2199 -0.1602  0.1380
 8560TIP3   OH247094   3.367   4.789   5.616  0.4971 -0.5367  0.8697
 8560TIP3    H147095   3.358   4.701   5.652 -1.4039 -0.5615  0.4180
 8560TIP3    H247096   3.461   4.798   5.599  0.9285 -1.9058  2.2859
 8561TIP3   OH247097   0.328   4.228   3.967 -0.1773  0.0611  0.0910
 8561TIP3    H147098   0.269   4.298   3.938  1.4313  1.2520 -0.4437
 8561TIP3    H247099   0.308   4.154   3.909  0.0165  1.0101 -1.2246
 8562TIP3   OH247100   2.772   6.448  16.248  0.0900  0.5686 -0.0501
 8562TIP3    H147101   2.844   6.406  16.201  0.0175 -1.1254  1.2454
 8562TIP3    H247102   2.697   6.438  16.190  0.3171 -0.1584 -0.2364
 8563TIP3   OH247103   1.280   1.381   0.864  0.7479 -0.6871 -0.0547
 8563TIP3    H147104   1.347   1.357   0.928  0.3149 -0.2783  0.5706
 8563TIP3    H247105   1.213   1.426   0.916  1.0344  0.9009 -1.0024
 8564TIP3   OH247106   4.903   3.712  17.297  0.5930 -0.3580  0.2450
 8564TIP3    H147107   4.900   3.765  17.376 -0.2974  0.3359 -0.2327
 8564TIP3    H247108   4.812   3.709  17.267  1.0049 -0.0428 -1.0995
 8565TIP3   OH247109   6.531   3.185  15.379 -0.3940  0.1478 -0.5410
 8565TIP3    H147110   6.492   3.101  15.353 -1.6197  1.2014 -2.3173
 8565TIP3    H247111   6.624   3.175  15.360  0.0319 -1.7740  2.0329
 8566TIP3   OH247112   6.366   4.095  14.650 -0.1795  0.5964 -0.5010
 8566TIP3    H147113   6.322   4.029  14.596  1.7063 -2.4927  1.3941
 8566TIP3    H247114   6.295   4.147  14.687 -1.9008 -1.0270 -1.3203
 8567TIP3   OH247115   4.645   3.205  16.841  0.5231 -0.4134 -0.1499
 8567TIP3    H147116   4.572   3.247  16.795  0.9970  1.8701  1.0679
 8567TIP3    H247117   4.717   3.205  16.778  0.0686 -0.9394 -0.6955
 8568TIP3   OH247118   5.993   4.364   4.560  0.0256 -0.1106  0.0018
 8568TIP3    H147119   5.982   4.314   4.479 -0.7332 -0.2894  0.2058
 8568TIP3    H247120   5.992   4.298   4.629 -1.3661  0.1879  0.3043
 8569TIP3   OH247121   3.456   6.258  13.193 -0.0765 -1.0127 -0.1686
 8569TIP3    H147122   3.408   6.194  13.141  0.9831 -2.0947  0.1362
 8569TIP3    H247123   3.442   6.342  13.147 -2.4011 -1.2188  0.0512
 8570TIP3   OH247124   4.489   4.538  15.941  0.5120  0.1898  0.2039
 8570TIP3    H147125   4.477   4.460  15.886 -0.2779 -0.1504  0.8523
 8570TIP3    H247126   4.490   4.505  16.030 -2.1230  1.1224  0.6568
 8571TIP3   OH247127   5.401   3.681  14.043  0.2752  0.1449 -0.7463
 8571TIP3    H147128   5.429   3.723  14.124 -0.6597 -3.6209  1.7724
 8571TIP3    H247129   5.476   3.627  14.016 -0.5143 -1.1357 -0.4720
 8572TIP3   OH247130   5.150   4.364   0.110 -0.1271  0.0894  0.2861
 8572TIP3    H147131   5.113   4.418   0.041 -0.7335  1.0399  1.3176
 8572TIP3    H247132   5.114   4.401   0.191 -0.1250 -1.5401  1.0571
 8573TIP3   OH247133   6.471   1.485  13.272  0.4505 -0.3317 -0.0147
 8573TIP3    H147134   6.534   1.437  13.326  1.2154  1.5415  0.8639
 8573TIP3    H247135   6.499   1.576  13.278 -1.3408  0.3448 -1.0309
 8574TIP3   OH247136   0.938   4.762   4.718  0.3934  0.1637  0.6820
 8574TIP3    H147137   0.846   4.738   4.727  0.1694  1.1176  1.0533
 8574TIP3    H247138   0.978   4.688   4.671 -0.6680 -0.0166  0.0409
 8575TIP3   OH247139   6.366   1.280  17.232  0.9520  0.4742 -0.0981
 8575TIP3    H147140   6.281   1.316  17.207 -0.0274 -1.9395 -0.5550
 8575TIP3    H247141   6.356   1.258  17.325  1.4895  1.2291  0.1435
 8576TIP3   OH247142   5.021   2.958  14.019  0.4816 -0.2387  0.0912
 8576TIP3    H147143   5.027   2.869  14.053  1.0965  0.3540  1.6042
 8576TIP3    H247144   5.110   2.993  14.027  0.0165  0.8966  0.6388
 8577TIP3   OH247145   2.574   5.487   3.681  0.5168 -0.0176  0.5217
 8577TIP3    H147146   2.486   5.481   3.719 -0.9711 -0.1744 -2.5563
 8577TIP3    H247147   2.571   5.428   3.606  2.6564  1.3235 -0.7305
 8578TIP3   OH247148   3.379   2.042   5.816 -0.5758 -0.0942 -0.4986
 8578TIP3    H147149   3.443   2.093   5.766  1.0639  0.0052  1.5340
 8578TIP3    H247150   3.305   2.032   5.757  0.8274  0.8356 -2.5530
 8579TIP3   OH247151   4.483   3.229  14.320  0.0049  0.4144 -0.0951
 8579TIP3    H147152   4.534   3.261  14.246 -0.8000  0.4083 -0.6645
 8579TIP3    H247153   4.432   3.304  14.349 -0.4010  0.1662 -0.1615
 8580TIP3   OH247154   0.903   6.730  13.873  0.0062 -0.2539 -0.2080
 8580TIP3    H147155   0.944   6.781  13.943 -1.2348 -1.7171  1.6716
 8580TIP3    H247156   0.960   6.654  13.861 -0.1080 -0.3200 -0.3449
 8581TIP3   OH247157   5.225   1.212  11.442  0.6338  0.5301  0.3460
 8581TIP3    H147158   5.141   1.170  11.424  1.9073 -1.0949 -2.5713
 8581TIP3    H247159   5.283   1.138  11.465  1.9646  1.2031 -0.7494
 8582TIP3   OH247160   6.614   5.261  13.664 -0.0108 -0.8298 -1.0350
 8582TIP3    H147161   6.666   5.199  13.613 -0.3099 -1.6029 -0.4271
 8582TIP3    H247162   6.599   5.216  13.747  0.4067  0.3679 -0.2881
 8583TIP3   OH247163   2.402   5.953  11.094 -0.1811 -0.4525  0.7921
 8583TIP3    H147164   2.321   5.926  11.051  0.0713  0.5257 -0.3141
 8583TIP3    H247165   2.464   5.882  11.075 -0.4753 -0.6961  0.7424
 8584TIP3   OH247166   6.485   5.614   4.664 -0.2602 -0.4230  0.3096
 8584TIP3    H147167   6.561   5.671   4.652  0.4259 -1.4939 -0.6912
 8584TIP3    H247168   6.430   5.631   4.588 -1.3198  0.7454  1.3066
 8585TIP3   OH247169   0.130   6.611   3.658 -0.3109  0.4962  0.2768
 8585TIP3    H147170   0.207   6.621   3.602  1.3761 -1.7648  1.9577
 8585TIP3    H247171   0.130   6.689   3.714  0.4845  0.7589 -0.0808
 8586TIP3   OH247172   2.023   1.494   3.094 -0.6603 -0.2217 -0.0331
 8586TIP3    H147173   2.036   1.400   3.105  2.1571  0.3155  3.3588
 8586TIP3    H247174   1.981   1.522   3.176  0.8209  1.6973  0.1578
 8587TIP3   OH247175   5.035   2.039   1.404 -0.0854  1.0155  0.4820
 8587TIP3    H147176   4.993   1.972   1.457 -1.5444  2.4836  1.2656
 8587TIP3    H247177   5.113   2.063   1.454 -0.1282  0.6583  0.7257
 8588TIP3   OH247178   2.460   3.985  14.383 -0.2542  0.1737 -0.2700
 8588TIP3    H147179   2.391   3.971  14.447  0.4001 -1.2252  0.1644
 8588TIP3    H247180   2.439   3.925  14.312  0.4456 -0.1578 -0.1962
 8589TIP3   OH247181   1.469   5.889   4.505  0.3847 -0.1160  0.4144
 8589TIP3    H147182   1.512   5.829   4.444 -1.2506 -0.0085 -0.9076
 8589TIP3    H247183   1.407   5.834   4.553  0.8786  0.0131  1.2225
 8590TIP3   OH247184   4.436   1.638   6.154  0.2167 -0.2524 -0.0345
 8590TIP3    H147185   4.521   1.609   6.187 -0.2045 -0.1721  1.1706
 8590TIP3    H247186   4.382   1.558   6.153 -0.4484  0.1335  1.7051
 8591TIP3   OH247187   3.347   5.721  17.125  0.6576  0.3831 -0.6774
 8591TIP3    H147188   3.415   5.684  17.069 -0.8554  0.0279 -2.3364
 8591TIP3    H247189   3.334   5.810  17.093  1.0121  0.8011  0.2904
 8592TIP3   OH247190   0.147   0.635  16.651 -0.0370  0.2022 -0.1819
 8592TIP3    H147191   0.220   0.649  16.591  0.4117  0.5188  0.4308
 8592TIP3    H247192   0.184   0.647  16.738 -1.0122  1.3051  0.1126
 8593TIP3   OH247193   4.005   4.369   3.756  0.2885  0.3117  0.0355
 8593TIP3    H147194   3.935   4.401   3.698 -0.8474  1.0586  1.7268
 8593TIP3    H247195   4.053   4.448   3.781  2.1722 -0.2662 -1.5773
 8594TIP3   OH247196   4.211   3.532   2.025 -0.5899  0.1937 -0.0143
 8594TIP3    H147197   4.247   3.503   1.942 -0.5452 -0.2608  0.1629
 8594TIP3    H247198   4.233   3.463   2.087  0.5037  1.1062  0.6631
 8595TIP3   OH247199   1.431   5.128  15.761  0.7383  0.7408 -0.3588
 8595TIP3    H147200   1.518   5.089  15.759  0.8436  0.9510 -0.0137
 8595TIP3    H247201   1.397   5.106  15.848  0.7279  1.2651 -0.2280
 8596TIP3   OH247202   0.431   5.388  12.730 -0.0528 -0.1636  0.1393
 8596TIP3    H147203   0.468   5.475  12.744  0.7959 -0.5097  0.1284
 8596TIP3    H247204   0.355   5.384  12.788  0.2617  0.3609  0.5938
 8597TIP3   OH247205   1.811   6.637   4.895 -0.0488 -0.7717  0.0921
 8597TIP3    H147206   1.761   6.678   4.825  0.9422 -0.2038 -0.3093
 8597TIP3    H247207   1.824   6.547   4.865 -1.0334 -1.0004  0.3250
 8598TIP3   OH247208   3.334   1.751   1.388  0.2320 -0.6543 -0.1836
 8598TIP3    H147209   3.345   1.667   1.343 -2.1331 -0.6080 -0.9809
 8598TIP3    H247210   3.259   1.737   1.446 -1.8146  1.5311 -2.1304
 8599TIP3   OH247211   0.517   3.406   5.669 -0.3059 -0.1348  0.6161
 8599TIP3    H147212   0.471   3.490   5.669  1.1119  0.7083 -0.8455
 8599TIP3    H247213   0.589   3.418   5.731  0.1836 -0.0919  0.0463
 8600TIP3   OH247214   0.147   3.790  12.670 -0.4505  0.5148 -0.0386
 8600TIP3    H147215   0.221   3.840  12.704 -0.1534 -0.2574  0.4683
 8600TIP3    H247216   0.097   3.854  12.619  1.3235  0.7152 -1.6187
 8601TIP3   OH247217   6.172   0.428   1.020 -0.0929  0.1354 -0.0154
 8601TIP3    H147218   6.204   0.357   1.076 -2.0932  0.0359  1.0920
 8601TIP3    H247219   6.219   0.416   0.938  0.3682 -1.8693  0.4821
 8602TIP3   OH247220   3.550   4.027   4.055  0.2163  0.0538 -0.5353
 8602TIP3    H147221   3.586   3.944   4.086 -1.7341  0.0821  2.0797
 8602TIP3    H247222   3.620   4.064   4.000  1.8406 -2.4468 -0.3081
 8603TIP3   OH247223   3.422   5.235   2.089 -0.5985 -0.3942  0.4041
 8603TIP3    H147224   3.470   5.317   2.096  0.2949 -0.7755 -0.8099
 8603TIP3    H247225   3.480   5.170   2.129 -1.4449 -0.4086  1.6628
 8604TIP3   OH247226   4.403   1.248   5.693  0.2263  0.2845 -0.8042
 8604TIP3    H147227   4.398   1.260   5.787  1.2811 -1.0562 -0.5347
 8604TIP3    H247228   4.361   1.325   5.656 -2.3712 -0.2434  0.7643
 8605TIP3   OH247229   4.303   4.762  11.852 -0.3656  0.1357  0.0152
 8605TIP3    H147230   4.367   4.693  11.872  1.0956  0.8172 -1.8998
 8605TIP3    H247231   4.274   4.742  11.763 -1.5610  0.8128  0.2304
 8606TIP3   OH247232   2.533   1.501  11.004  0.2737  1.1548 -0.0481
 8606TIP3    H147233   2.470   1.541  11.064 -0.2168  0.4527 -0.0810
 8606TIP3    H247234   2.511   1.537  10.918 -1.6586 -0.8036 -0.4860
 8607TIP3   OH247235   0.817   2.522  16.183 -0.2460  0.0127  0.5030
 8607TIP3    H147236   0.784   2.528  16.093 -2.1883  0.9317  1.2335
 8607TIP3    H247237   0.909   2.548  16.176 -0.5711  0.8532 -1.0898
 8608TIP3   OH247238   1.263   5.020  15.295  0.8544  0.6790  0.6840
 8608TIP3    H147239   1.304   4.975  15.368  0.5592 -0.1526  0.3509
 8608TIP3    H247240   1.169   5.013  15.312  0.7666  0.0600 -0.0052
 8609TIP3   OH247241   5.492   0.502   4.310 -0.2640 -0.4445  0.0831
 8609TIP3    H147242   5.538   0.546   4.239 -0.6671  0.4310  0.3421
 8609TIP3    H247243   5.489   0.410   4.285 -0.1564 -0.1864 -0.8964
 8610TIP3   OH247244   1.751   4.969   4.695 -0.0004 -0.3221  0.0384
 8610TIP3    H147245   1.742   4.991   4.788 -2.4539  0.6490 -0.3436
 8610TIP3    H247246   1.719   5.047   4.650  0.3375 -1.1053 -1.6089
 8611TIP3   OH247247   2.113   4.449  11.383 -0.3997 -0.1280 -0.3428
 8611TIP3    H147248   2.165   4.489  11.452  2.0569  0.0639 -2.1619
 8611TIP3    H247249   2.055   4.519  11.353  1.6305  1.2592 -1.3486
 8612TIP3   OH247250   4.564   2.105   3.184 -0.1015 -0.3744 -0.0191
 8612TIP3    H147251   4.547   2.012   3.199 -0.8979 -0.4261 -1.1111
 8612TIP3    H247252   4.510   2.127   3.108  0.5769  0.8257 -0.1769
 8613TIP3   OH247253   4.353   1.876   0.177  0.0813  0.4847 -0.0874
 8613TIP3    H147254   4.381   1.909   0.262  1.9328  0.6461 -0.7077
 8613TIP3    H247255   4.392   1.788   0.172  0.2412  0.5951 -0.8646
 8614TIP3   OH247256   1.238   1.421   2.936 -0.0205 -0.5434 -0.1178
 8614TIP3    H147257   1.209   1.413   2.845 -0.9911 -0.2135  0.1455
 8614TIP3    H247258   1.205   1.506   2.964  4.2892  1.6560 -0.8432
 8615TIP3   OH247259   3.657   2.030   0.497  0.4389 -0.0857 -0.1076
 8615TIP3    H147260   3.582   1.972   0.503  0.9816 -0.7202  0.8343
 8615TIP3    H247261   3.660   2.075   0.581  0.6379  0.5311 -0.4383
 8616TIP3   OH247262   1.292   3.285  15.620  0.1506  0.5290  0.2321
 8616TIP3    H147263   1.241   3.206  15.636  2.9744 -1.2899  0.9616
 8616TIP3    H247264   1.309   3.283  15.526  0.9250 -0.2171  0.3824
 8617TIP3   OH247265   3.641   0.377  14.583 -0.1289  0.1177 -0.7080
 8617TIP3    H147266   3.680   0.391  14.670 -0.8210  1.1708 -0.5570
 8617TIP3    H247267   3.696   0.428  14.524 -1.1785  1.5420 -0.5061
 8618TIP3   OH247268   4.914   6.420  14.101  0.4516 -0.0266 -0.4432
 8618TIP3    H147269   4.971   6.433  14.177 -1.5759 -0.9804  1.3575
 8618TIP3    H247270   4.899   6.325  14.098 -1.3666  0.2261 -0.5454
 8619TIP3   OH247271   0.183   2.090   3.668 -0.2842  0.3349  0.2320
 8619TIP3    H147272   0.184   2.086   3.572 -1.1052  1.9701  0.1256
 8619TIP3    H247273   0.142   2.174   3.688 -0.5753 -0.1983  2.0328
 8620TIP3   OH247274   4.274   5.775  11.800 -0.5729 -0.2413 -0.4396
 8620TIP3    H147275   4.199   5.827  11.772  0.0409  1.0743  0.3128
 8620TIP3    H247276   4.334   5.779  11.726  0.1424  1.4677  0.1974
 8621TIP3   OH247277   6.047   1.704   2.851  0.2558 -0.0040  0.4761
 8621TIP3    H147278   5.985   1.668   2.788 -0.3330 -0.7248  1.4423
 8621TIP3    H247279   5.993   1.751   2.914  0.3139 -2.8114  2.8288
 8622TIP3   OH247280   5.832   2.827   0.269 -0.1056  0.3763  0.3769
 8622TIP3    H147281   5.797   2.803   0.355  0.2990  0.7847  0.6565
 8622TIP3    H247282   5.879   2.908   0.283  0.3156  0.2341 -0.1525
 8623TIP3   OH247283   5.624   5.497  14.828  0.5083  0.0849 -0.1419
 8623TIP3    H147284   5.641   5.591  14.838 -0.4003  0.1327  1.1811
 8623TIP3    H247285   5.710   5.456  14.838  0.8992  0.7562 -0.6331
 8624TIP3   OH247286   1.852   6.399  14.853  0.0031 -0.1319  0.4342
 8624TIP3    H147287   1.863   6.452  14.775  0.0066  0.6691  0.9744
 8624TIP3    H247288   1.762   6.367  14.849 -0.2058  0.4608  0.4510
 8625TIP3   OH247289   3.303   3.495   2.575  0.4052 -0.0824  0.4608
 8625TIP3    H147290   3.366   3.564   2.597  0.7544  0.0636 -0.8561
 8625TIP3    H247291   3.346   3.414   2.602  0.7141  0.0971  0.5166
 8626TIP3   OH247292   4.354   4.526  15.497  0.0303  0.3882  0.3074
 8626TIP3    H147293   4.282   4.567  15.546 -0.6282 -2.6364  2.0930
 8626TIP3    H247294   4.313   4.496  15.416 -0.2834  0.2536  0.5135
 8627TIP3   OH247295   1.927   0.330   3.080  0.0371  0.9067  0.7154
 8627TIP3    H147296   1.905   0.255   3.024 -0.4175  1.7761 -0.3316
 8627TIP3    H247297   2.003   0.302   3.129 -0.0543 -0.2049  0.2667
 8628TIP3   OH247298   6.181   2.359   4.412  0.5791 -0.2862 -0.0014
 8628TIP3    H147299   6.235   2.367   4.333  1.5448 -1.1869  0.5373
 8628TIP3    H247300   6.138   2.274   4.403 -1.5586  0.7955 -0.8645
 8629TIP3   OH247301   1.306   4.924  15.548 -0.0918  0.5693 -0.5150
 8629TIP3    H147302   1.351   4.980  15.611  0.1797  0.5277 -0.6702
 8629TIP3    H247303   1.301   4.839  15.592  1.3877  0.1385 -1.0941
 8630TIP3   OH247304   0.270   1.394   4.690 -0.1293  0.3923  0.2473
 8630TIP3    H147305   0.221   1.405   4.608 -1.6685 -3.0902  0.5083
 8630TIP3    H247306   0.206   1.359   4.752  1.6576  0.2010  2.0990
 8631TIP3   OH247307   4.654   6.521  11.983 -0.0915 -0.4093 -0.2870
 8631TIP3    H147308   4.694   6.467  11.914  2.9219  0.1367  0.8842
 8631TIP3    H247309   4.629   6.458  12.051  0.3214 -0.6412 -0.3449
 8632TIP3   OH247310   4.630   4.249   1.194 -0.4857 -0.1003  0.1078
 8632TIP3    H147311   4.642   4.291   1.279 -0.0638 -0.3775  0.1910
 8632TIP3    H247312   4.675   4.165   1.202 -0.4053 -0.1114 -0.4022
 8633TIP3   OH247313   3.663   0.764  16.948 -0.6292 -0.2005  0.3249
 8633TIP3    H147314   3.613   0.817  17.010  0.0826  0.4077  0.3894
 8633TIP3    H247315   3.716   0.827  16.900 -0.9696 -0.6999 -0.7211
 8634TIP3   OH247316   2.426   1.658   5.137  0.1221  0.0204 -0.0573
 8634TIP3    H147317   2.428   1.627   5.227  1.1256 -0.4339 -0.2199
 8634TIP3    H247318   2.345   1.708   5.130  0.6038  1.0818  1.4365
 8635TIP3   OH247319   6.535   2.225   0.126  0.2408 -0.2952  0.0475
 8635TIP3    H147320   6.593   2.199   0.198  0.0649  2.2856  1.2156
 8635TIP3    H247321   6.588   2.214   0.047  1.0861 -1.3757  0.7354
 8636TIP3   OH247322   1.289   3.530  14.917  0.1383  0.7384 -0.7060
 8636TIP3    H147323   1.292   3.529  15.013  2.3974  2.3794 -0.6728
 8636TIP3    H247324   1.207   3.574  14.896 -1.3716 -1.4084  0.3737
 8637TIP3   OH247325   3.321   6.123   4.881 -0.3966  0.3723  0.2687
 8637TIP3    H147326   3.412   6.101   4.903 -0.3884  0.3639  0.2261
 8637TIP3    H247327   3.274   6.110   4.963 -0.2847  0.7952  0.4043
 8638TIP3   OH247328   6.278   4.879   6.216  0.3924 -0.0368 -0.2091
 8638TIP3    H147329   6.216   4.932   6.267  0.1412 -0.9598  0.4646
 8638TIP3    H247330   6.347   4.857   6.279  0.5593 -0.4029 -0.5225
 8639TIP3   OH247331   4.326   3.139   2.790  0.3360  0.4566 -0.4358
 8639TIP3    H147332   4.306   3.172   2.702  0.7015 -1.7487 -1.4279
 8639TIP3    H247333   4.291   3.050   2.789 -0.0821  0.5572  1.8576
 8640TIP3   OH247334   5.664   5.005   4.416  0.4900  0.8533  0.0233
 8640TIP3    H147335   5.724   5.077   4.398  0.6512  0.4916 -0.9622
 8640TIP3    H247336   5.714   4.926   4.394  0.3827  0.4250  1.2665
 8641TIP3   OH247337   2.880   6.035   4.682 -0.1186  0.0789  0.1285
 8641TIP3    H147338   2.919   5.982   4.612 -0.0919 -0.2609  0.4012
 8641TIP3    H247339   2.899   6.126   4.657 -0.6171 -0.0104 -0.6138
 8642TIP3   OH247340   1.527   3.114   4.550 -0.3062  0.6046  0.0365
 8642TIP3    H147341   1.580   3.194   4.550  0.0097  0.4074 -0.7281
 8642TIP3    H247342   1.446   3.140   4.507 -0.4448  0.6642  0.3337
 8643TIP3   OH247343   2.985   0.154   4.244  0.1722  0.1610  0.2164
 8643TIP3    H147344   3.016   0.092   4.310  1.3132  0.1083 -0.3433
 8643TIP3    H247345   3.053   0.222   4.242 -0.0291  0.3437 -0.6420
 8644TIP3   OH247346   2.756   0.340   4.173  0.3017  0.3504 -0.2475
 8644TIP3    H147347   2.830   0.281   4.189  0.6489  1.1907  1.4200
 8644TIP3    H247348   2.738   0.380   4.258 -2.7845 -0.6117 -0.2885
 8645TIP3   OH247349   6.598   2.762   2.386 -0.0026  0.2065  0.1632
 8645TIP3    H147350   6.516   2.805   2.408  0.7705  1.0744  1.5003
 8645TIP3    H247351   6.623   2.714   2.465  1.0733  0.4646  0.0075
 8646TIP3   OH247352   6.133   4.789  15.780 -0.6896 -0.6644  0.3212
 8646TIP3    H147353   6.138   4.867  15.835  1.2314  0.2097 -0.9746
 8646TIP3    H247354   6.144   4.716  15.841 -2.1983  0.0456  1.5141
 8647TIP3   OH247355   6.115   5.795  14.361 -0.4052 -0.8804  0.4343
 8647TIP3    H147356   6.071   5.711  14.356  1.8539 -2.0886 -0.3087
 8647TIP3    H247357   6.173   5.788  14.437  0.7460 -0.4845 -0.3874
 8648TIP3   OH247358   6.037   3.302   3.630 -0.1759  0.2008 -0.2991
 8648TIP3    H147359   6.058   3.235   3.695 -1.0307  2.0414  2.0451
 8648TIP3    H247360   6.103   3.370   3.644  0.5117  0.0391 -2.4251
 8649TIP3   OH247361   2.929   2.264  11.831 -0.0686 -0.1114 -0.4843
 8649TIP3    H147362   2.930   2.215  11.749 -1.0782  0.9841 -1.1770
 8649TIP3    H247363   2.852   2.230  11.877 -2.1295  2.2566 -1.9392
 8650TIP3   OH247364   6.280   2.463  14.905 -0.0168 -0.0627  0.0172
 8650TIP3    H147365   6.246   2.428  14.987 -0.4509  2.4023  0.9985
 8650TIP3    H247366   6.205   2.461  14.845 -1.2634  2.7098  1.3016
 8651TIP3   OH247367   5.137   3.830   2.651 -0.1790  0.0594  0.0609
 8651TIP3    H147368   5.100   3.771   2.585 -0.5100  2.0237 -1.6485
 8651TIP3    H247369   5.063   3.883   2.680  0.3082  0.4611  0.6041
 8652TIP3   OH247370   3.656   4.059  14.284 -0.4476  0.5412 -0.3926
 8652TIP3    H147371   3.610   4.137  14.253  0.0126  0.9668 -0.0396
 8652TIP3    H247372   3.727   4.047  14.221  0.3676  1.2895  0.3378
 8653TIP3   OH247373   6.576   3.122   1.919 -0.1715  0.3868 -0.0920
 8653TIP3    H147374   6.488   3.151   1.943 -0.2820  1.6285 -1.7865
 8653TIP3    H247375   6.577   3.029   1.938 -1.7664  0.3999  0.1921
 8654TIP3   OH247376   0.715   5.555   4.182  0.1609 -0.4501 -0.6228
 8654TIP3    H147377   0.751   5.599   4.259  1.5081  0.4792 -1.7293
 8654TIP3    H247378   0.633   5.516   4.212  0.8519 -0.4618  1.3686
 8655TIP3   OH247379   6.424   1.265  13.540 -0.6655 -0.3888  0.1301
 8655TIP3    H147380   6.392   1.329  13.603 -0.0390 -1.7276  1.9105
 8655TIP3    H247381   6.352   1.253  13.478 -1.8729 -0.0843  1.4467
 8656TIP3   OH247382   3.823   4.008   5.170  0.6100 -0.5457 -0.0631
 8656TIP3    H147383   3.905   3.962   5.154 -0.1390 -1.8180 -0.3137
 8656TIP3    H247384   3.785   3.966   5.247  1.3535  1.6863  1.6376
 8657TIP3   OH247385   5.873   4.840   2.596  0.1376 -0.1006 -0.0813
 8657TIP3    H147386   5.930   4.892   2.540 -0.8237  0.8851 -0.1892
 8657TIP3    H247387   5.829   4.779   2.536  1.4975 -1.3022  0.0893
 8658TIP3   OH247388   5.894   3.106   3.027  0.0136  0.0864  0.1736
 8658TIP3    H147389   5.974   3.087   2.978  0.6383 -0.0190  1.1916
 8658TIP3    H247390   5.828   3.123   2.960  1.5086  2.8690 -0.7405
 8659TIP3   OH247391   5.582   5.122  16.649  0.2870  0.1831 -0.3442
 8659TIP3    H147392   5.620   5.205  16.621  1.5187 -0.3121 -0.2078
 8659TIP3    H247393   5.656   5.072  16.682 -0.7075 -0.2529  1.3723
 8660TIP3   OH247394   0.315   5.258   5.025 -0.0506 -1.2628 -0.0037
 8660TIP3    H147395   0.263   5.252   5.105 -0.1443 -1.6162 -0.0921
 8660TIP3    H247396   0.251   5.276   4.956  0.1550  0.3802  0.1761
 8661TIP3   OH247397   5.968   2.086  11.167 -0.4093  0.4056  0.3274
 8661TIP3    H147398   5.941   2.028  11.238 -1.6135  1.4605  0.7553
 8661TIP3    H247399   5.886   2.124  11.134  0.2652  1.0605 -0.6492
 8662TIP3   OH247400   2.683   0.103   6.694  0.2011  0.0564  0.5229
 8662TIP3    H147401   2.645   0.146   6.770  0.0473  1.2677 -0.2236
 8662TIP3    H247402   2.689   0.011   6.720  1.0218  0.5662  2.3487
 8663TIP3   OH247403   5.442   0.131  14.629  0.3166 -0.4029 -0.2736
 8663TIP3    H147404   5.490   0.054  14.597  1.0072 -0.4337  0.8039
 8663TIP3    H247405   5.510   0.192  14.657 -0.2204 -0.8815  2.3307
 8664TIP3   OH247406   2.425   3.784   4.047  0.9363 -0.3749 -0.4698
 8664TIP3    H147407   2.511   3.823   4.062  0.2031  1.3878 -0.5196
 8664TIP3    H247408   2.389   3.771   4.135  1.0028 -0.4955 -0.4611
 8665TIP3   OH247409   3.769   0.264   3.995 -0.1642 -0.1822  0.2246
 8665TIP3    H147410   3.785   0.269   4.089  0.8004 -0.2775  0.0733
 8665TIP3    H247411   3.844   0.216   3.961 -0.2172  0.3569 -0.6714
 8666TIP3   OH247412   4.576   1.218   1.573  0.0472 -0.1933  0.2424
 8666TIP3    H147413   4.554   1.243   1.484 -2.7161 -1.3699  0.5007
 8666TIP3    H247414   4.615   1.130   1.564 -2.0541 -1.1842  0.2648
 8667TIP3   OH247415   4.534   5.907   2.999  0.5609  0.0833 -0.1269
 8667TIP3    H147416   4.444   5.913   2.968 -0.4520 -2.1344  2.0978
 8667TIP3    H247417   4.566   5.824   2.965  0.9740 -0.2140  0.9455
 8668TIP3   OH247418   2.005   6.579  10.962  0.2187  0.3836  0.7980
 8668TIP3    H147419   1.957   6.541  11.036 -0.2580 -0.4755  0.0740
 8668TIP3    H247420   2.003   6.510  10.895 -0.4519  1.6028 -0.4737
 8669TIP3   OH247421   5.192   5.768  12.844 -0.1024  0.3579  0.1318
 8669TIP3    H147422   5.280   5.777  12.808  0.2377  0.1239  0.8790
 8669TIP3    H247423   5.154   5.694  12.795  0.1371  0.4173 -0.1476
 8670TIP3   OH247424   2.465   2.216  13.761 -0.2561 -0.1909 -0.4356
 8670TIP3    H147425   2.384   2.263  13.780 -0.3564 -0.0787 -1.1063
 8670TIP3    H247426   2.530   2.254  13.820 -0.3463  0.7598 -0.9358
 8671TIP3   OH247427   3.196   6.165  16.293 -0.1744 -0.6872  0.3592
 8671TIP3    H147428   3.146   6.084  16.282 -1.2308  0.1036 -1.0364
 8671TIP3    H247429   3.133   6.228  16.328  0.0593  0.0713 -0.5388
 8672TIP3   OH247430   1.554   0.936   0.028 -0.1323 -0.0993 -0.7788
 8672TIP3    H147431   1.583   0.881   0.100 -0.0908  1.6784  0.6354
 8672TIP3    H247432   1.458   0.931   0.030 -0.2507  1.6238  0.8797
 8673TIP3   OH247433   1.964   3.425  12.049  0.0084 -0.1911 -0.7205
 8673TIP3    H147434   2.060   3.427  12.051  0.0071 -0.3333  0.3111
 8673TIP3    H247435   1.943   3.333  12.033  0.0507 -0.2205 -0.6118
 8674TIP3   OH247436   1.110   0.592   1.035  0.6229 -0.5394 -0.0090
 8674TIP3    H147437   1.129   0.605   0.942 -1.7030 -1.5129 -0.7078
 8674TIP3    H247438   1.071   0.675   1.063  0.3982 -0.5802 -0.1938
 8675TIP3   OH247439   0.773   5.705  14.115 -0.5200 -0.6790 -0.5712
 8675TIP3    H147440   0.867   5.687  14.122 -0.5525 -2.3494 -3.2302
 8675TIP3    H247441   0.767   5.778  14.054 -0.9500 -0.0382  0.2188
 8676TIP3   OH247442   5.779   4.193   2.459  0.0912 -0.0442  0.2432
 8676TIP3    H147443   5.815   4.278   2.434  0.5045 -0.0316  0.8540
 8676TIP3    H247444   5.819   4.174   2.544 -0.2452 -0.7009  0.2632
 8677TIP3   OH247445   0.571   3.196   5.107 -0.1894 -0.2017 -0.1484
 8677TIP3    H147446   0.539   3.108   5.126  0.3452 -0.5162 -0.6551
 8677TIP3    H247447   0.500   3.254   5.133  0.4620 -0.5617  2.8477
 8678TIP3   OH247448   1.733   5.627  15.865  0.2397 -0.1613  0.0633
 8678TIP3    H147449   1.764   5.579  15.788  1.2107 -0.7114  0.7715
 8678TIP3    H247450   1.808   5.626  15.925 -0.9164 -0.9237  1.5646
 8679TIP3   OH247451   3.644   3.903  15.588 -0.1821  0.3665  0.0980
 8679TIP3    H147452   3.717   3.844  15.609 -0.1019  0.1843 -0.6682
 8679TIP3    H247453   3.661   3.931  15.498  0.1741  2.1530  0.6918
 8680TIP3   OH247454   5.074   1.014   0.578  0.1239 -0.0746  0.1298
 8680TIP3    H147455   5.159   1.028   0.619 -0.2416 -0.2569  0.9639
 8680TIP3    H247456   5.056   0.921   0.590 -1.1219  0.3377  1.8381
 8681TIP3   OH247457   4.166   3.417   1.266 -0.1487 -0.6178 -0.3481
 8681TIP3    H147458   4.201   3.505   1.249 -0.6552 -0.0457  1.3426
 8681TIP3    H247459   4.170   3.373   1.181 -0.7179  1.3330 -1.4676
 8682TIP3   OH247460   5.334   5.601   3.554  0.0451 -0.0909  0.0769
 8682TIP3    H147461   5.317   5.507   3.548 -1.9404  0.2992 -1.7724
 8682TIP3    H247462   5.420   5.613   3.513 -0.6659 -0.8987 -1.7474
 8683TIP3   OH247463   2.063   2.117  12.494  0.7819  0.0018 -0.3211
 8683TIP3    H147464   2.009   2.094  12.419  0.5793  0.4875 -0.3315
 8683TIP3    H247465   2.146   2.070  12.480  1.4220  1.4447 -1.7715
 8684TIP3   OH247466   1.130   3.647  14.497 -0.4843  0.2782  0.3640
 8684TIP3    H147467   1.183   3.647  14.577  0.3644 -1.7196 -0.1121
 8684TIP3    H247468   1.040   3.642  14.528 -0.2808  1.4605  1.1927
 8685TIP3   OH247469   1.257   1.191   1.531  0.0712 -0.2176  0.0658
 8685TIP3    H147470   1.345   1.166   1.562 -0.1781  0.6392  1.5662
 8685TIP3    H247471   1.249   1.283   1.555  0.2235  0.8871 -3.5649
 8686TIP3   OH247472   4.821   2.410  12.077  0.0144  0.6606  0.3294
 8686TIP3    H147473   4.762   2.484  12.060  0.6143  1.6317  2.1884
 8686TIP3    H247474   4.909   2.449  12.072  0.4432 -0.3694 -0.5726
 8687TIP3   OH247475   0.524   4.142  14.796 -0.0003  0.1551  0.1628
 8687TIP3    H147476   0.611   4.169  14.827 -0.4779 -0.0744  1.8000
 8687TIP3    H247477   0.494   4.215  14.742 -0.2740  1.9187  2.5689
 8688TIP3   OH247478   6.131   5.422   2.699 -0.0130 -0.2695  0.1404
 8688TIP3    H147479   6.115   5.412   2.605  1.8127  0.5093 -0.2977
 8688TIP3    H247480   6.044   5.422   2.738 -0.8083 -0.8104 -1.5265
 8689TIP3   OH247481   1.894   3.787  15.977 -0.7681 -0.4762 -0.2110
 8689TIP3    H147482   1.857   3.874  15.991 -0.2256 -0.2955  0.1139
 8689TIP3    H247483   1.981   3.803  15.940 -0.5369 -0.8730  0.1563
 8690TIP3   OH247484   5.291   5.458   2.338 -0.2315  0.3525  0.1884
 8690TIP3    H147485   5.267   5.405   2.263 -2.2885  1.6386 -0.1134
 8690TIP3    H247486   5.387   5.467   2.331 -0.0200 -1.9266 -0.6095
 8691TIP3   OH247487   0.072   2.159  13.183  0.1024 -0.5430 -0.1813
 8691TIP3    H147488   0.065   2.231  13.246 -1.4157  0.5534 -1.5366
 8691TIP3    H247489   0.115   2.089  13.233 -0.2307  0.5638  1.7968
 8692TIP3   OH247490   3.915   2.570  16.840  0.2859  0.1845 -0.0483
 8692TIP3    H147491   3.995   2.620  16.856 -0.8809  3.4653 -3.1342
 8692TIP3    H247492   3.862   2.584  16.918  0.4099  3.2060 -0.3898
 8693TIP3   OH247493   2.462   4.043  11.736  0.6902  0.4582 -0.0271
 8693TIP3    H147494   2.490   4.042  11.645  0.0873  0.9184 -0.2254
 8693TIP3    H247495   2.486   3.957  11.770 -1.1424 -0.6055 -1.2567
 8694TIP3   OH247496   3.582   2.944   0.758  0.3201 -0.0492  0.2510
 8694TIP3    H147497   3.560   3.001   0.684  0.1608 -0.5333 -0.0775
 8694TIP3    H247498   3.536   2.983   0.832 -1.4532 -0.8580 -0.3584
 8695TIP3   OH247499   2.139   6.428   5.142  0.9966  0.3913  0.0852
 8695TIP3    H147500   2.176   6.514   5.162  0.4783  0.7918 -0.6199
 8695TIP3    H247501   2.184   6.400   5.063 -0.1605  0.8978 -0.8004
 8696TIP3   OH247502   1.019   3.182   4.333 -0.6422 -0.2860  0.1591
 8696TIP3    H147503   1.068   3.155   4.256  1.4986  0.3333  1.2330
 8696TIP3    H247504   1.031   3.277   4.337 -1.1925 -0.2404  0.9625
 8697TIP3   OH247505   4.684   4.668  15.269  0.4395 -0.0952 -0.3611
 8697TIP3    H147506   4.625   4.720  15.323  1.2606  0.8255 -0.3183
 8697TIP3    H247507   4.660   4.691  15.179  0.6612  0.2168 -0.3445
 8698TIP3   OH247508   2.021   0.740   3.766 -0.0548  0.5500  0.1961
 8698TIP3    H147509   2.002   0.755   3.859  0.2954 -3.7805  1.1908
 8698TIP3    H247510   2.117   0.735   3.762  0.1247  3.2078 -1.0311
 8699TIP3   OH247511   6.169   0.076  16.847  0.3775 -0.1636 -1.0362
 8699TIP3    H147512   6.156   0.122  16.930  0.3746 -0.9409 -0.5991
 8699TIP3    H247513   6.192   0.145  16.785 -1.6253  0.7327 -0.8668
 8700TIP3   OH247514   2.140   6.178  14.089 -0.3250 -0.4497  1.1254
 8700TIP3    H147515   2.199   6.253  14.081 -0.1458 -0.5558  1.4215
 8700TIP3    H247516   2.190   6.114  14.140 -0.0388 -1.2248 -0.0911
 8701TIP3   OH247517   5.910   2.826  13.411 -0.2868  0.3941  0.0457
 8701TIP3    H147518   5.855   2.832  13.489  1.4276 -0.0357  1.3422
 8701TIP3    H247519   5.879   2.898  13.355 -2.4449 -0.1140  0.4844
 8702TIP3   OH247520   6.479   0.894   2.015  0.0125  0.2809  0.0227
 8702TIP3    H147521   6.572   0.915   2.007 -0.1114  0.2371 -1.7758
 8702TIP3    H247522   6.472   0.802   1.990 -0.6065  0.4964 -0.6385
 8703TIP3   OH247523   2.752   0.772   3.365  0.1109  0.3248 -0.2436
 8703TIP3    H147524   2.811   0.704   3.400  0.0366 -0.3217 -1.3205
 8703TIP3    H247525   2.678   0.723   3.329 -0.0550  0.9960 -0.8354
 8704TIP3   OH247526   1.351   3.196   0.134 -0.1646 -0.0957 -0.1650
 8704TIP3    H147527   1.329   3.178   0.043 -2.0953 -1.7185  0.5454
 8704TIP3    H247528   1.427   3.254   0.129  0.2596 -0.7310 -2.7741
 8705TIP3   OH247529   6.041   3.961   4.200 -0.0812 -0.1533  0.0767
 8705TIP3    H147530   5.998   3.887   4.243 -1.0732 -0.3448 -1.1580
 8705TIP3    H247531   6.117   3.980   4.255 -0.6510 -1.0977  1.2545
 8706TIP3   OH247532   4.198   6.023   1.879 -0.0141 -0.1703  0.1864
 8706TIP3    H147533   4.219   5.955   1.943 -0.5401  0.9760  1.6413
 8706TIP3    H247534   4.209   6.105   1.927 -0.2657  0.7391 -1.2549
 8707TIP3   OH247535   6.347   6.245  16.415  0.1730  0.4663 -0.0710
 8707TIP3    H147536   6.410   6.190  16.369 -1.9970  0.4972 -3.4116
 8707TIP3    H247537   6.264   6.199  16.408 -1.3491  3.1487 -1.2501
 8708TIP3   OH247538   4.079   4.838  12.002  0.4483  0.1699 -0.2155
 8708TIP3    H147539   4.155   4.849  11.945 -0.8472  1.6710 -1.7770
 8708TIP3    H247540   4.086   4.909  12.065  0.2037  0.4842 -0.5391
 8709TIP3   OH247541   3.648   0.419   0.616  0.2297  0.2425  0.0975
 8709TIP3    H147542   3.613   0.471   0.688 -1.1782 -0.4386 -0.0625
 8709TIP3    H247543   3.573   0.371   0.582  1.6337 -2.8533  0.9716
 8710TIP3   OH247544   4.609   6.107   1.824 -0.5498  0.1752 -0.3923
 8710TIP3    H147545   4.650   6.162   1.756 -1.5537 -0.1770 -1.3136
 8710TIP3    H247546   4.555   6.167   1.875  1.0592  0.6450  0.8355
 8711TIP3   OH247547   3.388   0.297  16.991  0.3702  0.7208  0.2405
 8711TIP3    H147548   3.396   0.204  16.972  1.6590  0.9000 -0.1459
 8711TIP3    H247549   3.294   0.310  17.005  0.1819 -0.6383  0.3617
 8712TIP3   OH247550   5.869   5.228  12.935 -0.3620  0.7400  0.0410
 8712TIP3    H147551   5.943   5.180  12.897 -0.7809  0.0723  0.0497
 8712TIP3    H247552   5.833   5.278  12.862 -0.5534  0.2332 -0.2181
 8713TIP3   OH247553   4.009   1.073  13.183 -0.2326  0.0259 -0.1041
 8713TIP3    H147554   3.914   1.070  13.180 -0.2188 -0.3212 -0.2371
 8713TIP3    H247555   4.031   1.049  13.273 -0.2503 -0.4805 -0.2333
 8714TIP3   OH247556   1.494   3.722  14.402  0.0418 -0.1700  0.3705
 8714TIP3    H147557   1.455   3.637  14.424 -1.0018  0.0987 -0.3553
 8714TIP3    H247558   1.457   3.782  14.467  0.2336 -0.1391  0.4517
 8715TIP3   OH247559   2.030   6.175  14.451  0.6923  0.2392 -0.3630
 8715TIP3    H147560   2.120   6.206  14.441  1.2369 -1.3221 -0.4129
 8715TIP3    H247561   2.001   6.159  14.361  0.8996 -0.7268 -0.2631
 8716TIP3   OH247562   6.104   2.789   4.070 -0.2098 -0.2329  0.1434
 8716TIP3    H147563   6.047   2.859   4.102 -1.2950 -0.4642 -1.1663
 8716TIP3    H247564   6.062   2.759   3.990  1.4653 -0.8476 -0.5486
 8717TIP3   OH247565   2.758   1.107  13.157  0.3431  0.2136  0.0235
 8717TIP3    H147566   2.718   1.158  13.228  1.1241  0.2088  0.4756
 8717TIP3    H247567   2.684   1.074  13.107 -0.3866 -2.2205  2.4908
 8718TIP3   OH247568   6.663   6.498  13.795 -0.7360 -0.4024 -0.3235
 8718TIP3    H147569   6.757   6.491  13.811  0.0812  2.8439 -2.6973
 8718TIP3    H247570   6.647   6.439  13.722 -0.7334 -1.4106  0.4612
 8719TIP3   OH247571   0.918   3.045  12.692 -0.3656  0.2236 -0.1187
 8719TIP3    H147572   0.957   3.093  12.765 -0.4967 -0.9939  0.7905
 8719TIP3    H247573   0.826   3.035  12.717  0.0950 -2.3999  0.8267
 8720TIP3   OH247574   6.428   4.067  15.609 -0.3232 -0.0457 -0.4930
 8720TIP3    H147575   6.430   4.036  15.518  0.2416  2.3472 -1.3668
 8720TIP3    H247576   6.357   4.132  15.610 -1.0647 -0.8239  1.0936
 8721TIP3   OH247577   1.308   2.295  16.362  0.1063 -0.0395 -0.0297
 8721TIP3    H147578   1.390   2.280  16.315 -1.2730 -0.3205 -2.5655
 8721TIP3    H247579   1.310   2.388  16.384  0.4876  0.3332 -1.4838
 8722TIP3   OH247580   3.392   2.358   1.946 -0.2157 -0.0006  0.2322
 8722TIP3    H147581   3.485   2.378   1.933 -0.3349  1.1632  1.0134
 8722TIP3    H247582   3.364   2.321   1.862  1.2294 -1.5584  0.3727
 8723TIP3   OH247583   4.873   1.919   0.124 -0.4792 -0.2726 -0.0580
 8723TIP3    H147584   4.805   1.969   0.078  1.9798  2.0130 -1.4706
 8723TIP3    H247585   4.934   1.892   0.056  0.5175 -1.5235  1.2650
 8724TIP3   OH247586   5.546   6.286   1.438  0.2343  0.5106 -0.1352
 8724TIP3    H147587   5.537   6.369   1.392 -2.1458  0.0431 -0.6560
 8724TIP3    H247588   5.459   6.268   1.473  0.8101 -1.5074  0.4268
 8725TIP3   OH247589   1.750   2.362  10.853  0.1390  0.0003 -0.5309
 8725TIP3    H147590   1.671   2.408  10.824  0.8885  0.7723 -1.3952
 8725TIP3    H247591   1.760   2.290  10.791 -1.2132 -1.6412  1.0042
 8726TIP3   OH247592   3.886   6.611  16.615 -0.4238 -0.3326 -0.3157
 8726TIP3    H147593   3.906   6.520  16.591 -1.4482 -0.9000  0.8667
 8726TIP3    H247594   3.804   6.630  16.569 -1.1753 -0.6529  0.8392
 8727TIP3   OH247595   5.371   0.254  15.660 -0.1091 -0.0741  0.3031
 8727TIP3    H147596   5.374   0.212  15.574 -0.5265  0.8305 -0.1712
 8727TIP3    H247597   5.301   0.208  15.706 -0.5892  0.1097 -0.2230
 8728TIP3   OH247598   2.941   2.302  15.267  0.2217  0.1905  0.2022
 8728TIP3    H147599   2.919   2.278  15.177  1.0902  1.4089 -0.3657
 8728TIP3    H247600   2.856   2.309  15.311 -0.1792 -1.1661 -0.2991
 8729TIP3   OH247601   6.627   3.875  13.741  0.3692  0.7017 -0.0345
 8729TIP3    H147602   6.550   3.894  13.793  1.0292  0.9000  0.8965
 8729TIP3    H247603   6.593   3.847  13.656 -0.7237  0.4599  0.4718
 8730TIP3   OH247604   6.585   1.650  16.567 -0.7799 -1.1876  0.4394
 8730TIP3    H147605   6.539   1.584  16.514 -2.3682  0.9342 -0.9950
 8730TIP3    H247606   6.515   1.699  16.610  0.3763 -0.5602  1.6550
 8731TIP3   OH247607   6.056   5.847   0.311 -0.0904 -0.2423 -0.2139
 8731TIP3    H147608   6.141   5.803   0.311  0.3806  0.6416  0.2611
 8731TIP3    H247609   6.077   5.939   0.298 -0.9375  0.0431  0.3411
 8732TIP3   OH247610   2.526   5.231  16.628  0.3104  0.3364  0.6174
 8732TIP3    H147611   2.520   5.291  16.702 -2.6281 -0.8847  1.5104
 8732TIP3    H247612   2.588   5.164  16.656  0.4656  0.7484  1.2857
 8733TIP3   OH247613   2.505   3.391  15.450 -0.2689 -0.2602  0.3876
 8733TIP3    H147614   2.513   3.311  15.398  0.0112  1.2059 -1.9462
 8733TIP3    H247615   2.413   3.392  15.477 -0.6100 -0.7256 -0.6968
 8734TIP3   OH247616   4.934   0.812  15.654 -0.1832 -0.0913  0.2061
 8734TIP3    H147617   4.867   0.805  15.722  0.9086  0.1430  1.3319
 8734TIP3    H247618   4.983   0.730  15.661 -0.6904 -0.5165 -1.0001
 8735TIP3   OH247619   6.616   5.189   4.070  0.0751 -0.3179 -0.5561
 8735TIP3    H147620   6.687   5.245   4.102 -0.6434  1.6544 -2.2045
 8735TIP3    H247621   6.543   5.205   4.130 -0.2678  0.9010 -1.2795
 8736TIP3   OH247622   6.270   6.471   3.269 -0.0668 -0.5009  0.1832
 8736TIP3    H147623   6.327   6.480   3.193  0.1365 -2.2747  0.0688
 8736TIP3    H247624   6.308   6.397   3.317 -1.0996 -0.3965  1.1789
 8737TIP3   OH247625   4.943   3.651   6.566  0.2289 -0.2230  0.7298
 8737TIP3    H147626   4.892   3.692   6.636 -3.1964 -0.0541 -1.6334
 8737TIP3    H247627   4.991   3.723   6.525  1.7673 -0.2335  2.4056
 8738TIP3   OH247628   1.805   2.707   1.874  0.5677  0.0081  0.0912
 8738TIP3    H147629   1.808   2.800   1.848 -0.8133  0.1709  0.4419
 8738TIP3    H247630   1.864   2.702   1.949 -0.0937  0.8256  0.6889
 8739TIP3   OH247631   3.724   4.283   5.598  0.3137  0.5911 -0.2263
 8739TIP3    H147632   3.675   4.299   5.679 -0.0219  0.0180 -0.3115
 8739TIP3    H247633   3.705   4.359   5.543 -0.4441  0.4056 -0.2330
 8740TIP3   OH247634   1.304   4.026   5.350 -0.3443  0.2727 -0.2040
 8740TIP3    H147635   1.385   4.004   5.304 -0.8214  1.9942 -2.0155
 8740TIP3    H247636   1.251   3.946   5.342 -0.0387  0.1830 -1.8846
 8741TIP3   OH247637   2.283   5.471  12.535  0.5184  0.2243 -0.1516
 8741TIP3    H147638   2.285   5.428  12.621 -0.1153  0.7345  0.1259
 8741TIP3    H247639   2.211   5.429  12.488  1.2035 -0.4246 -0.6415
 8742TIP3   OH247640   5.023   6.124   4.355 -0.1886  0.6470 -0.0532
 8742TIP3    H147641   5.070   6.177   4.420  0.0943  0.7136 -0.3056
 8742TIP3    H247642   5.093   6.079   4.307 -0.4369 -0.0975  0.2767
 8743TIP3   OH247643   2.740   5.486   4.194 -0.0276 -0.0940 -0.2506
 8743TIP3    H147644   2.703   5.482   4.106  0.8874  0.6231 -0.6797
 8743TIP3    H247645   2.663   5.497   4.251 -0.4699  2.4358 -1.2062
 8744TIP3   OH247646   4.034   2.385   1.587  0.1410 -0.4734 -0.2319
 8744TIP3    H147647   4.059   2.377   1.495  0.3361  0.0199 -0.2241
 8744TIP3    H247648   3.951   2.432   1.585  1.2857  1.7010 -0.0601
 8745TIP3   OH247649   2.176   3.797  16.553  0.0040  0.0219  0.3158
 8745TIP3    H147650   2.271   3.805  16.562 -0.2063  0.7981  2.4353
 8745TIP3    H247651   2.142   3.883  16.578 -1.2607  0.0158 -1.1994
 8746TIP3   OH247652   0.368   0.954  15.481 -0.4256  0.6767  0.1858
 8746TIP3    H147653   0.308   0.962  15.407  0.2316 -1.4530 -0.6360
 8746TIP3    H247654   0.449   0.921  15.443 -0.9564 -3.4782  2.0469
 8747TIP3   OH247655   5.732   1.926   0.883 -0.4734  0.1206  0.5251
 8747TIP3    H147656   5.684   1.895   0.807 -0.0947 -1.2089  0.8013
 8747TIP3    H247657   5.708   2.019   0.891 -1.0566  0.1007 -0.7803
 8748TIP3   OH247658   3.944   3.703  17.237  0.7246 -0.5656 -0.4910
 8748TIP3    H147659   3.873   3.740  17.185  0.0798 -0.4727  0.4217
 8748TIP3    H247660   3.900   3.642  17.297  1.3149 -0.0008  0.5554
 8749TIP3   OH247661   4.872   3.484   5.983  0.3534 -0.1696 -0.0423
 8749TIP3    H147662   4.890   3.506   6.074  0.8950  0.4824 -0.2988
 8749TIP3    H247663   4.928   3.409   5.965  2.2807  1.3410 -0.5953
 8750TIP3   OH247664   0.344   1.092   1.178  0.3120 -0.0668 -0.2425
 8750TIP3    H147665   0.354   1.001   1.207  1.0578  0.1732  0.2994
 8750TIP3    H247666   0.300   1.136   1.251 -1.3477 -0.2676 -1.0607
 8751TIP3   OH247667   1.699   1.052   3.499  0.1952 -0.8173  0.3279
 8751TIP3    H147668   1.767   1.037   3.432  1.4262 -0.7996  1.5256
 8751TIP3    H247669   1.651   1.128   3.466  0.8852 -0.6965 -0.4641
 8752TIP3   OH247670   2.045   1.949  12.015 -0.3357 -0.0064 -0.4778
 8752TIP3    H147671   2.052   1.855  11.998 -2.4857 -0.4253  0.5885
 8752TIP3    H247672   1.986   1.980  11.946  0.4240  0.5928 -0.8656
 8753TIP3   OH247673   1.510   0.161   0.552 -0.0206  0.4890 -0.2550
 8753TIP3    H147674   1.508   0.145   0.458  0.8265  2.5292 -0.6802
 8753TIP3    H247675   1.597   0.132   0.579 -0.3916 -0.4219 -0.0241
 8754TIP3   OH247676   4.306   4.885  17.217  0.5148  0.2172  0.2710
 8754TIP3    H147677   4.238   4.923  17.272  0.9339  2.2425 -0.5182
 8754TIP3    H247678   4.327   4.801  17.258 -0.0169  1.1170  2.4828
 8755TIP3   OH247679   0.696   3.181   2.524 -0.2395  0.3437  0.1204
 8755TIP3    H147680   0.757   3.228   2.581  0.7288  1.4530 -1.7019
 8755TIP3    H247681   0.628   3.246   2.504  0.3811  0.5949 -1.3340
 8756TIP3   OH247682   3.873   5.200  15.025  0.4967 -0.3708  0.3563
 8756TIP3    H147683   3.866   5.283  15.072  0.1939 -1.0270  1.5183
 8756TIP3    H247684   3.895   5.225  14.935 -1.2372  1.0555  0.2745
 8757TIP3   OH247685   6.059   4.581   4.954 -0.0728 -0.0163 -0.0924
 8757TIP3    H147686   6.066   4.529   5.034 -0.3991  0.7820  0.4809
 8757TIP3    H247687   6.068   4.672   4.984  0.0067  0.2856 -0.9925
 8758TIP3   OH247688   3.278   1.204   1.995  0.1072  0.0232 -0.0261
 8758TIP3    H147689   3.201   1.228   2.048 -0.3207 -0.1140 -0.5718
 8758TIP3    H247690   3.298   1.284   1.946  1.2040  0.5082  1.1601
 8759TIP3   OH247691   6.077   5.121   5.128  0.2101 -0.4602  0.2953
 8759TIP3    H147692   6.059   5.211   5.102 -0.7221 -0.9048 -0.6791
 8759TIP3    H247693   6.108   5.128   5.218  1.7761  0.9811 -0.2926
 8760TIP3   OH247694   0.631   4.412  17.336 -0.4435  0.1117  0.1443
 8760TIP3    H147695   0.549   4.363  17.333  0.6587 -1.8364 -1.5783
 8760TIP3    H247696   0.634   4.459  17.253  0.2915 -0.0703  0.0573
 8761TIP3   OH247697   1.246   1.173  15.413  0.3472  0.3726  0.8401
 8761TIP3    H147698   1.308   1.101  15.399  0.6894  0.9340 -0.7484
 8761TIP3    H247699   1.163   1.129  15.431  0.5616 -0.4407 -0.0666
 8762TIP3   OH247700   4.833   6.172  13.196 -0.1524 -0.4188 -0.3313
 8762TIP3    H147701   4.796   6.242  13.142 -2.0131 -0.4991  0.7850
 8762TIP3    H247702   4.928   6.186  13.190 -0.4433  1.8057 -0.6570
 8763TIP3   OH247703   5.733   3.030   0.816 -0.5234 -0.2770  0.1281
 8763TIP3    H147704   5.641   3.007   0.831 -0.6455  0.4309  0.5217
 8763TIP3    H247705   5.755   3.086   0.890 -0.2266  0.8005 -0.7596
 8764TIP3   OH247706   3.869   1.563  12.793 -0.7210  0.5894  0.3153
 8764TIP3    H147707   3.948   1.615  12.775 -0.4607 -0.2751 -1.2275
 8764TIP3    H247708   3.880   1.531  12.882  1.2716 -0.5111 -0.2805
 8765TIP3   OH247709   3.564   1.499  15.895 -0.0861  0.2828  0.0857
 8765TIP3    H147710   3.583   1.555  15.971 -2.5086  1.0529  0.2023
 8765TIP3    H247711   3.533   1.560  15.828 -0.9465 -0.7214 -0.4490
 8766TIP3   OH247712   2.846   4.627   3.003 -0.2827 -0.1121  0.4551
 8766TIP3    H147713   2.816   4.601   2.915 -1.5507  1.2742  0.4353
 8766TIP3    H247714   2.904   4.701   2.988  0.3602 -0.5399  0.7489
 8767TIP3   OH247715   1.777   4.744  16.296 -0.4634 -0.1372 -0.1457
 8767TIP3    H147716   1.788   4.816  16.234  1.0527  0.7088  1.0346
 8767TIP3    H247717   1.725   4.783  16.367 -1.1246 -0.7292 -0.2988
 8768TIP3   OH247718   5.412   5.260  12.515  0.1177  0.1037 -0.7757
 8768TIP3    H147719   5.350   5.193  12.546  0.7587  0.2249  0.8621
 8768TIP3    H247720   5.486   5.211  12.481 -0.1951 -0.0293 -1.2688
 8769TIP3   OH247721   1.480   1.739   0.561  0.0317  0.2025  0.1845
 8769TIP3    H147722   1.403   1.721   0.507 -0.3137  0.2660  0.6557
 8769TIP3    H247723   1.539   1.665   0.544 -0.7449 -0.6042  0.9462
 8770TIP3   OH247724   6.234   1.483  16.454 -0.1343 -0.0571  0.2112
 8770TIP3    H147725   6.256   1.545  16.523 -0.1878 -0.6937  0.8093
 8770TIP3    H247726   6.298   1.413  16.463 -0.0467 -0.0822 -0.4872
 8771TIP3   OH247727   6.508   3.503  13.250  0.5337  0.1724 -0.1963
 8771TIP3    H147728   6.485   3.550  13.170  2.0086  1.2442 -0.0534
 8771TIP3    H247729   6.425   3.485  13.293 -0.1582  1.7765 -0.7923
 8772TIP3   OH247730   1.628   5.148   6.263 -0.8190  0.0876  0.9081
 8772TIP3    H147731   1.539   5.132   6.232 -0.4020  1.0815 -0.9254
 8772TIP3    H247732   1.636   5.244   6.264  0.7049  0.0082 -0.4620
 8773TIP3   OH247733   1.291   6.396   5.747  0.8749  0.6258 -0.1174
 8773TIP3    H147734   1.346   6.457   5.699 -0.5869  1.0146 -1.3969
 8773TIP3    H247735   1.278   6.436   5.833  3.3551  0.0281  0.6025
 8774TIP3   OH247736   3.273   2.688   5.210  0.2145 -0.3055 -0.3463
 8774TIP3    H147737   3.332   2.734   5.270 -1.9549  1.0072  0.9367
 8774TIP3    H247738   3.308   2.599   5.207  2.5526  0.5254 -0.1328
 8775TIP3   OH247739   2.718   5.865  12.362 -0.1001  0.3237 -0.7440
 8775TIP3    H147740   2.743   5.773  12.358  2.8276  1.0273 -0.9310
 8775TIP3    H247741   2.697   5.888  12.271  2.3041  0.5303 -1.3223
 8776TIP3   OH247742   0.549   4.812   1.955 -0.0816 -0.0074  0.1103
 8776TIP3    H147743   0.509   4.818   1.868  0.7318  2.1234 -0.1947
 8776TIP3    H247744   0.478   4.830   2.016 -0.2488  0.5616 -0.2449
 8777TIP3   OH247745   2.202   6.674   5.237  0.6321  0.0109  0.7973
 8777TIP3    H147746   2.248   6.757   5.247 -1.1656  1.0217  1.2734
 8777TIP3    H247747   2.135   6.692   5.171  0.1813 -1.0448  0.9428
 8778TIP3   OH247748   2.588   1.876  15.638  0.3179 -0.3878  0.1687
 8778TIP3    H147749   2.637   1.857  15.718 -0.3981 -0.2237  0.6538
 8778TIP3    H247750   2.537   1.797  15.622 -0.5312  0.0534  0.6197
 8779TIP3   OH247751   4.535   3.776   4.007 -0.0010  0.0497 -0.4808
 8779TIP3    H147752   4.550   3.698   3.954  0.3087 -1.3136  1.4802
 8779TIP3    H247753   4.620   3.819   4.013  0.7019 -1.4719  1.3454
 8780TIP3   OH247754   4.226   1.052  14.448  0.2633  0.2598  0.2577
 8780TIP3    H147755   4.259   1.087  14.365  1.7367 -0.6557  0.4275
 8780TIP3    H247756   4.259   0.962  14.451  0.8521  0.4978  2.1417
 8781TIP3   OH247757   2.040   4.184   3.413  0.0179 -0.6000 -0.1422
 8781TIP3    H147758   2.089   4.137   3.481  0.2759  0.6805  0.5898
 8781TIP3    H247759   2.104   4.243   3.373 -0.2250 -1.0656 -1.2630
 8782TIP3   OH247760   1.425   3.361  13.625  0.7423  0.4331 -0.0267
 8782TIP3    H147761   1.446   3.357  13.532 -0.8743 -1.7969 -0.3714
 8782TIP3    H247762   1.508   3.347  13.669  0.9491 -2.9213 -1.2446
 8783TIP3   OH247763   5.218   5.273   3.798  0.3365 -0.5283 -0.4750
 8783TIP3    H147764   5.225   5.200   3.736  1.0125  0.3251 -1.4323
 8783TIP3    H247765   5.249   5.349   3.749  0.4098  0.2630  0.7605
 8784TIP3   OH247766   3.551   0.779   3.883  0.2702  0.1698 -0.0894
 8784TIP3    H147767   3.572   0.747   3.795 -0.7777 -0.6691 -0.0546
 8784TIP3    H247768   3.625   0.837   3.906  1.4747 -1.0373 -0.7715
 8785TIP3   OH247769   3.285   6.001  16.975  0.1182 -0.0431 -0.0800
 8785TIP3    H147770   3.292   6.058  16.899  3.0467 -0.5231 -0.3053
 8785TIP3    H247771   3.270   6.060  17.048 -0.9744  0.5893 -0.7911
 8786TIP3   OH247772   1.157   4.331  15.023 -0.2412  0.2798  0.3493
 8786TIP3    H147773   1.235   4.380  14.995  1.3215 -1.7854  0.8280
 8786TIP3    H247774   1.145   4.265  14.955 -1.6671  0.6287  0.2367
 8787TIP3   OH247775   6.478   3.699   4.729  0.0628  0.3668 -0.4404
 8787TIP3    H147776   6.566   3.677   4.760 -0.5582 -1.9784 -0.1638
 8787TIP3    H247777   6.419   3.654   4.789 -1.2727  0.0312 -1.9231
 8788TIP3   OH247778   2.872   6.709  16.941 -0.3229 -0.5259 -0.2152
 8788TIP3    H147779   2.850   6.790  16.895 -1.8491  0.9626  2.8953
 8788TIP3    H247780   2.789   6.662  16.948 -0.0250 -0.9542  0.5401
 8789TIP3   OH247781   3.485   3.746  11.746  0.4804  0.5133 -0.8260
 8789TIP3    H147782   3.528   3.809  11.804 -1.9225  1.6626 -0.1264
 8789TIP3    H247783   3.485   3.664  11.795 -0.1219  1.0852  0.1930
 8790TIP3   OH247784   2.349   5.530  15.955 -0.3585  0.0647 -0.4244
 8790TIP3    H147785   2.306   5.523  15.870  0.0972 -0.2076 -0.6391
 8790TIP3    H247786   2.282   5.565  16.014 -1.4413 -2.0609 -0.3237
 8791TIP3   OH247787   1.599   1.663  16.811 -0.1441 -0.7698 -0.6011
 8791TIP3    H147788   1.610   1.629  16.900  1.6073 -1.4938 -1.0524
 8791TIP3    H247789   1.607   1.758  16.820 -2.8306 -0.5271  0.3600
 8792TIP3   OH247790   1.143   4.904   2.028 -0.3479  0.4971  0.0791
 8792TIP3    H147791   1.155   4.919   1.934  0.5500  0.4397  0.1727
 8792TIP3    H247792   1.215   4.846   2.052 -1.0444 -0.1434  0.6512
 8793TIP3   OH247793   6.242   1.746   3.760  0.5427 -0.0348 -0.1986
 8793TIP3    H147794   6.326   1.763   3.804  1.3445 -1.7753 -0.9450
 8793TIP3    H247795   6.247   1.798   3.680  1.3248 -0.7986 -0.6685
 8794TIP3   OH247796   5.563   0.514   1.572 -0.6552  0.2111 -0.0110
 8794TIP3    H147797   5.470   0.491   1.565 -0.0845 -1.9814 -1.1313
 8794TIP3    H247798   5.576   0.580   1.504 -1.4966  1.0364  0.5922
 8795TIP3   OH247799   3.948   1.667   5.006  0.1902 -0.4689 -1.0438
 8795TIP3    H147800   4.021   1.688   5.064  1.2263 -0.6467 -2.2510
 8795TIP3    H247801   3.979   1.594   4.953 -0.6180 -0.1110 -2.0412
 8796TIP3   OH247802   6.181   3.305   6.583 -0.2447 -0.5285 -0.2652
 8796TIP3    H147803   6.143   3.387   6.616  0.0013 -0.4350 -0.2178
 8796TIP3    H247804   6.182   3.247   6.660 -0.6973 -0.6775 -0.3682
 8797TIP3   OH247805   4.466   6.163  16.627 -0.0134  0.3272  0.0188
 8797TIP3    H147806   4.528   6.151  16.699 -0.2849 -0.8040  0.0814
 8797TIP3    H247807   4.410   6.086  16.631  0.1923  0.0523 -1.6289
 8798TIP3   OH247808   1.025   5.614  11.193  0.6000 -0.5272  0.4541
 8798TIP3    H147809   1.002   5.707  11.191  1.2926 -0.3525  0.3437
 8798TIP3    H247810   1.052   5.598  11.284  0.3934 -0.6450  0.4956
 8799TIP3   OH247811   5.119   3.468  16.481 -0.1829  0.1861  0.5636
 8799TIP3    H147812   5.152   3.514  16.558  0.8617  0.1552  0.1520
 8799TIP3    H247813   5.068   3.534  16.434  0.7336  0.7406  0.3299
 8800TIP3   OH247814   2.635   0.858  15.118 -0.2745  0.2990  0.4313
 8800TIP3    H147815   2.721   0.898  15.132 -0.0344 -0.6630  1.8929
 8800TIP3    H247816   2.577   0.932  15.098  0.8342  0.9709 -0.4451
 8801TIP3   OH247817   5.302   6.319   0.082 -0.0223  1.0062 -0.4936
 8801TIP3    H147818   5.262   6.283   0.003 -2.1062  0.1544  0.8830
 8801TIP3    H247819   5.390   6.281   0.083 -1.4307 -2.6296 -0.1532
 8802TIP3   OH247820   0.611   3.525  13.156  0.1258 -0.2603  0.0993
 8802TIP3    H147821   0.653   3.604  13.189 -0.7781 -0.5620  2.1264
 8802TIP3    H247822   0.679   3.458  13.162  0.7486  0.2154 -1.1782
 8803TIP3   OH247823   5.820   6.470  15.923  0.1590  0.2349  0.6845
 8803TIP3    H147824   5.826   6.409  15.849 -1.8720  1.5910 -0.7457
 8803TIP3    H247825   5.896   6.527  15.913 -0.3327  0.7013 -0.7234
 8804TIP3   OH247826   4.343   4.808   0.326 -0.7549  0.6540  0.0780
 8804TIP3    H147827   4.323   4.746   0.397 -2.5753  2.4850  1.2473
 8804TIP3    H247828   4.437   4.794   0.310 -0.6287 -0.9337  1.7360
 8805TIP3   OH247829   1.271   2.263  16.943  0.3724 -0.4289 -0.2312
 8805TIP3    H147830   1.206   2.307  16.997 -0.7349 -2.3497  0.1146
 8805TIP3    H247831   1.329   2.220  17.005  0.9741 -0.0914 -0.5530
 8806TIP3   OH247832   2.125   0.012  12.845 -0.0854  0.6246 -0.0502
 8806TIP3    H147833   2.164   0.051  12.767  0.3877 -0.0390 -0.1561
 8806TIP3    H247834   2.072  -0.061  12.812  0.9632 -0.3315  0.3042
 8807TIP3   OH247835   5.490   2.787  12.889  0.1743  0.1839  0.4427
 8807TIP3    H147836   5.540   2.720  12.937 -0.5251  0.6130  1.8074
 8807TIP3    H247837   5.488   2.862  12.948 -0.5361  0.8091 -0.3642
 8808TIP3   OH247838   3.929   3.151   2.051 -0.1565  0.1498  0.0201
 8808TIP3    H147839   3.866   3.220   2.073  0.6209  1.2325 -0.9768
 8808TIP3    H247840   3.879   3.086   2.003 -1.3570 -1.0604  2.6874
 8809TIP3   OH247841   2.841   6.218   4.925 -0.1334  0.8267 -0.1036
 8809TIP3    H147842   2.891   6.168   4.990 -1.3700 -0.7694 -0.3394
 8809TIP3    H247843   2.838   6.162   4.848 -1.0170  1.5251 -0.5982
 8810TIP3   OH247844   3.521   5.817  15.230  0.6806  0.1652  0.4929
 8810TIP3    H147845   3.507   5.727  15.257 -1.0004  0.2902  0.1072
 8810TIP3    H247846   3.434   5.857  15.231  1.5281  2.1553  1.8983
 8811TIP3   OH247847   3.139   0.401   4.297  0.1427 -0.0867  0.0894
 8811TIP3    H147848   3.068   0.451   4.257  0.9158 -0.2027 -1.5382
 8811TIP3    H247849   3.165   0.452   4.373 -0.1208  1.1926 -0.6428
 8812TIP3   OH247850   5.034   1.724  12.133 -0.0029  0.6812  0.0573
 8812TIP3    H147851   5.095   1.661  12.096  0.3509  1.2397 -0.3341
 8812TIP3    H247852   4.955   1.715  12.080  0.4721  1.4203 -0.8177
 8813TIP3   OH247853   2.718   6.143   1.090 -0.5309 -0.0129  0.5304
 8813TIP3    H147854   2.791   6.086   1.068  1.7107  2.2563  1.6235
 8813TIP3    H247855   2.716   6.143   1.186 -1.6641  0.3822  0.5235
 8814TIP3   OH247856   1.173   6.361   2.063 -0.3559  0.2214 -0.1359
 8814TIP3    H147857   1.241   6.415   2.021 -0.6708  0.9225  0.2554
 8814TIP3    H247858   1.211   6.336   2.147 -1.2623  2.1387  0.9006
 8815TIP3   OH247859   0.943   1.471  16.245  0.2134 -0.1177  0.0906
 8815TIP3    H147860   0.865   1.424  16.217 -0.5995  1.9323 -1.3392
 8815TIP3    H247861   1.016   1.420  16.209 -0.5193 -1.3037  0.2413
 8816TIP3   OH247862   4.390   2.180  11.694  0.5661 -0.0197  0.0453
 8816TIP3    H147863   4.474   2.226  11.684  0.9180 -0.3972  1.1028
 8816TIP3    H247864   4.402   2.099  11.646  0.0976  0.7714 -1.4600
 8817TIP3   OH247865   3.214   1.861   1.127 -0.0670  0.2799  0.5932
 8817TIP3    H147866   3.189   1.847   1.036  0.6258  0.6947  0.3353
 8817TIP3    H247867   3.230   1.773   1.161  0.5190  0.1777  0.0654
 8818TIP3   OH247868   5.959   0.740  15.733  0.4632 -0.2469 -0.2397
 8818TIP3    H147869   6.005   0.740  15.817  0.8471  0.1884 -0.4432
 8818TIP3    H247870   5.895   0.811  15.740 -1.1855 -1.7306  0.5568
 8819TIP3   OH247871   4.745   2.781   0.543  0.4232  0.2127 -0.2446
 8819TIP3    H147872   4.683   2.709   0.531  1.0722 -1.1481  3.3002
 8819TIP3    H247873   4.827   2.749   0.505  0.0781  0.2336 -1.0357
 8820TIP3   OH247874   6.691   1.414  15.899  0.3043  0.1891  0.1298
 8820TIP3    H147875   6.747   1.475  15.851  1.2136  0.5422  1.5668
 8820TIP3    H247876   6.748   1.380  15.968 -0.8281 -0.6417  0.6738
 8821TIP3   OH247877   6.393   2.564  12.550 -0.2618 -0.1534 -0.2269
 8821TIP3    H147878   6.367   2.479  12.515  1.1372  0.0047 -1.7074
 8821TIP3    H247879   6.375   2.626  12.479 -0.6350  0.7055  0.5925
 8822TIP3   OH247880   1.039   2.663  11.800 -0.1914  0.1953  0.2715
 8822TIP3    H147881   1.024   2.688  11.891 -0.9235  1.1351 -0.0923
 8822TIP3    H247882   1.019   2.742  11.750  1.5983  0.1440 -0.6107
 8823TIP3   OH247883   3.358   1.066   3.208  0.0322 -0.2009 -0.1545
 8823TIP3    H147884   3.294   1.123   3.250 -1.1617  0.9329 -3.2875
 8823TIP3    H247885   3.306   1.006   3.155  1.4891 -0.5815 -1.2137
 8824TIP3   OH247886   5.980   5.668   4.082 -0.1344  0.5077  0.1227
 8824TIP3    H147887   5.965   5.734   4.015  1.3090  0.6077 -0.1211
 8824TIP3    H247888   5.954   5.586   4.040  1.0914  0.5183 -0.7154
 8825TIP3   OH247889   5.368   6.111  13.481 -0.1257  0.1388  0.2654
 8825TIP3    H147890   5.438   6.168  13.448 -0.1697 -0.1064 -0.2502
 8825TIP3    H247891   5.325   6.077  13.403 -0.4353 -0.1970  0.5771
 8826TIP3   OH247892   3.461   2.959   1.569 -0.4227  0.0659 -0.0466
 8826TIP3    H147893   3.550   2.929   1.552 -0.8369 -1.1769 -0.1811
 8826TIP3    H247894   3.468   3.016   1.645  0.6463  0.9233 -0.7695
 8827TIP3   OH247895   6.230   1.754  12.702  0.3018  0.2007 -0.3292
 8827TIP3    H147896   6.319   1.743  12.734 -0.3575 -0.5432  1.3169
 8827TIP3    H247897   6.213   1.848  12.708  0.1802  0.0829  1.6486
 8828TIP3   OH247898   6.283   0.842  13.880 -0.5188  0.1625 -0.3205
 8828TIP3    H147899   6.345   0.913  13.895 -0.5590 -0.2109  2.0041
 8828TIP3    H247900   6.257   0.814  13.968 -1.8082 -1.5878 -1.1964
 8829TIP3   OH247901   2.523   4.032  13.577  0.1687  0.1579  0.8366
 8829TIP3    H147902   2.499   3.948  13.616  0.9386 -0.6789 -0.4285
 8829TIP3    H247903   2.446   4.088  13.592 -0.0837 -0.5345  2.3021
 8830TIP3   OH247904   6.067   3.570   0.542 -0.6971 -0.0501 -0.4527
 8830TIP3    H147905   6.081   3.664   0.534  0.1832 -0.2014 -0.8545
 8830TIP3    H247906   6.034   3.543   0.456  0.0832 -0.2671 -0.6930
 8831TIP3   OH247907   2.415   0.999   0.296 -0.1696 -0.1899 -0.3232
 8831TIP3    H147908   2.404   0.937   0.368  1.0196  0.1419  0.1554
 8831TIP3    H247909   2.395   0.948   0.217  0.2543 -1.0236  0.0996
 8832TIP3   OH247910   5.889   4.306   6.798  0.5043  0.3370 -0.5986
 8832TIP3    H147911   5.868   4.398   6.818  1.5186  0.8687 -1.8045
 8832TIP3    H247912   5.983   4.299   6.814  1.2895  0.6615 -4.2488
 8833TIP3   OH247913   4.101   2.364  15.906  0.0515  0.0851 -0.5075
 8833TIP3    H147914   4.155   2.291  15.937  1.9980  0.9914 -1.5736
 8833TIP3    H247915   4.055   2.329  15.830 -1.7341 -0.9927  0.9944
 8834TIP3   OH247916   6.228   0.924  11.601  0.0186  0.7456 -0.2624
 8834TIP3    H147917   6.137   0.913  11.627 -0.0125  1.1328 -0.2059
 8834TIP3    H247918   6.277   0.923  11.683  0.2911 -1.3892 -0.3701
 8835TIP3   OH247919   0.826   2.232   0.099  0.7740 -0.1222 -0.0173
 8835TIP3    H147920   0.737   2.221   0.066  1.1673 -1.7561 -0.6168
 8835TIP3    H247921   0.865   2.298   0.042 -0.0399  0.6339  0.2746
 8836TIP3   OH247922   0.505   2.938  16.618 -0.9759 -0.3163 -0.0203
 8836TIP3    H147923   0.520   3.031  16.633 -3.9048  0.2259  0.1283
 8836TIP3    H247924   0.497   2.901  16.706 -1.7043 -0.3202 -0.0828
 8837TIP3   OH247925   6.673   2.096   6.329 -0.2818 -0.6203  0.6201
 8837TIP3    H147926   6.623   2.145   6.394  0.5189 -0.0250  0.8030
 8837TIP3    H247927   6.638   2.125   6.245  1.2805  1.5672  0.6461
 8838TIP3   OH247928   4.409   5.288   3.710 -0.2587  0.0989  0.4589
 8838TIP3    H147929   4.478   5.278   3.645 -1.3145 -0.6940 -0.6037
 8838TIP3    H247930   4.346   5.348   3.669 -1.4055 -1.1554  0.2755
 8839TIP3   OH247931   5.922   4.391  11.738  0.0470 -0.5924  0.0766
 8839TIP3    H147932   5.845   4.418  11.688 -0.1050 -1.5759 -0.2356
 8839TIP3    H247933   5.955   4.472  11.777  1.0596  0.5069 -2.7872
 8840TIP3   OH247934   0.023   4.790  14.760 -0.1124 -0.7238 -0.0302
 8840TIP3    H147935   0.028   4.748  14.846  0.8395 -0.3899  0.0896
 8840TIP3    H247936   0.055   4.879  14.775 -1.1052 -0.2729 -0.4967
 8841TIP3   OH247937   6.423   1.990   0.692  0.3904 -0.0807 -0.4171
 8841TIP3    H147938   6.516   2.008   0.681  0.1119  0.2405 -2.8715
 8841TIP3    H247939   6.384   2.074   0.715  0.6302 -0.1280  0.1799
 8842TIP3   OH247940   2.110   3.964  15.817  0.3306 -0.2881 -0.4774
 8842TIP3    H147941   2.187   4.010  15.851  0.5041 -1.5060  0.8851
 8842TIP3    H247942   2.067   4.028  15.760  2.9341  0.0675 -2.2310
 8843TIP3   OH247943   2.626   4.566  15.749  0.0526 -0.5136 -0.4458
 8843TIP3    H147944   2.605   4.638  15.808  0.1434  0.0173 -1.0461
 8843TIP3    H247945   2.621   4.488  15.804  0.2385 -0.0251  0.2854
 8844TIP3   OH247946   6.709   3.953  15.274  0.4395  0.3689 -0.2350
 8844TIP3    H147947   6.634   4.012  15.277 -0.1334 -0.3679  0.6659
 8844TIP3    H247948   6.769   3.992  15.210  1.0703  3.0937  1.8039
 8845TIP3   OH247949   4.436   4.128  11.561 -0.0765  0.0807  0.1048
 8845TIP3    H147950   4.522   4.116  11.602 -1.0789  0.2987  2.4736
 8845TIP3    H247951   4.438   4.072  11.484  1.4061 -1.7488  1.3713
 8846TIP3   OH247952   1.723   5.877   5.079  0.0278 -0.2630  0.0305
 8846TIP3    H147953   1.667   5.923   5.141 -0.2582 -1.8880  1.0158
 8846TIP3    H247954   1.812   5.904   5.103 -0.0478 -1.2199  1.4610
 8847TIP3   OH247955   0.511   4.066   5.203 -0.2322  0.5392  0.2170
 8847TIP3    H147956   0.595   4.098   5.170 -0.3498 -1.2782 -2.1044
 8847TIP3    H247957   0.528   3.976   5.228 -1.8715 -0.6035 -2.3934
 8848TIP3   OH247958   4.830   2.323   2.314 -0.2078  0.0382  0.3131
 8848TIP3    H147959   4.756   2.383   2.303  0.7674  0.8483 -2.6060
 8848TIP3    H247960   4.841   2.282   2.229  1.7453 -1.2374  1.1183
 8849TIP3   OH247961   6.518   1.078  13.075 -0.0154  0.2070  0.0685
 8849TIP3    H147962   6.451   1.078  13.006 -0.8922 -1.3076  0.8847
 8849TIP3    H247963   6.484   1.020  13.142  0.5728  2.0257  2.0563
 8850TIP3   OH247964   1.358   4.001   2.743 -0.6261 -0.1946 -0.2594
 8850TIP3    H147965   1.312   3.921   2.768 -1.4034  0.2054 -0.3626
 8850TIP3    H247966   1.288   4.060   2.712 -0.5196  1.5607  2.4374
 8851TIP3   OH247967   3.800   2.087  13.563  0.1272 -0.0233 -0.7239
 8851TIP3    H147968   3.811   2.175  13.526 -1.8414  1.0330  1.0146
 8851TIP3    H247969   3.748   2.040  13.498  0.7273  0.2317 -1.4145
 8852TIP3   OH247970   4.949   4.270  16.434  0.5470 -0.3724 -0.4474
 8852TIP3    H147971   4.941   4.256  16.528 -2.8705  1.3545 -0.3084
 8852TIP3    H247972   4.930   4.184  16.395  0.7384 -0.8053  0.3993
 8853TIP3   OH247973   3.800   0.258  10.982  0.3117 -0.0453  0.5738
 8853TIP3    H147974   3.764   0.256  11.071  1.6170 -2.2895  1.1385
 8853TIP3    H247975   3.863   0.330  10.983  0.1803  0.0704  1.3947
 8854TIP3   OH247976   4.844   5.643   1.660 -0.5997 -0.2448 -0.4759
 8854TIP3    H147977   4.814   5.651   1.569 -0.3390  2.5468 -0.4057
 8854TIP3    H247978   4.939   5.636   1.654 -0.6924 -2.0541 -0.4326
 8855TIP3   OH247979   1.298   6.371   1.792 -0.2464 -0.0017  0.3159
 8855TIP3    H147980   1.244   6.402   1.719 -2.2786 -0.2423  1.6323
 8855TIP3    H247981   1.266   6.282   1.810  1.4726 -0.6524  0.3604
 8856TIP3   OH247982   3.388   0.102   2.452  0.1589  0.3426  0.1746
 8856TIP3    H147983   3.455   0.170   2.454  0.3490  0.2265 -1.1071
 8856TIP3    H247984   3.402   0.057   2.369 -0.9340 -0.2758  0.2981
 8857TIP3   OH247985   4.835   5.649  17.170  0.3786 -0.1229 -0.5165
 8857TIP3    H147986   4.902   5.584  17.190 -0.1976 -1.1015 -1.6221
 8857TIP3    H247987   4.757   5.598  17.149 -0.1280  0.9205 -1.3084
 8858TIP3   OH247988   1.142   1.709   2.681  0.5953  0.3228  0.0192
 8858TIP3    H147989   1.078   1.672   2.620  1.4370  0.2139 -0.8272
 8858TIP3    H247990   1.109   1.797   2.699  0.1179  0.2109 -0.2713
 8859TIP3   OH247991   3.904   5.837  16.364 -0.0776 -0.4157 -0.4938
 8859TIP3    H147992   3.932   5.895  16.434  0.0382 -1.0497 -0.0039
 8859TIP3    H247993   3.885   5.754  16.408  0.2464 -0.8948 -1.2465
 8860TIP3   OH247994   3.207   6.342   5.784  0.6733  0.4421 -0.0390
 8860TIP3    H147995   3.197   6.286   5.861  1.8560  0.7204  0.3439
 8860TIP3    H247996   3.146   6.307   5.720  1.5874 -1.4686  0.0804
 8861TIP3   OH247997   2.168   1.393   5.548 -0.5120 -0.4949 -0.2748
 8861TIP3    H147998   2.176   1.443   5.629 -2.2396 -0.1770 -0.2672
 8861TIP3    H247999   2.123   1.313   5.573  0.3079 -1.0995 -0.6741
 8862TIP3   OH248000   1.547   1.138   5.136  0.0714  0.3554  0.1999
 8862TIP3    H148001   1.630   1.146   5.183 -0.0928  1.1546  0.3617
 8862TIP3    H248002   1.481   1.131   5.204 -0.0394  0.2128  0.0772
 8863TIP3   OH248003   2.585   1.593  11.308 -0.1447 -0.2019 -0.3936
 8863TIP3    H148004   2.515   1.634  11.257  0.1204 -1.2966 -1.7218
 8863TIP3    H248005   2.567   1.499  11.301  0.0766 -0.4002  1.3310
 8864TIP3   OH248006   3.768   1.112   0.481  0.3106 -0.3354  0.2418
 8864TIP3    H148007   3.804   1.045   0.423  1.0350  0.3147 -0.0680
 8864TIP3    H248008   3.814   1.193   0.457 -2.1399  0.8106 -0.9773
 8865TIP3   OH248009   4.917   6.516   1.152 -0.4299  0.0417  0.3817
 8865TIP3    H148010   4.943   6.482   1.066  0.5223  1.3782  0.1030
 8865TIP3    H248011   4.867   6.445   1.192 -0.9990 -0.5757 -1.3250
 8866TIP3   OH248012   2.744   5.316   6.195  0.4919 -0.4157  0.6294
 8866TIP3    H148013   2.830   5.328   6.235  0.2531  1.2704  0.6936
 8866TIP3    H248014   2.682   5.328   6.268  0.1264  0.9039  0.1343
 8867TIP3   OH248015   5.299   5.828   0.750 -0.1380 -0.0238  0.2760
 8867TIP3    H148016   5.301   5.878   0.669 -0.3428 -0.6782 -0.1407
 8867TIP3    H248017   5.327   5.740   0.725 -2.0677 -0.7693  0.4920
 8868TIP3   OH248018   0.822   0.355   3.452  0.3472 -0.3208  0.2715
 8868TIP3    H148019   0.914   0.369   3.478  0.5842 -0.8754 -0.2436
 8868TIP3    H248020   0.792   0.284   3.509  0.3595 -0.3971  0.1843
 8869TIP3   OH248021   5.526   3.978   1.885 -0.3880 -0.0851 -0.0203
 8869TIP3    H148022   5.479   3.918   1.827  0.7896 -0.8348 -0.2250
 8869TIP3    H248023   5.459   4.040   1.914 -1.2785 -0.5022 -1.1147
 8870TIP3   OH248024   1.282   0.048   0.731  0.4245 -0.2684  0.0105
 8870TIP3    H148025   1.267  -0.024   0.670  0.9333 -0.1284 -0.2823
 8870TIP3    H248026   1.371   0.078   0.713 -0.0589  0.9843 -0.4421
 8871TIP3   OH248027   6.230   0.648   1.189 -0.0911  0.5066  0.2992
 8871TIP3    H148028   6.259   0.596   1.264  1.2582 -0.5356 -0.8959
 8871TIP3    H248029   6.204   0.583   1.124 -2.0045  1.4030  0.1005
 8872TIP3   OH248030   5.961   1.106  12.178 -0.0012 -0.0403  0.5919
 8872TIP3    H148031   6.026   1.040  12.153  0.6415  0.8541 -0.1605
 8872TIP3    H248032   5.995   1.142  12.260 -0.0326 -0.2033  0.6782
 8873TIP3   OH248033   1.887   4.168  17.217  0.5375  0.5269  0.3150
 8873TIP3    H148034   1.933   4.239  17.263  1.2257  0.3913 -0.1408
 8873TIP3    H248035   1.921   4.172  17.128  1.2498 -0.9192  0.4817
 8874TIP3   OH248036   0.453   2.405  14.722 -0.0467 -0.1494  0.4465
 8874TIP3    H148037   0.363   2.418  14.752  0.4794 -0.0202  2.0940
 8874TIP3    H248038   0.489   2.493  14.717  0.0819 -0.2224  0.1140
 8875TIP3   OH248039   1.207   0.628   3.057  0.0134 -0.2153 -0.1151
 8875TIP3    H148040   1.213   0.669   3.143  0.0952 -0.0546 -0.1975
 8875TIP3    H248041   1.116   0.599   3.051  0.3892 -1.6790  0.6907
 8876TIP3   OH248042   2.939   3.239  12.006  0.7790  0.1127  0.9470
 8876TIP3    H148043   2.910   3.148  11.992 -0.6860  0.2161  2.9211
 8876TIP3    H248044   2.911   3.285  11.927 -0.2779 -0.7831  0.7718
 8877TIP3   OH248045   0.710   1.416  12.823  0.7770  0.3600  0.1733
 8877TIP3    H148046   0.727   1.323  12.817 -0.6040  0.0345  0.7592
 8877TIP3    H248047   0.695   1.444  12.733  1.3762  0.0652 -0.0216
 8878TIP3   OH248048   0.851   2.604  13.972  0.0574  0.1422  0.5854
 8878TIP3    H148049   0.878   2.691  13.945 -1.0995 -0.1638 -1.7824
 8878TIP3    H248050   0.759   2.614  13.998 -0.1398 -0.4060  0.1180
 8879TIP3   OH248051   6.120   5.534  17.267 -0.3315  0.3301 -0.0836
 8879TIP3    H148052   6.145   5.505  17.354  1.4927 -0.0411 -0.6879
 8879TIP3    H248053   6.181   5.605  17.246 -0.1128 -0.2070 -1.3967
 8880TIP3   OH248054   0.771   5.850  15.374 -0.3876  0.1222  0.8229
 8880TIP3    H148055   0.814   5.874  15.457 -0.0412 -0.0910  0.7056
 8880TIP3    H248056   0.713   5.778  15.397  0.5921 -0.7335  0.6589
 8881TIP3   OH248057   5.811   2.495  11.797  0.6466  0.0098 -0.3662
 8881TIP3    H148058   5.784   2.565  11.857 -1.1855  0.3026 -1.4785
 8881TIP3    H248059   5.906   2.506  11.789  0.9492  0.0127  2.3712
 8882TIP3   OH248060   4.245   5.056   3.727 -0.0137  0.0582  0.3318
 8882TIP3    H148061   4.305   4.990   3.693 -0.9465 -1.4018  1.3574
 8882TIP3    H248062   4.297   5.136   3.733  0.9974 -0.4179 -1.4966
 8883TIP3   OH248063   2.539   4.111   3.341  0.6173 -0.1846 -0.2996
 8883TIP3    H148064   2.603   4.078   3.279  2.1202  0.8409  0.6215
 8883TIP3    H248065   2.591   4.133   3.419 -0.6121  1.9970 -0.0194
 8884TIP3   OH248066   5.121   3.113  12.145 -0.0817 -0.1027  0.5132
 8884TIP3    H148067   5.090   3.022  12.146  3.4234 -1.5593 -2.5377
 8884TIP3    H248068   5.185   3.116  12.216 -1.4378  0.6463  1.7765
 8885TIP3   OH248069   1.576   1.950   6.943  0.0317 -0.4568 -0.3866
 8885TIP3    H148070   1.517   1.916   6.876  0.0595  1.1112 -1.2660
 8885TIP3    H248071   1.519   1.967   7.018 -0.2143 -1.1275 -0.4204
 8886TIP3   OH248072   3.234   2.540   4.940  0.3540 -0.0265 -0.1934
 8886TIP3    H148073   3.190   2.466   4.898  0.9592 -0.2843 -0.3929
 8886TIP3    H248074   3.173   2.571   5.006 -0.7844  0.6111 -1.4937
 8887TIP3   OH248075   2.878   1.165  12.480  0.6459  0.2776 -0.0585
 8887TIP3    H148076   2.835   1.250  12.489  1.8414  0.8400  0.5938
 8887TIP3    H248077   2.861   1.139  12.389 -0.5653  0.7322  0.0282
 8888TIP3   OH248078   0.636   0.233   3.299 -0.2453 -0.2620  0.6459
 8888TIP3    H148079   0.685   0.279   3.366  0.5623  0.9285 -0.6918
 8888TIP3    H248080   0.550   0.276   3.298 -0.0786  0.0692  0.5594
 8889TIP3   OH248081   6.448   4.590  10.882 -0.0014 -0.8080 -0.0626
 8889TIP3    H148082   6.448   4.646  10.804  0.5222  1.1016  1.2150
 8889TIP3    H248083   6.508   4.518  10.860  1.2259  0.4256 -0.9683
 8890TIP3   OH248084   2.948   2.003   6.677  0.1512 -0.0162  0.1322
 8890TIP3    H148085   2.923   2.092   6.701  0.0525  0.2297 -0.8423
 8890TIP3    H248086   2.867   1.953   6.686  0.1740  0.0179  0.5459
 8891TIP3   OH248087   5.044   0.209  16.075 -0.2166 -0.0157 -0.4164
 8891TIP3    H148088   4.956   0.246  16.076  0.1696  0.9405 -0.7842
 8891TIP3    H248089   5.035   0.123  16.117 -0.9855  0.8183  1.2093
 8892TIP3   OH248090   3.791   0.613  11.992 -0.1718 -0.0523 -0.4035
 8892TIP3    H148091   3.864   0.591  11.934  3.0949  1.7063  2.5848
 8892TIP3    H248092   3.744   0.683  11.947  0.8793 -0.2220 -1.8441
 8893TIP3   OH248093   2.621   5.999   4.531  0.0021 -0.8161  0.0783
 8893TIP3    H148094   2.576   6.039   4.456 -0.2856 -3.7195 -1.4523
 8893TIP3    H248095   2.698   6.054   4.544 -0.9181  0.8627 -1.0874
 8894TIP3   OH248096   4.556   0.205   0.457  0.3018  0.2984  0.3324
 8894TIP3    H148097   4.561   0.186   0.364 -0.4463 -1.1648  0.5534
 8894TIP3    H248098   4.641   0.178   0.492  0.5377  0.7327  0.0961
 8895TIP3   OH248099   1.301   1.824  16.806 -0.4321 -0.2262  0.0458
 8895TIP3    H148100   1.321   1.910  16.769 -3.3891  0.5263 -0.0329
 8895TIP3    H248101   1.351   1.763  16.753 -0.3704  1.2447 -1.6906
 8896TIP3   OH248102   6.207   6.193   2.833 -0.5152 -0.2585 -0.5023
 8896TIP3    H148103   6.194   6.131   2.905 -0.6660  0.2123 -0.1103
 8896TIP3    H248104   6.123   6.239   2.827 -0.2972  0.1357 -0.5564
 8897TIP3   OH248105   2.483   3.195   0.695  0.2431  0.4911  0.4961
 8897TIP3    H148106   2.471   3.274   0.641  0.3927  0.3442  0.2456
 8897TIP3    H248107   2.415   3.202   0.762 -2.2802 -1.0086 -1.6979
 8898TIP3   OH248108   3.700   5.846  12.291 -0.7161 -0.0959 -0.2668
 8898TIP3    H148109   3.720   5.931  12.330 -1.5529 -0.2112  0.4600
 8898TIP3    H248110   3.777   5.824  12.239  0.7169 -0.2053  1.8000
 8899TIP3   OH248111   6.248   3.207  13.126 -0.8302  0.3120  0.4867
 8899TIP3    H148112   6.232   3.300  13.142  0.0756  0.4896  0.4085
 8899TIP3    H248113   6.335   3.191  13.163  0.0912  0.0758 -1.6206
 8900TIP3   OH248114   1.828   1.560  16.199 -0.5501 -0.4126  0.8049
 8900TIP3    H148115   1.786   1.537  16.282 -1.2847 -0.8787  0.3234
 8900TIP3    H248116   1.772   1.629  16.163 -2.4605 -2.7296 -1.0124
 8901TIP3   OH248117   3.555   2.860   4.552 -0.5917 -0.4934  0.0300
 8901TIP3    H148118   3.591   2.940   4.591  0.4636  1.2248 -3.9861
 8901TIP3    H248119   3.469   2.886   4.520 -1.3342 -1.7719  0.9334
 8902TIP3   OH248120   5.639   0.269   1.457 -0.6284  0.3145 -0.1321
 8902TIP3    H148121   5.597   0.337   1.510 -1.8647  1.0767 -1.9754
 8902TIP3    H248122   5.621   0.188   1.504 -2.1182  0.9035  0.3928
 8903TIP3   OH248123   5.478   1.503   4.603 -0.2482 -0.2814  0.2280
 8903TIP3    H148124   5.508   1.522   4.692  0.8187  2.2699 -0.6032
 8903TIP3    H248125   5.384   1.521   4.606 -0.1130  0.3699  0.6889
 8904TIP3   OH248126   2.798   4.220   1.724 -0.0636 -0.2786 -0.1635
 8904TIP3    H148127   2.766   4.130   1.722 -1.4226  0.1633  0.3197
 8904TIP3    H248128   2.867   4.221   1.789  0.2224 -1.0477 -0.4514
 8905TIP3   OH248129   1.222   0.881  15.635  0.4621  0.0680  0.2503
 8905TIP3    H148130   1.307   0.919  15.611  0.2918  0.2467 -0.0678
 8905TIP3    H248131   1.240   0.788  15.648  0.5592 -0.0260 -0.5481
 8906TIP3   OH248132   0.163   1.019   3.718  0.4355  0.2501 -0.0560
 8906TIP3    H148133   0.083   0.975   3.748  1.5266 -0.3588  2.1214
 8906TIP3    H248134   0.180   0.982   3.631 -2.3573  1.3983 -1.2283
 8907TIP3   OH248135   0.773   3.464  12.130 -0.1755 -0.1595  0.1143
 8907TIP3    H148136   0.685   3.473  12.093 -0.1995 -0.5226  0.0872
 8907TIP3    H248137   0.764   3.497  12.220 -0.3536 -0.2564  0.1325
 8908TIP3   OH248138   1.601   2.521   6.564 -0.1581  0.3577 -0.6458
 8908TIP3    H148139   1.518   2.532   6.611  0.5576 -3.2913  1.7966
 8908TIP3    H248140   1.631   2.611   6.549 -3.0208  1.7767  1.1473
 8909TIP3   OH248141   0.204   4.190  14.653  0.3725 -0.1057  0.2068
 8909TIP3    H148142   0.133   4.238  14.610 -1.3146 -0.9413  1.8951
 8909TIP3    H248143   0.281   4.245  14.642 -0.6420  1.0807 -1.2774
 8910TIP3   OH248144   6.577   4.602  11.967 -0.1297 -0.3314 -0.2067
 8910TIP3    H148145   6.516   4.614  11.895  2.4410 -0.2348 -2.5014
 8910TIP3    H248146   6.615   4.515  11.953  0.1843 -0.4704  1.2640
 8911TIP3   OH248147   0.655   4.139   4.781  0.5775  0.1261 -0.6721
 8911TIP3    H148148   0.561   4.145   4.797  0.3821  1.3059 -2.0497
 8911TIP3    H248149   0.692   4.118   4.866 -1.1021 -2.7479 -0.5257
 8912TIP3   OH248150   3.585   2.234  12.397  0.1445 -0.0546  0.0843
 8912TIP3    H148151   3.576   2.216  12.491  2.4326 -0.3429  0.3186
 8912TIP3    H248152   3.631   2.157  12.363  2.3963  1.4901 -0.5874
 8913TIP3   OH248153   5.208   1.739   0.832  0.4918  0.3022 -0.3979
 8913TIP3    H148154   5.178   1.793   0.905 -0.2726  0.8618 -1.1099
 8913TIP3    H248155   5.296   1.771   0.813  1.1911 -0.6593  1.0408
 8914TIP3   OH248156   5.685   0.837  16.002  0.1741 -0.5035  0.2951
 8914TIP3    H148157   5.740   0.903  15.958 -2.4761  1.4469 -0.3708
 8914TIP3    H248158   5.669   0.874  16.089 -1.8433  0.1731 -0.2951
 8915TIP3   OH248159   3.079   3.747   2.262 -0.2615  0.3169 -0.6937
 8915TIP3    H148160   3.174   3.736   2.259 -0.3707 -1.3238  0.6272
 8915TIP3    H248161   3.061   3.778   2.351 -1.0486 -0.5341 -0.5418
 8916TIP3   OH248162   5.596   6.312  17.276  0.3970 -0.4904 -0.2067
 8916TIP3    H148163   5.625   6.345  17.361  0.6478 -1.4117  0.0735
 8916TIP3    H248164   5.577   6.391  17.225  2.9240  0.2050 -0.2449
 8917TIP3   OH248165   3.516   2.848  11.394  0.5706  0.1543  0.5724
 8917TIP3    H148166   3.506   2.759  11.428  1.1606 -0.2840 -0.3679
 8917TIP3    H248167   3.451   2.899  11.441  0.9047 -0.5631  1.8652
 8918TIP3   OH248168   5.553   1.778  10.922  0.1739 -0.3098 -0.1812
 8918TIP3    H148169   5.639   1.804  10.890  0.2808 -0.3470  0.0784
 8918TIP3    H248170   5.492   1.832  10.872  0.2511 -1.3978 -1.5362
 8919TIP3   OH248171   6.560   2.371  14.782 -0.5169  0.2917 -0.0246
 8919TIP3    H148172   6.487   2.318  14.815 -0.7922 -0.0302 -1.0908
 8919TIP3    H248173   6.615   2.309  14.734  0.1245  0.6516  0.2371
 8920TIP3   OH248174   4.320   1.454   5.556  0.5756 -0.3433  0.6134
 8920TIP3    H148175   4.372   1.527   5.523  0.6880 -0.2762  0.9375
 8920TIP3    H248176   4.253   1.494   5.612  1.4237 -0.5619  1.8353
 8921TIP3   OH248177   5.236   4.654   4.009  0.2203 -0.3684  0.1850
 8921TIP3    H148178   5.151   4.698   4.005  1.3441  2.0870  1.1419
 8921TIP3    H248179   5.236   4.610   4.094 -0.6266 -1.6558 -0.4552
 8922TIP3   OH248180   2.647   3.102   6.742  0.2412 -0.1469 -0.0016
 8922TIP3    H148181   2.688   3.185   6.768 -1.7728  0.6717  0.7598
 8922TIP3    H248182   2.558   3.126   6.717 -0.3344 -2.0723  0.0497
 8923TIP3   OH248183   3.332   0.108  11.579 -0.4237 -0.0038  0.8683
 8923TIP3    H148184   3.318   0.018  11.552  0.6024 -0.1063  0.6104
 8923TIP3    H248185   3.317   0.160  11.500 -1.4656  0.1029  1.1298
 8924TIP3   OH248186   2.510   2.530   2.922  0.2271 -0.1223 -0.0264
 8924TIP3    H148187   2.514   2.538   2.827  1.1779  0.7144  0.0623
 8924TIP3    H248188   2.483   2.440   2.938  1.1182 -0.5973 -1.0898
 8925TIP3   OH248189   5.554   4.220   0.639  0.2229  0.2568 -0.1620
 8925TIP3    H148190   5.634   4.273   0.635  0.6744 -0.4529 -1.0421
 8925TIP3    H248191   5.553   4.173   0.555 -0.2475 -0.9960  0.5182
 8926TIP3   OH248192   1.565   2.319   2.434 -0.0835 -0.0578  0.7551
 8926TIP3    H148193   1.517   2.243   2.466 -2.2745 -0.0164 -2.0314
 8926TIP3    H248194   1.644   2.283   2.393  0.7540 -0.4150  2.5778
 8927TIP3   OH248195   1.514   3.946  11.620  0.1985 -0.3485  0.6259
 8927TIP3    H148196   1.575   3.879  11.652  0.4967 -0.6754 -0.5585
 8927TIP3    H248197   1.428   3.905  11.623  0.5798 -1.5644 -1.8743
 8928TIP3   OH248198   5.358   1.363   4.339 -0.0324  0.1399 -0.3297
 8928TIP3    H148199   5.275   1.383   4.295  1.3958  1.7748 -2.5291
 8928TIP3    H248200   5.416   1.336   4.269  2.3040  2.5552  0.4922
 8929TIP3   OH248201   2.288   3.313   1.963  0.5282 -0.1775  0.3862
 8929TIP3    H148202   2.208   3.349   1.925  0.2776  0.1637  1.2189
 8929TIP3    H248203   2.324   3.384   2.015  0.3024 -0.9371  1.6318
 8930TIP3   OH248204   1.427   3.257  12.438  0.4668  0.6586  0.2274
 8930TIP3    H148205   1.393   3.169  12.455 -0.6675  0.8328 -1.0230
 8930TIP3    H248206   1.497   3.244  12.374  1.0199  0.5754  0.8348
 8931TIP3   OH248207   5.243   5.554   2.644  0.0015  0.1590 -0.5232
 8931TIP3    H148208   5.275   5.570   2.555  1.0371  0.2329 -0.1543
 8931TIP3    H248209   5.177   5.485   2.634  1.9919 -1.7717 -1.0624
 8932TIP3   OH248210   3.906   4.803   6.190 -0.2445 -0.6089  0.7248
 8932TIP3    H148211   3.841   4.749   6.234 -2.1096  1.1834  0.3212
 8932TIP3    H248212   3.898   4.779   6.097 -2.1214  1.2498  0.3311
 8933TIP3   OH248213   3.786   3.563   0.513  0.0444  0.0642 -0.3706
 8933TIP3    H148214   3.866   3.512   0.502  0.8317  1.0501  0.5118
 8933TIP3    H248215   3.817   3.653   0.529 -1.2252  0.4432  0.0863
 8934TIP3   OH248216   2.918   2.568   4.780 -0.5282 -0.4698 -0.3598
 8934TIP3    H148217   2.898   2.630   4.850  1.1140 -0.7472  0.3998
 8934TIP3    H248218   2.953   2.491   4.824  0.3249 -0.7392 -1.4465
 8935TIP3   OH248219   6.590   1.707   2.062  0.4021 -0.1796 -0.1926
 8935TIP3    H148220   6.655   1.642   2.087 -1.1202 -1.8565 -0.3584
 8935TIP3    H248221   6.574   1.758   2.141  2.2759  0.6253 -0.2970
 8936TIP3   OH248222   4.402   1.404   5.012 -0.1069  0.2683  0.4886
 8936TIP3    H148223   4.344   1.416   5.088 -1.6938 -1.4220 -0.3806
 8936TIP3    H248224   4.429   1.313   5.016 -0.5187  0.0424 -1.1540
 8937TIP3   OH248225   0.818   0.001   3.983  0.6750 -0.1530 -0.1184
 8937TIP3    H148226   0.748   0.066   3.983  1.5516  0.8268 -1.0802
 8937TIP3    H248227   0.774  -0.081   4.004 -1.0818  0.1447 -2.2777
 8938TIP3   OH248228   3.290   1.485   2.367 -0.4474  0.3359 -0.7023
 8938TIP3    H148229   3.355   1.552   2.349  1.0106  0.0517  2.7775
 8938TIP3    H248230   3.321   1.408   2.318  1.2858  0.5124  0.0626
 8939TIP3   OH248231   3.230   1.306  13.176  0.2354 -0.4284  0.0092
 8939TIP3    H148232   3.297   1.260  13.125 -0.1082  0.7655 -1.6048
 8939TIP3    H248233   3.238   1.397  13.148 -1.9373 -0.2333 -0.0843
 8940TIP3   OH248234   1.526   3.492  15.482 -0.4290  0.4400  0.3289
 8940TIP3    H148235   1.443   3.495  15.529  0.6124  0.2010  2.2789
 8940TIP3    H248236   1.558   3.582  15.482 -0.5572  0.4916 -0.2133
 8941TIP3   OH248237   5.671   1.180  16.744  0.0086  0.0187  0.2496
 8941TIP3    H148238   5.699   1.243  16.678 -0.3809  0.6092  0.6465
 8941TIP3    H248239   5.745   1.120  16.753  1.2411  1.6223  1.3928
 8942TIP3   OH248240   4.755   1.622   2.950  0.4951  0.4574  0.9117
 8942TIP3    H148241   4.682   1.676   2.978 -0.1133  0.0666  0.1213
 8942TIP3    H248242   4.819   1.684   2.914 -0.7806  0.5999 -1.2694
 8943TIP3   OH248243   0.573   0.172   3.994 -0.3126 -0.0848  0.0251
 8943TIP3    H148244   0.507   0.106   4.012 -0.9722  0.2355 -1.1361
 8943TIP3    H248245   0.565   0.234   4.067 -0.6403 -0.5443  0.3848
 8944TIP3   OH248246   3.402   5.436  12.785  0.1163 -0.4256  0.1879
 8944TIP3    H148247   3.333   5.421  12.851  0.9265 -0.9761  0.9339
 8944TIP3    H248248   3.358   5.483  12.715 -0.3215  2.1643  2.0648
 8945TIP3   OH248249   0.367   1.633  14.431  0.0654 -0.2458 -0.0502
 8945TIP3    H148250   0.423   1.698  14.473 -0.2078  1.1061 -1.7103
 8945TIP3    H248251   0.427   1.566  14.399  0.7838  1.1319 -1.7114
 8946TIP3   OH248252   2.506   4.582  11.661  0.1956  0.3817  0.4628
 8946TIP3    H148253   2.590   4.613  11.627  0.3473  0.8928  1.2824
 8946TIP3    H248254   2.529   4.507  11.715  0.2427  1.0752  1.4312
 8947TIP3   OH248255   4.012   5.019   5.348  0.3255 -0.0701 -0.4514
 8947TIP3    H148256   4.095   5.063   5.365 -0.2149  0.1454  1.8717
 8947TIP3    H248257   4.023   4.932   5.387 -0.2891 -0.3028 -0.7874
 8948TIP3   OH248258   5.256   5.091   2.528  0.0615  0.6847  0.3115
 8948TIP3    H148259   5.220   5.179   2.522 -0.2157  0.6290  1.0477
 8948TIP3    H248260   5.289   5.084   2.617 -2.1385 -0.7592  1.1138
 8949TIP3   OH248261   0.926   2.870  14.236 -0.0680 -0.6465  0.3125
 8949TIP3    H148262   0.871   2.797  14.263 -1.4385  0.1424 -0.2538
 8949TIP3    H248263   0.873   2.948  14.253  0.5703  0.0900 -0.9359
 8950TIP3   OH248264   3.796   0.136  10.703 -0.0900 -0.5434  0.1855
 8950TIP3    H148265   3.782   0.151  10.797 -0.6661 -0.1953  0.0511
 8950TIP3    H248266   3.857   0.062  10.699 -1.6096 -1.8823  0.8140
 8951TIP3   OH248267   3.462   1.509  13.897 -0.2617  1.1571  0.1749
 8951TIP3    H148268   3.461   1.431  13.841  0.3595  2.3197 -1.5421
 8951TIP3    H248269   3.400   1.489  13.967 -0.9132 -0.4547 -0.8086
 8952TIP3   OH248270   2.090   1.718   4.438  0.0675 -0.0251  0.1813
 8952TIP3    H148271   2.020   1.738   4.376  0.9016 -0.6796 -1.0275
 8952TIP3    H248272   2.164   1.772   4.409  0.1849  0.4090  1.2338
 8953TIP3   OH248273   5.812   5.754   6.094 -0.3354  0.4021 -0.1362
 8953TIP3    H148274   5.830   5.813   6.167  0.3805 -0.6620  0.5811
 8953TIP3    H248275   5.806   5.667   6.134 -0.0385 -0.1944 -1.3267
 8954TIP3   OH248276   5.601   5.965  13.062 -0.2503 -0.1048  1.0534
 8954TIP3    H148277   5.597   5.870  13.077 -0.9372  0.1453  2.6768
 8954TIP3    H248278   5.694   5.983  13.048 -0.3076 -1.2734 -1.5219
 8955TIP3   OH248279   5.656   0.065  12.570 -0.4682 -0.1644  0.4725
 8955TIP3    H148280   5.727   0.111  12.525 -1.2508 -1.8680 -2.8598
 8955TIP3    H248281   5.578   0.117  12.550 -0.8602 -1.0696 -0.4622
 8956TIP3   OH248282   4.732   0.555  14.158 -0.9790 -0.2893 -0.4039
 8956TIP3    H148283   4.766   0.490  14.219  0.8215  1.1922  0.2429
 8956TIP3    H248284   4.776   0.535  14.075 -2.3782 -1.4318 -0.9246
 8957TIP3   OH248285   1.382   4.736   4.360  0.5996  0.1708 -0.0450
 8957TIP3    H148286   1.299   4.691   4.375 -0.5058  1.5057 -1.8091
 8957TIP3    H248287   1.402   4.720   4.268  3.1018 -1.3266  0.6518
 8958TIP3   OH248288   4.427   5.941  11.593 -1.1075  0.0938 -0.5656
 8958TIP3    H148289   4.490   5.981  11.533 -0.0039 -0.3063  0.3050
 8958TIP3    H248290   4.435   5.847  11.577  0.2713 -0.1436  1.1771
 8959TIP3   OH248291   5.464   5.176   4.881 -0.1119  0.3114  0.3030
 8959TIP3    H148292   5.522   5.100   4.879 -1.3443 -0.6664  0.1369
 8959TIP3    H248293   5.384   5.143   4.922 -0.6000  1.5859  0.4119
 8960TIP3   OH248294   2.327   2.497   5.093  0.0297 -0.2829  0.5348
 8960TIP3    H148295   2.376   2.528   5.017 -0.5235  1.7509  0.9332
 8960TIP3    H248296   2.289   2.413   5.065  0.2943  0.1417 -1.2304
 8961TIP3   OH248297   1.961   4.609  15.900  0.3072 -0.2968  0.0812
 8961TIP3    H148298   2.050   4.642  15.909  0.5911 -0.9131 -0.4466
 8961TIP3    H248299   1.960   4.563  15.817 -0.7294  0.3950 -0.3107
 8962TIP3   OH248300   1.292   2.106   2.476  0.1284 -0.5551 -0.0192
 8962TIP3    H148301   1.316   2.014   2.484 -0.3411 -0.7366 -0.6503
 8962TIP3    H248302   1.281   2.136   2.567  0.2702 -1.1185  0.1888
 8963TIP3   OH248303   1.566   6.587   2.522 -0.0942 -0.0291  0.4579
 8963TIP3    H148304   1.563   6.498   2.556  3.2406 -0.4090  0.0596
 8963TIP3    H248305   1.539   6.578   2.430 -0.1802 -0.5783  0.5338
 8964TIP3   OH248306   2.750   2.749  11.088 -0.1664 -0.7999  1.2828
 8964TIP3    H148307   2.674   2.772  11.035  0.2218  0.3662  1.1919
 8964TIP3    H248308   2.739   2.802  11.168  0.3842 -0.8623  1.4000
 8965TIP3   OH248309   6.599   3.464   3.367 -0.0120  0.0278  0.4496
 8965TIP3    H148310   6.608   3.375   3.331  1.3534 -0.2877  1.4957
 8965TIP3    H248311   6.688   3.497   3.373 -0.1101  0.0325  3.4897
 8966TIP3   OH248312   0.965   2.443   6.278  0.2114 -0.5732  0.4457
 8966TIP3    H148313   1.006   2.527   6.257 -0.9730 -0.1965 -0.4604
 8966TIP3    H248314   0.943   2.449   6.372 -1.0811  0.6939  0.0945
 8967TIP3   OH248315   0.038   2.553   5.097 -0.3362  0.3923  0.1112
 8967TIP3    H148316   0.015   2.461   5.104 -1.9036  0.2908 -3.7792
 8967TIP3    H248317  -0.031   2.599   5.146  0.0252 -0.3802  1.4100
 8968TIP3   OH248318   1.325   3.616  13.791 -0.2556  0.5512  0.1175
 8968TIP3    H148319   1.230   3.604  13.796 -0.4327  1.2058 -1.1209
 8968TIP3    H248320   1.359   3.571  13.867 -1.4538 -0.8789 -0.1400
 8969TIP3   OH248321   3.653   5.869  15.502  0.4334  0.0006  0.3257
 8969TIP3    H148322   3.737   5.910  15.523  0.6903  0.0206 -0.6750
 8969TIP3    H248323   3.618   5.921  15.429 -0.5100  0.0603  0.8011
 8970TIP3   OH248324   5.446   4.052  17.257 -0.1081  0.5003 -0.0846
 8970TIP3    H148325   5.509   4.010  17.198 -1.5270 -0.8632 -0.6989
 8970TIP3    H248326   5.363   4.007  17.240 -1.1710  1.9263  1.0219
 8971TIP3   OH248327   1.374   2.728  16.657 -0.8484  0.3861  0.2522
 8971TIP3    H148328   1.443   2.794  16.658 -0.8071  0.4289 -1.9624
 8971TIP3    H248329   1.404   2.661  16.718  1.6277 -0.0288 -1.2919
 8972TIP3   OH248330   3.747   0.997  12.195  0.2512  0.0291 -0.2957
 8972TIP3    H148331   3.716   0.932  12.258 -0.1711  1.3902  0.9884
 8972TIP3    H248332   3.788   1.065  12.250 -0.3478  1.3917 -1.4662
 8973TIP3   OH248333   5.405   1.188  15.200  0.2382 -0.3534  0.0779
 8973TIP3    H148334   5.442   1.264  15.245 -0.3165  0.6380 -1.0862
 8973TIP3    H248335   5.310   1.195  15.215  0.3313 -2.7578  2.8701
 8974TIP3   OH248336   4.769   5.382   3.719  0.0047 -0.2117 -0.6820
 8974TIP3    H148337   4.783   5.367   3.813  1.2132 -2.4778 -1.1585
 8974TIP3    H248338   4.810   5.466   3.702  0.8819 -0.3452  0.6018
 8975TIP3   OH248339   6.711   0.914  17.107  0.4946 -0.2801  0.0162
 8975TIP3    H148340   6.718   0.837  17.051 -0.2876 -0.2049 -0.1904
 8975TIP3    H248341   6.769   0.895  17.181  0.9847 -0.6831 -0.4597
 8976TIP3   OH248342   6.152   1.870   3.185  0.3377  0.2739  0.1957
 8976TIP3    H148343   6.172   1.786   3.142 -3.1842 -0.6854  0.0762
 8976TIP3    H248344   6.083   1.849   3.248  0.6515  2.8201  1.5274
 8977TIP3   OH248345   2.111   0.175  15.811 -0.4351  0.5102 -0.1163
 8977TIP3    H148346   2.183   0.204  15.867 -1.4615 -0.6389  1.8752
 8977TIP3    H248347   2.138   0.202  15.723  0.8094  3.2345  0.9751
 8978TIP3   OH248348   4.339   6.353   0.213  0.1625 -1.1236 -0.4250
 8978TIP3    H148349   4.325   6.416   0.284  1.9864  0.2812 -1.2124
 8978TIP3    H248350   4.252   6.324   0.189 -0.7447  0.9440  0.1352
 8979TIP3   OH248351   5.351   3.072   6.734  0.0916  0.3747  0.4970
 8979TIP3    H148352   5.378   3.042   6.821  1.6277 -0.5566 -0.2483
 8979TIP3    H248353   5.281   3.012   6.709  0.3942 -0.0461  0.6507
 8980TIP3   OH248354   4.097   1.868   3.221 -0.2413  0.3791 -0.5982
 8980TIP3    H148355   4.130   1.832   3.303 -1.0043 -1.8307 -1.1776
 8980TIP3    H248356   4.077   1.960   3.241 -2.1884 -0.5265  2.2770
 8981TIP3   OH248357   3.697   4.692  15.284  0.1598 -0.5732  0.4190
 8981TIP3    H148358   3.778   4.646  15.308 -1.1056 -1.8550  2.5617
 8981TIP3    H248359   3.627   4.633  15.312 -1.5875  2.4910  3.1049
 8982TIP3   OH248360   5.191   2.806  13.034 -0.3452  0.2668  0.0970
 8982TIP3    H148361   5.172   2.718  13.001 -2.2500 -0.1338  2.0168
 8982TIP3    H248362   5.286   2.812  13.035 -0.1483 -2.1266  0.7526
 8983TIP3   OH248363   0.460   6.344   5.465  0.4331 -0.5371  0.1641
 8983TIP3    H148364   0.486   6.385   5.547 -1.5261 -0.5226  0.8265
 8983TIP3    H248365   0.534   6.288   5.442  1.5690  0.4637  1.2225
 8984TIP3   OH248366   4.935   4.510   1.420 -0.4230 -0.2604 -0.6820
 8984TIP3    H148367   4.843   4.537   1.423 -1.0089 -1.9263 -2.2148
 8984TIP3    H248368   4.932   4.414   1.417  1.3447 -0.3364 -1.0545
 8985TIP3   OH248369   2.010   6.080  12.077 -0.0291 -0.2897  0.6870
 8985TIP3    H148370   1.937   6.132  12.043  0.6073 -0.3859 -0.9235
 8985TIP3    H248371   1.969   6.003  12.116 -0.9639  1.1947  2.7853
 8986TIP3   OH248372   5.669   0.516  10.460 -0.5901 -0.0695  0.2070
 8986TIP3    H148373   5.744   0.533  10.516 -1.0212  0.0001  0.7776
 8986TIP3    H248374   5.602   0.480  10.519 -1.4427  1.0602 -0.0223
 8987TIP3   OH248375   4.575   0.828   1.318 -0.1471 -0.4586 -0.0035
 8987TIP3    H148376   4.632   0.753   1.305 -0.0628 -0.7978  2.0633
 8987TIP3    H248377   4.577   0.845   1.412 -3.3890 -0.4262  0.1844
 8988TIP3   OH248378   6.550   6.308   6.507  0.6590  0.7523 -0.1756
 8988TIP3    H148379   6.625   6.250   6.518  0.3572 -0.3205 -2.9823
 8988TIP3    H248380   6.474   6.251   6.515  0.1993  1.4499  0.5815
 8989TIP3   OH248381   3.020   6.443  14.239 -0.3129  0.6887 -0.2353
 8989TIP3    H148382   2.933   6.428  14.277  0.4081  0.5870  1.4680
 8989TIP3    H248383   3.072   6.476  14.312  1.2789  0.0696 -1.0509
 8990TIP3   OH248384   4.430   1.272  12.690 -0.5466 -0.1002  0.6853
 8990TIP3    H148385   4.479   1.353  12.701 -0.4449 -0.0535 -0.0853
 8990TIP3    H248386   4.338   1.299  12.686 -0.4788  0.0366 -0.0967
 8991TIP3   OH248387   1.158   4.131   2.054 -0.0562 -0.0221 -1.0078
 8991TIP3    H148388   1.228   4.071   2.029 -0.7097 -1.8583  1.2225
 8991TIP3    H248389   1.086   4.074   2.080 -0.5333  1.6646  1.7450
 8992TIP3   OH248390   4.616   5.281  11.729 -0.2781 -0.5137 -0.0025
 8992TIP3    H148391   4.576   5.194  11.732 -0.6662 -0.3925 -1.3484
 8992TIP3    H248392   4.688   5.272  11.667  1.1369 -0.4346  1.5350
 8993TIP3   OH248393   0.888   3.239   2.120 -0.1987  0.2059 -0.0457
 8993TIP3    H148394   0.818   3.197   2.170 -1.1022  1.3168 -0.3413
 8993TIP3    H248395   0.856   3.327   2.101  1.1338  0.6305 -0.5076
 8994TIP3   OH248396   4.769   3.878  13.547 -0.0389  0.0938 -0.6253
 8994TIP3    H148397   4.694   3.820  13.536 -0.0508 -0.3153  1.2320
 8994TIP3    H248398   4.846   3.821  13.537  0.0890  0.5682 -2.8315
 8995TIP3   OH248399   4.570   5.555  12.536 -0.4927  0.3519  0.6691
 8995TIP3    H148400   4.630   5.504  12.591 -0.3668  0.0806  0.2816
 8995TIP3    H248401   4.485   5.513  12.549 -0.2188 -0.5929 -0.4078
 8996TIP3   OH248402   5.996   2.871  13.773  0.1217 -0.4593  0.1440
 8996TIP3    H148403   6.035   2.915  13.697 -0.5676  0.3620  0.2544
 8996TIP3    H248404   5.916   2.920  13.791 -0.4016 -1.4597  0.5946
 8997TIP3   OH248405   1.490   3.350   4.012 -0.4447  0.1557 -0.3045
 8997TIP3    H148406   1.569   3.333   3.961 -0.9232  0.2498 -1.0954
 8997TIP3    H248407   1.488   3.445   4.022 -0.7737  0.2062 -0.8141
 8998TIP3   OH248408   4.000   0.327  14.277  0.2747 -0.1367  0.3911
 8998TIP3    H148409   3.915   0.346  14.236 -0.1360 -1.0259  0.7977
 8998TIP3    H248410   4.064   0.363  14.216 -0.3420 -0.8875 -0.7346
 8999TIP3   OH248411   5.980   1.237  14.655  0.3863  0.5095 -0.1312
 8999TIP3    H148412   6.025   1.272  14.578  2.4087 -1.8817 -0.1896
 8999TIP3    H248413   6.048   1.235  14.723 -0.3832 -0.6522  0.6375
 9000TIP3   OH248414   5.473   2.952  16.784  0.6481 -0.4481  0.4434
 9000TIP3    H148415   5.516   2.930  16.867  0.3663  0.5268  0.8749
 9000TIP3    H248416   5.386   2.912  16.791  0.1031  0.7904  1.2596
 9001TIP3   OH248417   1.105   6.346  11.608 -0.5445 -0.2829 -0.2928
 9001TIP3    H148418   1.129   6.425  11.656  0.6087 -1.2888  0.8610
 9001TIP3    H248419   1.134   6.363  11.518 -0.2618  0.5826 -0.0438
 9002TIP3   OH248420   2.599   3.172  11.941 -0.0131 -0.0625  0.3470
 9002TIP3    H148421   2.590   3.264  11.915  2.0081 -0.1831 -0.9786
 9002TIP3    H248422   2.575   3.122  11.864  4.1922 -0.4541 -0.9773
 9003TIP3   OH248423   3.318   1.923  11.791  0.1828  0.3366  0.3845
 9003TIP3    H148424   3.403   1.918  11.749  0.0213  0.5436  0.0276
 9003TIP3    H248425   3.336   1.913  11.885  0.7499  1.8689  0.4568
 9004TIP3   OH248426   3.135   0.312  14.408 -0.4165 -0.4634 -0.2598
 9004TIP3    H148427   3.040   0.303  14.416 -0.3536 -0.3879  0.6986
 9004TIP3    H248428   3.156   0.393  14.455  0.0572 -0.1217 -1.0264
 9005TIP3   OH248429   5.337   1.578  14.512  0.8229  0.4513  0.2052
 9005TIP3    H148430   5.284   1.658  14.506  0.4853  0.2836  0.8615
 9005TIP3    H248431   5.300   1.530  14.586  1.2772 -0.1297  0.0635
 9006TIP3   OH248432   2.546   5.111  11.575 -0.1241  0.2083 -0.2473
 9006TIP3    H148433   2.620   5.064  11.614 -1.6343 -1.3098  0.9486
 9006TIP3    H248434   2.537   5.073  11.488  0.2643  0.1036 -0.2446
 9007TIP3   OH248435   4.842   0.780   0.441  0.2488 -0.1938 -0.4497
 9007TIP3    H148436   4.891   0.787   0.360  2.9663  0.6424  1.1555
 9007TIP3    H248437   4.853   0.689   0.468 -0.9667 -0.5717 -1.1309
 9008TIP3   OH248438   0.018   0.546   1.640  0.0551  0.0865 -0.3043
 9008TIP3    H148439  -0.070   0.550   1.679  0.8764  1.0849  1.6147
 9008TIP3    H248440   0.053   0.461   1.668 -0.1279 -0.1139 -0.6807
 9009TIP3   OH248441   1.366   4.694  15.685  0.6257 -0.0417 -0.8492
 9009TIP3    H148442   1.458   4.668  15.681  0.4192 -1.2744  1.0111
 9009TIP3    H248443   1.318   4.611  15.686 -0.2920  0.4467  1.5115
 9010TIP3   OH248444   0.277   3.866   0.226 -0.6048  0.6879  0.6894
 9010TIP3    H148445   0.342   3.796   0.220 -0.0308  1.1257  1.6628
 9010TIP3    H248446   0.285   3.913   0.143  1.4538  1.7053  1.4007
 9011TIP3   OH248447   0.300   5.286   4.079  0.2583 -0.0908  0.2650
 9011TIP3    H148448   0.362   5.353   4.107 -0.1733  0.6044 -0.3905
 9011TIP3    H248449   0.254   5.260   4.158  0.9766 -0.1988  0.6578
 9012TIP3   OH248450   3.754   2.693   5.896 -0.4179 -0.1944 -0.0642
 9012TIP3    H148451   3.793   2.780   5.889  0.9489 -0.8342 -1.1457
 9012TIP3    H248452   3.660   2.709   5.901 -0.1309  1.3749  0.9922
 9013TIP3   OH248453   2.135   2.562  15.743 -0.5504  0.1415  0.2284
 9013TIP3    H148454   2.222   2.544  15.778 -0.4624  1.1444  0.5770
 9013TIP3    H248455   2.103   2.478  15.711  0.2487 -0.3776  0.7665
 9014TIP3   OH248456   1.159   2.671  11.201  0.4338  0.4324 -0.2379
 9014TIP3    H148457   1.087   2.641  11.146  0.6380  1.0595 -0.8592
 9014TIP3    H248458   1.117   2.706  11.279  0.1165 -0.0134 -0.2019
 9015TIP3   OH248459   5.723   5.724  13.343 -0.3332  0.3123  0.5646
 9015TIP3    H148460   5.774   5.670  13.403  2.1867  2.3258  0.4382
 9015TIP3    H248461   5.734   5.682  13.258 -0.5080 -0.3290  0.8508
 9016TIP3   OH248462   4.930   1.287  14.997  0.4196  0.1504 -0.1885
 9016TIP3    H148463   5.014   1.294  15.042  0.9010 -2.4669 -0.5306
 9016TIP3    H248464   4.866   1.314  15.063  1.4925  2.5439 -0.0440
 9017TIP3   OH248465   3.097   5.524   4.510  0.3222 -0.1339 -0.2804
 9017TIP3    H148466   3.147   5.493   4.586  1.3879 -1.3247 -1.4047
 9017TIP3    H248467   3.019   5.565   4.547  0.4260 -1.3743  1.4302
 9018TIP3   OH248468   0.387   6.006   1.154  0.0948 -0.2560  0.1276
 9018TIP3    H148469   0.467   6.011   1.101 -0.0608  1.4821 -0.0152
 9018TIP3    H248470   0.319   6.043   1.097 -0.7502 -1.3754  0.3832
 9019TIP3   OH248471   2.321   0.854   3.157 -0.0564  0.4709  0.0632
 9019TIP3    H148472   2.378   0.829   3.084  0.8714  0.2534  0.8538
 9019TIP3    H248473   2.379   0.893   3.222 -0.5733 -1.0090  1.4800
 9020TIP3   OH248474   3.534   4.641   5.011  0.5744 -0.1552  0.4575
 9020TIP3    H148475   3.521   4.582   4.937 -0.2544  0.3843  0.1599
 9020TIP3    H248476   3.609   4.604   5.058  1.6397 -0.0742 -1.0836
 9021TIP3   OH248477   0.220   3.269   3.114 -0.0304 -0.2670 -0.1689
 9021TIP3    H148478   0.214   3.320   3.033  1.1012 -0.7517 -0.5745
 9021TIP3    H248479   0.204   3.179   3.086  1.0298 -0.5231  0.0224
 9022TIP3   OH248480   3.227   6.434  15.144  0.2677 -0.1195 -0.7352
 9022TIP3    H148481   3.176   6.489  15.204  1.0698  0.6812 -0.7866
 9022TIP3    H248482   3.316   6.438  15.177  0.1048 -2.8386  0.3430
 9023TIP3   OH248483   3.761   0.683  15.954 -0.1313 -0.0807  0.0491
 9023TIP3    H148484   3.845   0.715  15.921  0.4643  1.9113  3.1679
 9023TIP3    H248485   3.757   0.711  16.045 -3.8635 -0.8145  0.2975
 9024TIP3   OH248486   5.948   4.213   0.050 -0.5251 -0.0674 -1.0169
 9024TIP3    H148487   5.982   4.300   0.071  1.1678  0.0048 -3.6650
 9024TIP3    H248488   5.853   4.223   0.051 -0.4476  1.1467  1.0693
 9025TIP3   OH248489   0.012   3.689   4.216  0.5333 -0.2912 -0.0675
 9025TIP3    H148490   0.003   3.661   4.125 -0.6774 -0.4905  0.0966
 9025TIP3    H248491  -0.033   3.622   4.267  1.3137 -0.2545  0.7013
 9026TIP3   OH248492   4.364   0.244   0.077 -0.6913  0.2739  0.2684
 9026TIP3    H148493   4.349   0.326   0.123  1.6487  0.2414  1.2477
 9026TIP3    H248494   4.331   0.260  -0.012  0.5981  2.6877  0.1269
 9027TIP3   OH248495   6.376   5.915   1.390  0.1371  0.2299  0.2081
 9027TIP3    H148496   6.381   5.976   1.317  1.4521  2.2106  1.8629
 9027TIP3    H248497   6.305   5.948   1.445  1.7792  1.1962  1.8385
 9028TIP3   OH248498   3.817   0.739   3.293  1.0742  0.0257  0.5898
 9028TIP3    H148499   3.883   0.671   3.283 -0.1122 -1.0649 -0.2337
 9028TIP3    H248500   3.785   0.729   3.383  0.1228 -1.3077  0.1392
 9029TIP3   OH248501   6.359   4.414   2.331 -0.5166 -0.0116  0.1944
 9029TIP3    H148502   6.417   4.437   2.258 -0.9194  1.3006  0.2511
 9029TIP3    H248503   6.381   4.478   2.400 -0.2050 -1.1694  1.2003
 9030TIP3   OH248504   1.868   1.382  14.401 -0.5040  0.1080 -0.0916
 9030TIP3    H148505   1.792   1.364  14.456 -1.5859  0.1212 -1.5006
 9030TIP3    H248506   1.934   1.319  14.429 -1.4381 -0.6668  0.4303
 9031TIP3   OH248507   3.409   2.912   2.155 -0.0624 -0.1535 -0.1183
 9031TIP3    H148508   3.316   2.901   2.171 -0.1752  0.1222 -0.5741
 9031TIP3    H248509   3.451   2.843   2.206 -0.5185 -0.3203  0.0295
 9032TIP3   OH248510   0.755   2.864  14.689  0.0262  0.8554  0.1372
 9032TIP3    H148511   0.850   2.860  14.702  0.0154 -1.9553 -0.0805
 9032TIP3    H248512   0.745   2.894  14.598  0.7028  1.0657  0.1276
 9033TIP3   OH248513   3.820   3.072  11.247 -0.1645  0.2660 -0.6800
 9033TIP3    H148514   3.814   3.002  11.313  2.5934  1.0008  0.4491
 9033TIP3    H248515   3.887   3.042  11.186  0.4331  1.5444 -0.6742
 9034TIP3   OH248516   3.405   4.271   1.678  0.5300 -0.2916  0.1925
 9034TIP3    H148517   3.334   4.223   1.637  1.0987  0.1757 -1.3995
 9034TIP3    H248518   3.460   4.204   1.719 -0.9743 -0.6344  1.7922
 9035TIP3   OH248519   4.957   0.852  10.982  0.4435  0.2793 -0.4804
 9035TIP3    H148520   5.028   0.847  10.917  0.1145  0.4223 -0.8547
 9035TIP3    H248521   4.894   0.912  10.944  0.8180  1.3587  0.5503
 9036TIP3   OH248522   0.580   3.459  17.088 -0.1800 -0.4680  0.2653
 9036TIP3    H148523   0.502   3.508  17.112 -0.9230 -1.1620 -0.6551
 9036TIP3    H248524   0.649   3.526  17.081 -1.0829  0.4186 -0.5915
 9037TIP3   OH248525   0.193   5.638   5.521 -0.0317 -0.1452 -0.4354
 9037TIP3    H148526   0.273   5.689   5.526 -1.2408  2.3138 -3.2635
 9037TIP3    H248527   0.202   5.587   5.440 -0.0934 -2.2813  0.8355
 9038TIP3   OH248528   1.536   2.341  13.170  0.0741 -0.3639  0.4238
 9038TIP3    H148529   1.490   2.419  13.139  0.2171  0.1246  1.3837
 9038TIP3    H248530   1.577   2.369  13.252 -0.0173 -1.4945  0.8758
 9039TIP3   OH248531   1.202   0.748  14.677  0.1456  0.3129  0.5082
 9039TIP3    H148532   1.195   0.666  14.628  0.0120 -0.3527  1.5983
 9039TIP3    H248533   1.286   0.743  14.722 -0.9432 -0.4602  2.6310
 9040TIP3   OH248534   5.281   0.647  13.461 -0.0637  0.0237 -0.2414
 9040TIP3    H148535   5.239   0.566  13.430  0.6906 -0.0159 -1.2043
 9040TIP3    H248536   5.355   0.660  13.402  0.3686  0.9305  0.4743
 9041TIP3   OH248537   2.310   1.068  13.436  0.6680 -0.4354  0.7412
 9041TIP3    H148538   2.347   1.123  13.367 -1.9892 -0.0717 -0.4995
 9041TIP3    H248539   2.283   1.129  13.504 -0.0310 -0.4296  0.4642
 9042TIP3   OH248540   0.256   5.655  11.915 -0.1102 -0.5939 -0.0112
 9042TIP3    H148541   0.267   5.625  12.005  1.5069 -0.5174 -0.1596
 9042TIP3    H248542   0.162   5.642  11.897 -0.3784 -0.9962  1.5248
 9043TIP3   OH248543   5.226   4.914   3.210  0.0371 -0.5022 -0.4622
 9043TIP3    H148544   5.255   4.997   3.171  0.0237 -0.0957  0.3587
 9043TIP3    H248545   5.270   4.847   3.158  2.1278  0.0805  0.4117
 9044TIP3   OH248546   6.605   3.964   0.558 -0.3706  0.0074 -0.1469
 9044TIP3    H148547   6.629   3.921   0.640  1.0094  0.5225 -0.2653
 9044TIP3    H248548   6.522   4.008   0.577 -0.9500 -1.2954  0.4620
 9045TIP3   OH248549   1.756   0.136   0.702 -0.4978  0.4459  0.0149
 9045TIP3    H148550   1.831   0.193   0.723  1.4051 -1.9906  0.3276
 9045TIP3    H248551   1.712   0.124   0.786  1.3546 -1.4658  0.8132
 9046TIP3   OH248552   2.032   2.385  11.455  0.2551  0.1843  0.3071
 9046TIP3    H148553   1.993   2.379  11.368 -1.2263 -0.6800  1.0018
 9046TIP3    H248554   2.119   2.422  11.439 -0.5049  1.3803 -1.3818
 9047TIP3   OH248555   2.087   1.389  12.699 -0.0831  0.1031  0.3147
 9047TIP3    H148556   2.103   1.298  12.727  0.2652  0.4876  1.4024
 9047TIP3    H248557   2.025   1.423  12.764 -1.5891  0.1267 -1.0808
 9048TIP3   OH248558   4.249   5.172  14.490 -0.0613 -0.1378  0.0681
 9048TIP3    H148559   4.309   5.103  14.461 -0.4269 -0.6218  0.4418
 9048TIP3    H248560   4.163   5.131  14.487 -0.2153  0.1138  0.8899
 9049TIP3   OH248561   6.069   5.289  17.245  0.6367 -0.1059 -0.1090
 9049TIP3    H148562   6.113   5.265  17.326  0.1582  1.3894  0.6208
 9049TIP3    H248563   6.070   5.385  17.244 -3.6687  0.1353  0.6194
 9050TIP3   OH248564   1.417   2.094  11.405  0.8174 -0.8131 -0.1826
 9050TIP3    H148565   1.362   2.171  11.389  0.4491 -1.4113 -2.0131
 9050TIP3    H248566   1.479   2.123  11.472 -0.3866  0.5312  0.4084
 9051TIP3   OH248567   5.837   1.525   6.000  0.0048 -0.1186  0.3465
 9051TIP3    H148568   5.858   1.432   5.992  1.3985  0.2163 -0.2070
 9051TIP3    H248569   5.793   1.532   6.085 -1.6174 -1.5042 -0.3188
 9052TIP3   OH248570   6.537   2.198  10.598  0.6328  0.1639  0.1501
 9052TIP3    H148571   6.544   2.135  10.526  0.2825 -1.2265  1.2905
 9052TIP3    H248572   6.454   2.242  10.583  0.1064 -0.7792  0.1926
 9053TIP3   OH248573   0.638   2.578  16.929 -0.1764 -0.4365 -0.0001
 9053TIP3    H148574   0.715   2.628  16.901  0.8448 -1.7162  0.4049
 9053TIP3    H248575   0.603   2.541  16.848  1.2337 -2.0053  0.0498
 9054TIP3   OH248576   5.504   2.905  13.337  0.6592 -0.5078  0.1936
 9054TIP3    H148577   5.503   2.983  13.281  0.1557 -1.7329 -1.5840
 9054TIP3    H248578   5.422   2.860  13.316  0.1251 -0.6774  2.4657
 9055TIP3   OH248579   6.141   1.300   0.203 -0.3106 -0.1534 -0.3216
 9055TIP3    H148580   6.054   1.263   0.219  0.5404 -1.9741  0.4606
 9055TIP3    H248581   6.144   1.379   0.257 -0.6424 -1.3950  1.6238
 9056TIP3   OH248582   6.695   0.557   4.764 -0.3594  0.4692 -0.2344
 9056TIP3    H148583   6.684   0.474   4.716 -1.3063 -0.5366  1.6127
 9056TIP3    H248584   6.620   0.560   4.824  0.1674  2.2242  0.3848
 9057TIP3   OH248585   5.530   1.063  15.432  0.3956  0.0707 -0.3268
 9057TIP3    H148586   5.575   0.979  15.433 -0.5168 -0.4292  0.8218
 9057TIP3    H248587   5.506   1.077  15.340  2.2706  0.0432 -0.8512
 9058TIP3   OH248588   5.829   3.255  12.983  0.0297  0.1309 -0.4021
 9058TIP3    H148589   5.734   3.262  12.976 -0.2209 -2.4599 -0.5879
 9058TIP3    H248590   5.844   3.180  13.040  2.0044  1.1606  0.5482
 9059TIP3   OH248591   2.014   6.668  15.777 -0.0225 -0.3647 -0.0404
 9059TIP3    H148592   2.029   6.761  15.793 -0.2884 -0.3386  0.0687
 9059TIP3    H248593   1.979   6.634  15.860  0.8710 -0.7472  0.1956
 9060TIP3   OH248594   5.836   4.796   4.797 -0.9856 -0.3125  0.1740
 9060TIP3    H148595   5.770   4.838   4.742  1.0179  2.2766 -0.4395
 9060TIP3    H248596   5.890   4.746   4.735  1.0939  2.3704 -0.3752
 9061TIP3   OH248597   3.280   0.271   1.142 -0.4140  0.6441  0.6426
 9061TIP3    H148598   3.213   0.339   1.136  1.8124  3.0054  0.8027
 9061TIP3    H248599   3.258   0.223   1.221 -1.9229  1.3358  0.6815
 9062TIP3   OH248600   4.650   0.572   1.269 -0.2411  0.3021 -0.0235
 9062TIP3    H148601   4.741   0.600   1.276 -0.4956  0.9717  0.6296
 9062TIP3    H248602   4.635   0.520   1.348 -0.1424 -0.6656 -0.6184
 9063TIP3   OH248603   4.573   0.549   1.741 -0.3894  0.5788  0.2491
 9063TIP3    H148604   4.603   0.544   1.832  0.2907  0.0809  0.0131
 9063TIP3    H248605   4.481   0.574   1.747 -0.6385 -0.4411  1.1211
 9064TIP3   OH248606   0.507   3.775   2.788  0.2510 -0.1102 -0.2453
 9064TIP3    H148607   0.505   3.870   2.776  0.6177  0.3004  2.4021
 9064TIP3    H248608   0.415   3.749   2.791  0.0238  0.7161  2.2046
 9065TIP3   OH248609   2.918   2.344   2.160  0.3246  0.4038  0.1576
 9065TIP3    H148610   2.907   2.432   2.125  0.2407  0.4138  0.2074
 9065TIP3    H248611   2.989   2.306   2.108  2.5936  1.5970  2.1653
 9066TIP3   OH248612   5.064   2.894  13.732  0.4400 -0.0338 -0.2797
 9066TIP3    H148613   5.102   2.936  13.809 -0.6293  1.8181 -0.7074
 9066TIP3    H248614   5.127   2.911  13.662 -0.9003  2.8831 -0.9483
 9067TIP3   OH248615   3.879   1.559  13.072 -0.4820  0.3288 -0.4064
 9067TIP3    H148616   3.794   1.574  13.114 -0.4799 -1.4860  0.3577
 9067TIP3    H248617   3.940   1.551  13.146  0.2311  0.8475 -0.9258
 9068TIP3   OH248618   2.527   1.275  14.124  0.5592 -0.0924  0.3441
 9068TIP3    H148619   2.515   1.336  14.052  1.6494  0.1017  0.3167
 9068TIP3    H248620   2.579   1.323  14.188 -0.5457 -0.1981  1.3553
 9069TIP3   OH248621   4.952   1.434   2.643 -0.2489 -0.1120 -0.2531
 9069TIP3    H148622   4.944   1.451   2.549  0.2881  0.2051 -0.2477
 9069TIP3    H248623   4.997   1.349   2.648 -2.0906 -1.1359 -0.2768
 9070TIP3   OH248624   2.830   2.171  15.874  0.5558 -0.4289 -0.5809
 9070TIP3    H148625   2.771   2.246  15.871  0.8558 -0.0954  0.9842
 9070TIP3    H248626   2.823   2.132  15.787 -0.8765  0.4241 -0.8860
 9071TIP3   OH248627   3.576   5.487   4.988  0.4480  0.0138 -0.0024
 9071TIP3    H148628   3.574   5.565   5.042  1.4426 -0.0791  0.1934
 9071TIP3    H248629   3.485   5.460   4.979  0.2157  0.4500  1.0143
 9072TIP3   OH248630   2.437   0.322   0.068 -0.8900  0.4749  0.0907
 9072TIP3    H148631   2.412   0.303  -0.022  0.8072  0.8045 -0.4930
 9072TIP3    H248632   2.414   0.415   0.080  0.1977  0.8299 -0.4993
 9073TIP3   OH248633   1.609   5.043   0.267  0.3239  0.0478  0.2273
 9073TIP3    H148634   1.625   4.950   0.247 -0.1725  0.1966 -0.9901
 9073TIP3    H248635   1.693   5.076   0.299  1.1297 -0.3190 -1.4068
 9074TIP3   OH248636   4.826   0.433   3.355  0.4593  0.4255 -0.1487
 9074TIP3    H148637   4.747   0.406   3.309  0.5023  0.9405 -0.5326
 9074TIP3    H248638   4.840   0.365   3.421  0.2551 -0.1902 -0.7305
 9075TIP3   OH248639   1.055   0.834   3.186 -0.2514 -0.0103  0.1788
 9075TIP3    H148640   1.130   0.887   3.159 -0.4600  0.2332  0.0630
 9075TIP3    H248641   0.990   0.899   3.214 -0.9699 -0.1227 -1.1251
 9076TIP3   OH248642   0.470   1.720  12.559 -0.1524 -0.6577 -0.1104
 9076TIP3    H148643   0.418   1.650  12.598  1.4428 -0.6254  2.2351
 9076TIP3    H248644   0.453   1.796  12.614  1.0788 -0.2200 -0.3034
 9077TIP3   OH248645   0.462   4.030  16.435 -0.1584 -0.0535 -0.6745
 9077TIP3    H148646   0.381   4.037  16.385  0.0980 -0.3968 -1.1475
 9077TIP3    H248647   0.531   4.033  16.368  0.2173  0.2274 -0.2751
 9078TIP3   OH248648   4.441   1.763   3.963 -0.2649  0.3476 -0.6396
 9078TIP3    H148649   4.477   1.721   4.041 -0.0737  0.1433 -0.8349
 9078TIP3    H248650   4.511   1.820   3.932  0.0100 -0.2681 -1.1841
 9079TIP3   OH248651   5.519   6.027   2.124 -0.4286  0.0794  0.5240
 9079TIP3    H148652   5.577   6.056   2.053  2.2696 -1.4696  1.9045
 9079TIP3    H248653   5.507   6.105   2.178 -0.3719  0.6481 -0.2669
 9080TIP3   OH248654   5.330   4.925  10.855  0.2438  0.2315  0.6138
 9080TIP3    H148655   5.360   4.858  10.917 -0.9995 -0.2137  0.7675
 9080TIP3    H248656   5.289   4.992  10.909  0.0286  0.3148  0.3520
 9081TIP3   OH248657   2.715   3.097   1.085  0.4967 -0.2574 -0.1906
 9081TIP3    H148658   2.724   3.173   1.143  0.6744 -0.2139 -0.2747
 9081TIP3    H248659   2.713   3.022   1.144 -2.2823 -0.0518  0.1089
 9082TIP3   OH248660   3.678   1.237   2.025  0.0733 -0.4006 -0.1507
 9082TIP3    H148661   3.728   1.163   2.058  0.1977  0.0252  0.6389
 9082TIP3    H248662   3.736   1.312   2.034 -0.3332 -0.0729 -0.1975
 9083TIP3   OH248663   3.227   5.246  12.370 -0.7108  0.0995  0.5588
 9083TIP3    H148664   3.209   5.161  12.330  0.0039 -0.5056  1.4684
 9083TIP3    H248665   3.270   5.225  12.453 -0.4062  1.3580  0.7480
 9084TIP3   OH248666   1.677   0.693  15.980  0.3275 -0.0333  0.2407
 9084TIP3    H148667   1.635   0.609  16.001 -2.2597  1.6208  2.2464
 9084TIP3    H248668   1.729   0.714  16.057  0.9286  0.2839 -0.2382
 9085TIP3   OH248669   6.649   3.666  15.749 -0.3129  0.0227  0.1215
 9085TIP3    H148670   6.679   3.711  15.670  1.5983 -0.5911  0.4556
 9085TIP3    H248671   6.665   3.728  15.820 -1.5264  0.3640  0.1208
 9086TIP3   OH248672   0.701   5.205  15.516  0.0625 -0.1471  0.0355
 9086TIP3    H148673   0.746   5.278  15.560  0.1826  1.1919 -2.1747
 9086TIP3    H248674   0.616   5.242  15.490 -0.7953 -1.4999  0.7823
 9087TIP3   OH248675   1.258   3.690  15.276  0.3395  0.3488  0.1228
 9087TIP3    H148676   1.199   3.734  15.336 -1.2708  0.2883 -1.3577
 9087TIP3    H248677   1.231   3.598  15.278  1.5318 -0.0221  0.6988
 9088TIP3   OH248678   6.048   6.395  10.877  0.0634  0.2462 -0.1092
 9088TIP3    H148679   5.977   6.393  10.812 -0.3629  0.5672  0.3359
 9088TIP3    H248680   6.125   6.421  10.827 -0.0613 -0.3803 -0.6602
 9089TIP3   OH248681   1.247   3.572  17.224 -0.3831  0.5233 -0.4528
 9089TIP3    H148682   1.161   3.584  17.184 -0.2856  0.0861 -0.7929
 9089TIP3    H248683   1.309   3.570  17.151 -0.0078  1.4474 -0.1737
 9090TIP3   OH248684   4.313   1.791  16.015  0.5960  0.5891  0.0988
 9090TIP3    H148685   4.358   1.831  15.941  1.0694 -0.7498 -0.3677
 9090TIP3    H248686   4.356   1.828  16.092 -0.3246  2.4806 -0.2322
 9091TIP3   OH248687   1.567   2.323   2.766  0.2728  0.4893  0.5970
 9091TIP3    H148688   1.631   2.262   2.804 -0.3839 -0.2886  0.4848
 9091TIP3    H248689   1.544   2.284   2.682 -0.7467  0.4711  0.8716
 9092TIP3   OH248690   2.846   0.263  12.873 -0.1990 -0.6433  0.0991
 9092TIP3    H148691   2.766   0.212  12.866  0.2098 -1.1560 -0.9787
 9092TIP3    H248692   2.867   0.288  12.783  1.0638 -0.8414  0.3233
 9093TIP3   OH248693   3.999   4.166  17.049  0.3495 -0.3998  0.0951
 9093TIP3    H148694   3.931   4.105  17.080  0.3575 -1.1990 -1.3442
 9093TIP3    H248695   3.989   4.165  16.953 -0.1727  2.4946  0.0295
 9094TIP3   OH248696   2.609   6.093  14.714  0.6480  0.2834  0.4781
 9094TIP3    H148697   2.636   6.184  14.703 -0.3657  0.6794  1.0926
 9094TIP3    H248698   2.522   6.098  14.754 -0.3584 -0.9157 -1.4032
 9095TIP3   OH248699   4.686   4.708   2.366  0.4716 -0.1244  0.5207
 9095TIP3    H148700   4.651   4.641   2.306  0.9942  1.2991 -1.4738
 9095TIP3    H248701   4.642   4.691   2.449 -1.9682 -0.8523 -0.8280
 9096TIP3   OH248702   0.954   6.619  14.506 -0.2292  0.4524  0.0015
 9096TIP3    H148703   0.990   6.536  14.477 -2.3950 -0.8029  0.6567
 9096TIP3    H248704   0.912   6.656  14.428 -0.1454  0.4352 -0.0520
 9097TIP3   OH248705   2.065   4.978  11.473 -0.8436  0.0107 -0.0948
 9097TIP3    H148706   2.091   4.996  11.563  4.4419 -0.9296 -1.0428
 9097TIP3    H248707   2.008   4.901  11.479  0.4879 -0.9095  2.4605
 9098TIP3   OH248708   0.187   6.617   5.512  0.3375  0.0396  0.6685
 9098TIP3    H148709   0.239   6.680   5.462 -1.5546  0.2657 -1.1390
 9098TIP3    H248710   0.121   6.586   5.450 -0.7427 -1.3705  2.4377
 9099TIP3   OH248711   5.728   6.028  16.075 -0.0895 -0.3158 -0.3026
 9099TIP3    H148712   5.689   5.957  16.127  0.3266  0.1547  0.6725
 9099TIP3    H248713   5.731   6.102  16.135  2.3030 -0.3222 -0.3239
 9100TIP3   OH248714   5.637   1.298   0.842  0.1549 -0.2454  0.0265
 9100TIP3    H148715   5.577   1.295   0.768  0.0963  1.4470 -0.0363
 9100TIP3    H248716   5.584   1.276   0.918 -0.2851  0.1048 -0.1775
 9101TIP3   OH248717   6.130   3.786   6.836 -0.2395 -0.4456  0.1091
 9101TIP3    H148718   6.192   3.851   6.802 -1.5239  0.8218  0.0723
 9101TIP3    H248719   6.065   3.838   6.883 -2.1781 -1.5416 -1.2526
 9102TIP3   OH248720   1.300   1.442   4.258  0.0202 -0.2460  0.0285
 9102TIP3    H148721   1.333   1.471   4.343  1.4692 -0.7643 -0.3258
 9102TIP3    H248722   1.375   1.450   4.199 -0.1241 -2.5684 -0.5669
 9103TIP3   OH248723   4.747   0.007  11.484 -0.2204 -0.4059 -0.2262
 9103TIP3    H148724   4.687  -0.028  11.418 -0.2843 -2.4291  0.8342
 9103TIP3    H248725   4.813   0.055  11.433 -1.8034  0.5026 -1.5260
 9104TIP3   OH248726   6.607   6.211   4.767  0.0884 -0.0285  0.1068
 9104TIP3    H148727   6.576   6.130   4.728  0.7093  0.4198 -1.4424
 9104TIP3    H248728   6.692   6.188   4.806 -0.2489 -0.3559  0.6492
 9105TIP3   OH248729   6.145   1.341  15.513 -0.2440  0.2134 -0.0488
 9105TIP3    H148730   6.171   1.432  15.524 -0.4167  0.2490  0.0751
 9105TIP3    H248731   6.091   1.340  15.434 -0.9824  0.3783  0.4427
 9106TIP3   OH248732   1.821   5.940   6.330  0.0700 -0.2311  0.4135
 9106TIP3    H148733   1.849   6.024   6.367 -0.1717  0.8586 -1.7135
 9106TIP3    H248734   1.730   5.931   6.358 -0.4189  1.0540 -0.6660
 9107TIP3   OH248735   6.390   0.912  16.098 -0.4471  0.0502  0.7849
 9107TIP3    H148736   6.457   0.870  16.153 -1.1386 -0.2510  1.4172
 9107TIP3    H248737   6.439   0.976  16.046  0.0876  1.2914  2.7054
 9108TIP3   OH248738   1.396   2.646  16.090 -0.4342 -0.1226  0.4280
 9108TIP3    H148739   1.448   2.723  16.069  0.1537 -0.8106 -0.7294
 9108TIP3    H248740   1.374   2.657  16.182 -0.9593  1.7629  0.1283
 9109TIP3   OH248741   4.131   5.700   2.238  0.0000 -0.3332  0.5929
 9109TIP3    H148742   4.079   5.628   2.203 -0.2964 -0.1524  0.6500
 9109TIP3    H248743   4.079   5.778   2.218  0.8540 -0.0090 -0.5249
 9110TIP3   OH248744   0.767   4.056   5.369  0.5138 -0.0305 -0.0677
 9110TIP3    H148745   0.693   3.995   5.365 -0.7163  1.1748  2.2229
 9110TIP3    H248746   0.821   4.023   5.440  0.0260  1.2977  0.9503
 9111TIP3   OH248747   6.609   1.716   4.876  0.2979  0.0273 -0.4732
 9111TIP3    H148748   6.624   1.731   4.970 -1.7312 -0.4747 -0.0273
 9111TIP3    H248749   6.640   1.796   4.834  3.5634 -0.6953  0.3134
 9112TIP3   OH248750   0.045   0.140  16.794 -0.4963 -0.2142 -0.6864
 9112TIP3    H148751   0.042   0.235  16.788 -1.0037 -0.1389  0.5662
 9112TIP3    H248752  -0.020   0.118  16.860  0.8805 -1.2954  0.3647
 9113TIP3   OH248753   6.161   0.325  16.124  0.1640 -0.2428  0.1786
 9113TIP3    H148754   6.071   0.294  16.118 -0.0278 -0.0264  1.5769
 9113TIP3    H248755   6.202   0.268  16.189  1.1104 -0.4937 -0.6207
 9114TIP3   OH248756   2.175   5.163   6.128  0.6772  0.1280 -0.4554
 9114TIP3    H148757   2.269   5.178   6.140  0.6682  0.4064 -0.7406
 9114TIP3    H248758   2.134   5.245   6.154  0.2493 -0.9460  2.8335
 9115TIP3   OH248759   4.749   6.442   3.008  0.0525 -0.1669 -0.3224
 9115TIP3    H148760   4.749   6.347   3.011  0.7996 -0.2093 -1.3311
 9115TIP3    H248761   4.668   6.464   2.960  0.7351 -0.3723 -1.6064
 9116TIP3   OH248762   0.025   4.835   3.108  0.2993 -0.2967 -0.2424
 9116TIP3    H148763  -0.046   4.895   3.086  1.3159  0.9664 -0.2207
 9116TIP3    H248764   0.008   4.758   3.054 -1.9167 -0.6934  0.8867
 9117TIP3   OH248765   3.291   1.496  14.111  0.1167 -0.0351  0.5320
 9117TIP3    H148766   3.369   1.467  14.157 -0.3854 -0.6946  0.9843
 9117TIP3    H248767   3.230   1.521  14.180  0.3017  1.5466  0.1732
 9118TIP3   OH248768   0.634   4.763  12.935  0.1727 -0.2920 -0.0294
 9118TIP3    H148769   0.704   4.706  12.905 -1.2937 -2.5241  0.5637
 9118TIP3    H248770   0.559   4.705  12.948 -1.5412  1.8465  0.2411
 9119TIP3   OH248771   0.107   2.011  12.912  0.4458  0.2669 -0.7182
 9119TIP3    H148772   0.130   2.075  12.844 -2.0850  3.1314  0.9206
 9119TIP3    H248773   0.016   2.029  12.933  0.4396 -2.0859  1.8220
 9120TIP3   OH248774   4.486   1.654   5.422 -0.3308 -0.3068 -0.1270
 9120TIP3    H148775   4.448   1.577   5.379 -0.8204  0.3311 -0.8794
 9120TIP3    H248776   4.534   1.699   5.353 -2.1880  1.4183 -0.3966
 9121TIP3   OH248777   5.106   1.533   2.001 -0.0253  0.7727  0.0567
 9121TIP3    H148778   5.111   1.512   1.908 -0.9817  1.9184 -0.2822
 9121TIP3    H248779   5.127   1.451   2.046 -2.3609 -0.5983 -1.1716
 9122TIP3   OH248780   2.020   0.483  16.017 -0.0881 -0.6211  0.4450
 9122TIP3    H148781   1.968   0.482  16.098  1.3945  0.7120  1.4624
 9122TIP3    H248782   2.097   0.431  16.038 -0.2510 -1.2816 -0.5379
 9123TIP3   OH248783   1.446   4.529   1.869  0.3493  0.3614 -0.0892
 9123TIP3    H148784   1.514   4.596   1.864 -1.4328  2.2329 -1.0482
 9123TIP3    H248785   1.400   4.536   1.785 -0.2233 -1.7512 -0.0067
 9124TIP3   OH248786   2.658   0.377  13.995 -0.1338  0.1751  0.0601
 9124TIP3    H148787   2.606   0.302  13.966 -1.5276  1.1242  0.0281
 9124TIP3    H248788   2.618   0.404  14.077  1.1356  0.1429  0.7151
 9125TIP3   OH248789   3.781   2.294  11.252 -0.4811  0.1546 -0.2350
 9125TIP3    H148790   3.693   2.276  11.220 -0.7250 -0.8369  0.9390
 9125TIP3    H248791   3.782   2.389  11.268 -1.2268  0.2153 -0.5350
 9126TIP3   OH248792   4.312   2.434   4.963  0.5050 -0.0761  0.0619
 9126TIP3    H148793   4.223   2.404   4.944  0.7651 -2.0594  1.6390
 9126TIP3    H248794   4.332   2.399   5.050  2.1748  1.9049  0.5652
 9127TIP3   OH248795   4.662   3.323  16.323  0.2182  0.3379 -0.1047
 9127TIP3    H148796   4.754   3.297  16.332  0.2064  1.0142  3.2715
 9127TIP3    H248797   4.614   3.261  16.378 -1.0115  1.5834  0.2690
 9128TIP3   OH248798   3.959   1.808  16.993  0.9164  0.2928 -0.2922
 9128TIP3    H148799   4.047   1.826  16.960  1.5802  1.9559  2.1034
 9128TIP3    H248800   3.911   1.889  16.976  0.6985  0.4257  0.8957
 9129TIP3   OH248801   3.570   6.480  15.480 -0.1475  0.3271  0.5281
 9129TIP3    H148802   3.614   6.406  15.521 -0.8159 -0.5853 -0.3649
 9129TIP3    H248803   3.493   6.496  15.535 -1.1454 -1.0173 -0.4198
 9130TIP3   OH248804   2.141   1.541   1.656 -0.4543  0.0467 -0.0619
 9130TIP3    H148805   2.075   1.596   1.700 -0.8428  1.1542 -1.9140
 9130TIP3    H248806   2.102   1.454   1.654 -1.3046  0.4124  0.0067
 9131TIP3   OH248807   4.406   1.024   2.565  0.1280  0.1459  0.5011
 9131TIP3    H148808   4.398   1.116   2.543 -1.1004 -0.1646 -0.4700
 9131TIP3    H248809   4.316   0.995   2.580  0.4374 -1.0167  0.2338
 9132TIP3   OH248810   1.257   5.210  12.552  0.1275 -0.1457 -0.1235
 9132TIP3    H148811   1.197   5.228  12.480  0.4093  0.1178 -0.2954
 9132TIP3    H248812   1.207   5.156  12.612 -0.4409  0.4847 -0.0278
 9133TIP3   OH248813   1.118   6.365  14.223  0.0014  0.4140  0.3811
 9133TIP3    H148814   1.142   6.382  14.132 -0.6358 -0.5926  0.0017
 9133TIP3    H248815   1.197   6.329  14.263  0.1624  0.4660  0.1130
 9134TIP3   OH248816   1.077   5.187  13.376  0.6664 -0.4974  0.0326
 9134TIP3    H148817   0.999   5.142  13.343 -0.0990  1.0689 -0.4280
 9134TIP3    H248818   1.103   5.138  13.453  0.6248 -2.4328 -1.1197
 9135TIP3   OH248819   5.496   3.984  11.209  0.2152 -0.8931 -0.4128
 9135TIP3    H148820   5.430   4.036  11.254 -0.7911 -2.4350 -0.0354
 9135TIP3    H248821   5.518   4.034  11.131 -0.8581 -0.0097 -0.1614
 9136TIP3   OH248822   3.329   1.314  15.116  0.9457 -0.2689 -0.5712
 9136TIP3    H148823   3.375   1.255  15.176 -0.0030 -1.0822 -0.6242
 9136TIP3    H248824   3.355   1.401  15.144  0.4457 -0.6253  1.1016
 9137TIP3   OH248825   3.655   3.382  14.833 -0.2953  0.5316 -0.3181
 9137TIP3    H148826   3.565   3.375  14.865 -0.8049 -1.6429 -2.0208
 9137TIP3    H248827   3.708   3.378  14.913 -1.6719  1.3949  0.6825
 9138TIP3   OH248828   1.871   4.926  11.828  0.0679 -0.9839  0.5796
 9138TIP3    H148829   1.875   4.983  11.751  0.2510  0.5179  1.6606
 9138TIP3    H248830   1.789   4.878  11.819 -0.4113 -0.0635 -0.0229
 9139TIP3   OH248831   5.341   2.762   1.882 -0.1389  0.0784  0.0461
 9139TIP3    H148832   5.344   2.829   1.950 -3.0377 -1.9630  2.4178
 9139TIP3    H248833   5.254   2.771   1.843  0.8917  0.1666 -2.4121
 9140TIP3   OH248834   4.130   4.650  15.664  0.2009  0.3363  0.0560
 9140TIP3    H148835   4.195   4.705  15.707 -0.9064  0.5845  1.4684
 9140TIP3    H248836   4.065   4.632  15.731 -2.7791  2.5378 -1.9746
 9141TIP3   OH248837   0.393   4.144   1.873 -0.1989  0.1544  0.1410
 9141TIP3    H148838   0.443   4.197   1.811  0.7537 -0.0694  0.6944
 9141TIP3    H248839   0.446   4.145   1.953 -0.5469 -0.9850  0.3993
 9142TIP3   OH248840   1.573   6.187   2.400 -0.0045 -0.2633 -0.3992
 9142TIP3    H148841   1.560   6.232   2.483  1.1753 -0.5104 -0.0700
 9142TIP3    H248842   1.663   6.208   2.375  0.3034 -1.7667 -0.6491
 9143TIP3   OH248843   6.351   4.463  12.758 -0.0992 -0.6167  0.1830
 9143TIP3    H148844   6.385   4.534  12.812 -1.3034 -0.7655  1.1778
 9143TIP3    H248845   6.372   4.489  12.668 -0.1123  0.7705  0.5592
 9144TIP3   OH248846   5.871   0.550   3.964  0.1767  0.1390 -0.3017
 9144TIP3    H148847   5.922   0.629   3.947  1.0627 -0.6633 -1.4751
 9144TIP3    H248848   5.864   0.506   3.879 -0.3100 -1.0475  0.3214
 9145TIP3   OH248849   3.151   2.117  12.669  0.5193 -0.2542  1.1626
 9145TIP3    H148850   3.094   2.045  12.695 -1.0023  1.5977  3.4301
 9145TIP3    H248851   3.232   2.102  12.719  0.0392 -0.2050  1.9865
 9146TIP3   OH248852   5.860   2.493  16.835  0.3047  0.4250 -0.3714
 9146TIP3    H148853   5.902   2.578  16.826  1.4378 -0.1566 -0.8071
 9146TIP3    H248854   5.883   2.464  16.923  1.4616 -0.2069 -0.8615
 9147TIP3   OH248855   2.630   1.700  14.681 -0.3673 -0.5554 -0.1421
 9147TIP3    H148856   2.714   1.746  14.674 -0.5186 -0.2214  0.2220
 9147TIP3    H248857   2.570   1.765  14.717 -1.4512  0.0557 -2.7920
 9148TIP3   OH248858   2.082   0.965  10.999 -0.2766 -0.0908 -0.0113
 9148TIP3    H148859   2.006   0.909  10.984 -0.4049  0.3068 -0.9430
 9148TIP3    H248860   2.046   1.054  11.001  0.0280  0.0239  0.6392
 9149TIP3   OH248861   3.583   2.519   3.107 -0.0987  0.0907  0.3391
 9149TIP3    H148862   3.642   2.532   3.033 -2.0653  1.5737 -1.1026
 9149TIP3    H248863   3.618   2.576   3.176  0.0061  1.2103 -0.6001
 9150TIP3   OH248864   5.271   0.970  12.767  0.0365  0.1275 -0.5123
 9150TIP3    H148865   5.214   1.015  12.830  1.9165  1.5402  0.3139
 9150TIP3    H248866   5.266   1.024  12.688  1.1540  1.0336 -0.0058
 9151TIP3   OH248867   3.215   0.451   2.294 -0.6323  0.2205  0.0787
 9151TIP3    H148868   3.158   0.404   2.355 -1.2031  1.4866  0.5563
 9151TIP3    H248869   3.170   0.534   2.279  0.0207  0.3508 -1.2633
 9152TIP3   OH248870   5.613   0.930   2.715 -0.2829 -0.1834  0.2837
 9152TIP3    H148871   5.697   0.934   2.669  0.1557  0.9473  1.1299
 9152TIP3    H248872   5.554   0.985   2.663 -0.0971  0.1899  0.4667
 9153TIP3   OH248873   4.007   5.640  14.034 -0.8556  0.0174 -0.6012
 9153TIP3    H148874   4.091   5.605  14.004  0.2194  1.5222  0.4630
 9153TIP3    H248875   3.959   5.660  13.954 -0.5357 -1.5536 -1.2308
 9154TIP3   OH248876   4.658   4.840   5.464  0.2312  0.8445  0.0541
 9154TIP3    H148877   4.565   4.851   5.480  0.3447  1.7413  0.1424
 9154TIP3    H248878   4.668   4.747   5.445 -0.6416  0.6944  0.2815
 9155TIP3   OH248879   2.209   4.712  13.112 -0.0841  0.0864 -0.1706
 9155TIP3    H148880   2.161   4.783  13.155 -1.3604 -1.0766  0.4162
 9155TIP3    H248881   2.264   4.675  13.181 -0.0963 -0.0632 -0.2396
 9156TIP3   OH248882   4.469   4.213   1.782  0.2883 -0.4023  1.1933
 9156TIP3    H148883   4.386   4.258   1.799 -0.1017 -1.2949  1.7147
 9156TIP3    H248884   4.473   4.207   1.687  1.1102  2.0863  0.9862
 9157TIP3   OH248885   3.872   4.058  14.074  0.1883 -0.0307  0.5128
 9157TIP3    H148886   3.931   3.983  14.062 -0.5595 -0.6739  0.8298
 9157TIP3    H248887   3.925   4.134  14.047 -0.0047 -0.9183 -2.8524
 9158TIP3   OH248888   1.205   0.332   3.819 -0.0088  0.8304 -0.1971
 9158TIP3    H148889   1.204   0.419   3.859 -0.5524  1.0244 -0.6187
 9158TIP3    H248890   1.118   0.296   3.838 -0.4521  1.1064 -1.5814
 9159TIP3   OH248891   6.565   3.414   1.844 -0.1783 -0.3258  0.0340
 9159TIP3    H148892   6.578   3.324   1.876 -1.9735 -0.1988  1.2583
 9159TIP3    H248893   6.561   3.467   1.924  1.1101  0.9299 -0.6862
 9160TIP3   OH248894   4.946   2.592  13.413  0.2551  0.8269  0.8816
 9160TIP3    H148895   4.982   2.594  13.502 -1.8189  1.8442  1.7727
 9160TIP3    H248896   4.861   2.550  13.423  0.3883  0.0553 -0.8339
 9161TIP3   OH248897   1.745   1.192   2.954  0.1838  0.3563  0.4444
 9161TIP3    H148898   1.689   1.261   2.990 -0.6577  0.7605 -1.5238
 9161TIP3    H248899   1.770   1.224   2.867  2.3339 -0.4640  0.6931
 9162TIP3   OH248900   2.163   2.798  10.975  0.3453  0.1153  0.1788
 9162TIP3    H148901   2.111   2.810  10.895  2.7165  0.2051 -1.4272
 9162TIP3    H248902   2.222   2.873  10.977  0.6585 -0.1451  1.7901
 9163TIP3   OH248903   0.289   2.791   2.726  0.1365 -0.3733  0.0299
 9163TIP3    H148904   0.335   2.708   2.712 -1.1647 -1.8131  3.2388
 9163TIP3    H248905   0.348   2.841   2.783 -0.4784 -0.5290  0.8216
 9164TIP3   OH248906   2.895   3.372   4.408 -0.3495  0.3287 -0.0224
 9164TIP3    H148907   2.874   3.337   4.322  3.3834 -0.0218 -0.9626
 9164TIP3    H248908   2.892   3.467   4.398 -1.0797  0.2861 -0.1972
 9165TIP3   OH248909   2.285   2.375  15.496  0.0508 -0.0309 -0.4104
 9165TIP3    H148910   2.271   2.281  15.508 -1.2375  0.0244 -1.2414
 9165TIP3    H248911   2.348   2.399  15.564 -2.2635 -0.8088  2.2076
 9166TIP3   OH248912   3.395   3.201   2.978  0.2914 -0.5812 -0.3710
 9166TIP3    H148913   3.420   3.283   3.022 -1.4996 -0.5709  0.7186
 9166TIP3    H248914   3.451   3.135   3.018  1.5462  0.0269 -1.0442
 9167TIP3   OH248915   6.129   3.538  16.352  0.1816 -0.2216  0.5266
 9167TIP3    H148916   6.132   3.632  16.371  0.2838  0.0390 -0.7299
 9167TIP3    H248917   6.214   3.518  16.315 -1.0279  0.0058 -2.6900
 9168TIP3   OH248918   4.897   2.389  10.838 -0.0277  0.3281  0.1497
 9168TIP3    H148919   4.911   2.295  10.829  0.0822  0.3580  0.0032
 9168TIP3    H248920   4.815   2.406  10.792  0.4929  0.4689 -0.7552
 9169TIP3   OH248921   2.975   4.289  12.865 -0.3418  0.0989 -0.4710
 9169TIP3    H148922   2.909   4.229  12.900  0.5985 -0.9479 -0.4170
 9169TIP3    H248923   2.959   4.372  12.911 -0.5334 -0.6210  0.8328
 9170TIP3   OH248924   6.549   2.637  17.373 -0.0489  0.0155 -0.3475
 9170TIP3    H148925   6.567   2.554  17.329 -2.3050 -0.9089  0.3428
 9170TIP3    H248926   6.568   2.704  17.307  0.3867 -1.1293 -1.4146
 9171TIP3   OH248927   5.241   5.978   2.031 -0.4339 -0.2635  0.0570
 9171TIP3    H148928   5.251   5.883   2.040  0.5018 -0.2298 -0.4232
 9171TIP3    H248929   5.329   6.013   2.047 -0.3256  0.3546 -1.6425
 9172TIP3   OH248930   2.283   5.098  15.476  0.4800 -0.1117 -0.4612
 9172TIP3    H148931   2.314   5.020  15.429  2.6024  0.7402 -0.6109
 9172TIP3    H248932   2.250   5.064  15.559  1.7099 -1.1719 -0.3593
 9173TIP3   OH248933   1.554   0.482   2.019 -0.0854  0.2645 -0.1275
 9173TIP3    H148934   1.618   0.535   1.971 -1.7183  2.6591  0.1156
 9173TIP3    H248935   1.596   0.464   2.103  0.6136  1.0635 -0.2874
 9174TIP3   OH248936   5.703   0.464   0.970 -0.1814 -0.0403  0.5623
 9174TIP3    H148937   5.634   0.418   1.018 -1.7196  0.3602 -1.1520
 9174TIP3    H248938   5.667   0.553   0.957  1.5311  0.8107  1.3695
 9175TIP3   OH248939   4.044   5.235  16.131  0.9635  0.2324 -0.6114
 9175TIP3    H148940   4.129   5.194  16.142  0.2480 -1.0929  0.2280
 9175TIP3    H248941   4.013   5.250  16.220 -0.1762 -0.4058 -0.8736
 9176TIP3   OH248942   0.472   4.561   4.333 -0.1583 -0.0068  0.2312
 9176TIP3    H148943   0.457   4.536   4.242 -0.3882  0.8377  0.0240
 9176TIP3    H248944   0.545   4.508   4.361 -0.1680 -0.3702 -0.4112
 9177TIP3   OH248945   6.626   1.197  16.669 -0.3595  0.1414  0.3284
 9177TIP3    H148946   6.691   1.266  16.680 -0.3098  0.0990  0.3029
 9177TIP3    H248947   6.662   1.141  16.600 -0.1783 -0.1700  0.6721
 9178TIP3   OH248948   4.618   1.398   5.364  0.1974 -0.1381  0.4145
 9178TIP3    H148949   4.641   1.485   5.399  0.5632  0.0308 -0.2264
 9178TIP3    H248950   4.652   1.399   5.274 -1.4454 -0.2443 -0.2483
 9179TIP3   OH248951   2.414   0.532  16.951 -0.4606 -0.0909 -0.5255
 9179TIP3    H148952   2.437   0.624  16.939 -1.6285 -0.0878 -3.3848
 9179TIP3    H248953   2.324   0.534  16.984 -0.3897 -0.2193 -0.3205
 9180TIP3   OH248954   6.506   1.708   0.855 -0.0807  0.0636  0.5070
 9180TIP3    H148955   6.428   1.733   0.806 -0.7658 -2.6050  0.0695
 9180TIP3    H248956   6.493   1.746   0.942 -2.5498 -1.2992  0.8401
 9181TIP3   OH248957   4.333   4.704  13.506  0.1852  0.1407 -0.4925
 9181TIP3    H148958   4.316   4.755  13.427  1.9801 -0.0382 -1.0598
 9181TIP3    H248959   4.329   4.767  13.577 -1.6425  0.2730 -0.6649
 9182TIP3   OH248960   6.076   6.550   3.531  0.3043  0.5123 -0.3437
 9182TIP3    H148961   6.131   6.506   3.596  1.0313  1.3157 -0.4087
 9182TIP3    H248962   6.110   6.520   3.447 -1.6002 -1.7340 -0.4121
 9183TIP3   OH248963   3.523   5.642  12.313  0.0308 -0.4618  0.5689
 9183TIP3    H148964   3.540   5.736  12.320 -0.9169 -0.2427  0.1836
 9183TIP3    H248965   3.429   5.636  12.296  0.1249 -1.4703  0.3137
 9184TIP3   OH248966   3.945   2.114   1.796 -0.8275 -0.4317  0.7877
 9184TIP3    H148967   3.924   2.203   1.825  2.2470  0.7043 -0.1168
 9184TIP3    H248968   3.965   2.066   1.876  3.1779  1.4164  1.0825
 9185TIP3   OH248969   5.067   6.380   5.006 -0.3972 -0.0548 -0.0960
 9185TIP3    H148970   5.018   6.352   5.083  0.5127 -0.4382  0.3588
 9185TIP3    H248971   5.148   6.328   5.008 -0.4909 -0.3049 -1.4816
 9186TIP3   OH248972   1.006   6.496   3.302 -0.1638  0.3331  0.0125
 9186TIP3    H148973   0.932   6.534   3.349  0.4469  0.3349  1.0023
 9186TIP3    H248974   1.047   6.570   3.258 -2.4149 -0.0387 -3.0242
 9187TIP3   OH248975   0.236   6.514  15.184  0.2763 -0.5039  0.3541
 9187TIP3    H148976   0.262   6.573  15.254  0.5200 -1.4569  1.0915
 9187TIP3    H248977   0.164   6.559  15.140  1.2591  0.8835  0.0997
 9188TIP3   OH248978   6.078   3.236  14.267  0.0046  0.0537  0.2145
 9188TIP3    H148979   6.098   3.177  14.194  1.3624 -0.0047  0.6064
 9188TIP3    H248980   5.983   3.247  14.264 -0.0112 -0.3526 -1.2414
 9189TIP3   OH248981   1.812   3.934  10.634  0.0463  0.1829  0.5328
 9189TIP3    H148982   1.782   3.856  10.588 -1.1422 -0.9802  3.0740
 9189TIP3    H248983   1.736   3.992  10.634 -0.1502 -0.0578  1.4420
 9190TIP3   OH248984   3.862   1.525   0.587  0.0081 -0.5414 -0.3887
 9190TIP3    H148985   3.892   1.443   0.548 -1.9182 -1.6115  0.2581
 9190TIP3    H248986   3.836   1.579   0.513  1.5052 -0.3795 -0.8310
 9191TIP3   OH248987   3.066   4.808   3.228  0.3013 -0.1920 -0.5917
 9191TIP3    H148988   3.157   4.834   3.240  0.1250  0.1980 -0.0254
 9191TIP3    H248989   3.051   4.815   3.134  0.9026 -0.4235 -0.7085
 9192TIP3   OH248990   0.203   1.848  16.960  0.2148  0.4515  0.1672
 9192TIP3    H148991   0.228   1.757  16.949 -0.9519  0.2422 -0.8447
 9192TIP3    H248992   0.108   1.849  16.953  0.1895  1.7146  0.3818
 9193TIP3   OH248993   1.297   6.101   3.217 -0.1739  0.2984 -0.1317
 9193TIP3    H148994   1.303   6.167   3.148  0.1755 -0.0603 -0.4511
 9193TIP3    H248995   1.280   6.019   3.170 -2.9760  0.4957  0.3976
 9194TIP3   OH248996   3.493   3.043  14.090  0.3273 -0.0519  0.1807
 9194TIP3    H148997   3.422   2.981  14.108 -0.3479  0.7685  0.4288
 9194TIP3    H248998   3.455   3.129  14.110  0.6603  0.6216 -1.8606
 9195TIP3   OH248999   5.803   2.912  12.737 -0.6929  0.1828 -0.5238
 9195TIP3    H149000   5.848   2.917  12.653  0.2899  1.6332  0.0377
 9195TIP3    H249001   5.739   2.983  12.734 -1.0402 -0.1146 -0.2572
 9196TIP3   OH249002   4.280   1.584  16.886 -0.5473 -0.1189  0.5727
 9196TIP3    H149003   4.279   1.518  16.955  3.4022  0.4112  1.3907
 9196TIP3    H249004   4.254   1.665  16.930  1.3615  0.0985  1.3947
 9197TIP3   OH249005   3.640   0.034  11.680 -0.1351 -0.3512 -0.6363
 9197TIP3    H149006   3.598   0.119  11.697 -0.2062 -0.3483 -0.8312
 9197TIP3    H249007   3.733   0.055  11.676 -0.2637  0.0144 -2.4575
 9198TIP3   OH249008   4.683   1.468   5.633  0.2638  0.1857  0.2093
 9198TIP3    H149009   4.761   1.448   5.581  0.5149 -0.8624  0.9404
 9198TIP3    H249010   4.646   1.382   5.654 -0.0899  0.5932  1.3346
 9199TIP3   OH249011   1.540   6.076  13.782  0.1269  0.1233  0.2084
 9199TIP3    H149012   1.481   6.086  13.708 -0.5755  1.1370  0.8942
 9199TIP3    H249013   1.624   6.109  13.750 -0.0679  0.1834 -0.2537
 9200TIP3   OH249014   6.384   4.583  17.000 -0.1901 -0.2111 -0.1034
 9200TIP3    H149015   6.369   4.677  16.986  0.0577 -0.4645 -2.5120
 9200TIP3    H249016   6.346   4.541  16.922  0.8296 -2.0036  0.3159
 9201TIP3   OH249017   6.605   4.973   2.589  0.2603  0.2415  0.0856
 9201TIP3    H149018   6.615   5.046   2.529 -1.2618  0.7434  0.4068
 9201TIP3    H249019   6.523   4.990   2.635  0.4175 -1.1161  0.9367
 9202TIP3   OH249020   2.332   1.226   5.830  0.1047  0.3845  0.0401
 9202TIP3    H149021   2.348   1.282   5.906  0.1228  1.0467 -0.4484
 9202TIP3    H249022   2.250   1.258   5.793  0.6674  0.7998 -0.8726
 9203TIP3   OH249023   3.878   5.573  11.711  0.4146  0.4832  0.1284
 9203TIP3    H149024   3.884   5.624  11.792 -0.2110 -1.3838  1.4318
 9203TIP3    H249025   3.813   5.618  11.658 -0.0502  1.0947  1.1880
 9204TIP3   OH249026   2.608   4.645   0.581  0.1840  0.5119 -0.6545
 9204TIP3    H149027   2.679   4.698   0.616  0.0325  0.2543  0.0536
 9204TIP3    H249028   2.553   4.708   0.535  0.3562  0.8699 -0.3800
 9205TIP3   OH249029   5.343   6.626   5.297  0.8126  0.0537 -0.0885
 9205TIP3    H149030   5.301   6.597   5.216 -0.9376 -3.3435  1.8315
 9205TIP3    H249031   5.276   6.677   5.341  1.2510  0.6631 -0.1230
 9206TIP3   OH249032   4.537   2.958   0.537 -0.2123  0.7017 -0.1569
 9206TIP3    H149033   4.582   2.889   0.489  0.1635  1.4642 -0.9314
 9206TIP3    H249034   4.607   3.010   0.576 -0.4961  0.5598  0.5649
 9207TIP3   OH249035   3.558   2.506  13.581  0.2899 -0.7344 -0.7362
 9207TIP3    H149036   3.534   2.425  13.536 -2.3601 -0.7387  0.4803
 9207TIP3    H249037   3.569   2.481  13.673 -0.1959  0.1991 -0.4060
 9208TIP3   OH249038   3.910   2.164  13.211 -0.2150  0.1019  0.0375
 9208TIP3    H149039   3.942   2.074  13.222  0.2507  0.4665  2.2320
 9208TIP3    H249040   3.817   2.159  13.233 -0.5441 -0.0534 -1.2780
 9209TIP3   OH249041   3.855   0.873   3.054 -0.2651 -0.4370 -0.2344
 9209TIP3    H149042   3.927   0.829   3.007  1.5977  2.9890 -0.9273
 9209TIP3    H249043   3.862   0.840   3.144  2.5816  0.0607 -0.1521
 9210TIP3   OH249044   3.339   1.795   5.450  0.5183 -0.2898 -0.2780
 9210TIP3    H149045   3.297   1.709   5.447 -1.1196  0.4267  0.4095
 9210TIP3    H249046   3.298   1.838   5.525  1.8231  0.8426 -0.1822
 9211TIP3   OH249047   5.846   4.679  11.943 -0.0719  0.6003 -0.3824
 9211TIP3    H149048   5.914   4.696  11.878  0.2161 -0.8137 -0.4861
 9211TIP3    H249049   5.795   4.759  11.946  1.0592  1.3666 -0.9626
 9212TIP3   OH249050   4.308   0.131  16.282  0.0435 -1.2727  0.5535
 9212TIP3    H149051   4.308   0.036  16.295  0.9151 -1.1446  1.5540
 9212TIP3    H249052   4.241   0.163  16.343 -0.9216 -1.3038 -0.4494
 9213TIP3   OH249053   0.887   1.849  12.638 -0.1864 -0.2276 -0.4824
 9213TIP3    H149054   0.846   1.791  12.702  1.8309 -1.2145 -0.0154
 9213TIP3    H249055   0.882   1.802  12.555 -0.6134 -0.0318 -0.5701
 9214TIP3   OH249056   5.976   6.357   3.776 -0.0773 -0.2866 -0.4431
 9214TIP3    H149057   6.043   6.422   3.795 -1.1044  0.9462 -0.8209
 9214TIP3    H249058   5.997   6.282   3.831  1.4326  0.1711 -0.3709
 9215TIP3   OH249059   5.865   1.204   6.239 -0.2132  0.6696  0.4865
 9215TIP3    H149060   5.873   1.111   6.257  0.3844  0.7865  0.8834
 9215TIP3    H249061   5.860   1.245   6.326 -1.6974  0.9171  0.2986
 9216TIP3   OH249062   4.843   4.976  12.723  0.4463 -0.3408 -0.4983
 9216TIP3    H149063   4.841   4.883  12.749  0.3803 -1.2403 -3.4095
 9216TIP3    H249064   4.770   4.986  12.663  0.2301  1.7591  0.0385
 9217TIP3   OH249065   2.891   6.096  14.416 -0.2019  0.3545 -0.5794
 9217TIP3    H149066   2.833   6.167  14.389 -1.7543  0.5395  2.7312
 9217TIP3    H249067   2.958   6.138  14.470 -0.6850 -0.5249  0.7675
 9218TIP3   OH249068   4.290   3.456  11.504 -0.3046 -0.4433  0.3413
 9218TIP3    H149069   4.279   3.432  11.596 -2.8120  0.9905  0.4971
 9218TIP3    H249070   4.277   3.374  11.456 -2.3009 -0.6482  1.1428
 9219TIP3   OH249071   2.385   1.829   0.015 -0.2005 -0.0689  0.2371
 9219TIP3    H149072   2.435   1.811  -0.065 -0.8263 -1.4171  0.1225
 9219TIP3    H249073   2.302   1.865  -0.017  0.0324  0.5966  0.3562
 9220TIP3   OH249074   5.487   2.347   4.597  0.4339  0.5257 -0.1632
 9220TIP3    H149075   5.425   2.350   4.524  0.5024  2.5354 -0.2103
 9220TIP3    H249076   5.433   2.360   4.675  0.5103 -0.3397  0.0421
 9221TIP3   OH249077   6.309   1.662  14.985 -0.4129  0.6024 -0.1899
 9221TIP3    H149078   6.268   1.703  14.909  1.1947  1.5500 -0.5983
 9221TIP3    H249079   6.402   1.658  14.963  0.1000  0.9341  1.7284
 9222TIP3   OH249080   5.606   1.204  17.260 -0.0440 -0.2287 -0.4067
 9222TIP3    H149081   5.526   1.207  17.208 -0.0557  0.6014 -0.3488
 9222TIP3    H249082   5.641   1.116  17.245 -0.6447 -0.3877 -0.9126
 9223TIP3   OH249083   3.580   4.872   3.531  0.6298 -0.3560 -0.2987
 9223TIP3    H149084   3.538   4.788   3.511  0.5726 -0.4340  0.1345
 9223TIP3    H249085   3.511   4.924   3.572  1.2110 -0.8529  1.3638
 9224TIP3   OH249086   5.127   4.909  15.580 -0.1446 -0.1067  0.1489
 9224TIP3    H149087   5.115   4.963  15.502 -1.3834  1.7530  1.5728
 9224TIP3    H249088   5.210   4.862  15.563  0.6809  1.7660 -1.3955
 9225TIP3   OH249089   5.003   4.687  13.580  0.8743 -0.4450  0.2016
 9225TIP3    H149090   4.974   4.602  13.546  0.5386 -1.3932  2.6461
 9225TIP3    H249091   4.964   4.751  13.521  1.2451 -1.9526 -1.7993
 9226TIP3   OH249092   5.833   4.023  12.984  0.1054 -0.7626 -0.0564
 9226TIP3    H149093   5.754   3.978  13.013 -0.8723  0.7237 -0.3094
 9226TIP3    H249094   5.867   3.968  12.913 -0.2775 -1.8040  0.5514
 9227TIP3   OH249095   1.911   1.664   0.411  0.3122 -0.4254  0.2051
 9227TIP3    H149096   1.874   1.638   0.495  0.9731 -1.3634  0.2292
 9227TIP3    H249097   1.946   1.582   0.374  1.1345  0.1843 -0.4088
 9228TIP3   OH249098   4.285   6.479  12.875  0.2505 -0.5811  0.5117
 9228TIP3    H149099   4.247   6.549  12.928 -0.3092 -1.0785  0.7805
 9228TIP3    H249100   4.346   6.435  12.933 -0.0596 -0.8719  0.6167
 9229TIP3   OH249101   2.919   6.552  12.916 -0.2754 -0.3629  0.1190
 9229TIP3    H149102   3.003   6.528  12.953 -0.3095  2.4660  2.3558
 9229TIP3    H249103   2.858   6.485  12.947  1.0019 -2.2291 -1.2254
 9230TIP3   OH249104   2.616   5.628  11.945  0.4116 -0.4120  0.1227
 9230TIP3    H149105   2.603   5.712  11.988 -0.1804  0.1010 -1.0014
 9230TIP3    H249106   2.677   5.647  11.873  1.0935 -1.1672  0.4866
 9231TIP3   OH249107   3.982   4.739  11.314  0.2266 -0.5222  0.1247
 9231TIP3    H149108   3.985   4.701  11.402 -0.3774 -0.3788  0.2128
 9231TIP3    H249109   4.049   4.692  11.265  0.1173 -1.0622  0.4819
 9232TIP3   OH249110   5.952   1.020   2.354  0.3588  0.6644  0.4214
 9232TIP3    H149111   5.904   1.102   2.359 -0.8949 -0.0450  0.4270
 9232TIP3    H249112   5.930   0.984   2.268  0.0514 -0.1518  0.8269
 9233TIP3   OH249113   3.641   6.328   0.314  0.8620 -0.9576 -0.3456
 9233TIP3    H149114   3.680   6.387   0.378  1.1608 -0.7131 -0.7515
 9233TIP3    H249115   3.674   6.241   0.338 -1.0874 -1.3015  1.4535
 9234TIP3   OH249116   5.358   1.376  11.635 -0.9495  0.0897  0.0662
 9234TIP3    H149117   5.298   1.342  11.702 -0.2497 -2.3754 -0.4753
 9234TIP3    H249118   5.342   1.321  11.558  1.8190 -0.5666 -0.1548
 9235TIP3   OH249119   2.832   0.057   0.284 -0.3424 -0.6898  0.6578
 9235TIP3    H149120   2.877   0.129   0.327  1.2262 -0.3569 -1.3738
 9235TIP3    H249121   2.742   0.089   0.270 -0.6082 -0.4626  2.6973
 9236TIP3   OH249122   6.637   4.909  13.702  0.1541 -0.4044  0.9381
 9236TIP3    H149123   6.578   4.838  13.675  1.1811 -0.8534 -0.1820
 9236TIP3    H249124   6.608   4.931  13.791 -1.6678 -0.6448  0.4526
 9237TIP3   OH249125   2.325   1.201   3.035  0.4384  0.0532 -0.2481
 9237TIP3    H149126   2.306   1.265   2.967 -0.6753  4.3324  3.5629
 9237TIP3    H249127   2.240   1.172   3.066  0.7305  0.8652  1.4408
 9238TIP3   OH249128   4.026   5.176   6.372 -0.0629  0.1925 -0.2320
 9238TIP3    H149129   4.027   5.150   6.464 -2.2669 -0.3087 -0.3133
 9238TIP3    H249130   4.093   5.244   6.367  0.5077 -0.1678  1.6098
 9239TIP3   OH249131   4.626   4.807  14.031 -0.2272  0.1194  0.0500
 9239TIP3    H149132   4.678   4.828  13.954  0.5703  0.4021  0.6431
 9239TIP3    H249133   4.645   4.714  14.048 -2.2469 -0.6142 -1.4485
 9240TIP3   OH249134   1.509   4.395   2.315 -0.1866 -0.8870  0.2132
 9240TIP3    H149135   1.415   4.407   2.302 -0.3823 -0.8632  1.5302
 9240TIP3    H249136   1.548   4.474   2.276 -0.9019  0.2548  1.6866
 9241TIP3   OH249137   4.003   0.495   0.770 -0.4560  0.0499 -0.3851
 9241TIP3    H149138   3.998   0.540   0.854  0.8934 -0.3800 -0.0682
 9241TIP3    H249139   3.944   0.420   0.779 -1.8324  1.0701 -0.5253
 9242TIP3   OH249140   1.608   5.860  17.182 -0.2603 -0.3761 -0.4323
 9242TIP3    H149141   1.690   5.908  17.172  0.0832 -1.0187 -0.6969
 9242TIP3    H249142   1.541   5.923  17.154  0.0234  0.5464  0.8450
 9243TIP3   OH249143   2.431   1.240  13.197  0.5226  0.3192 -0.2074
 9243TIP3    H149144   2.441   1.149  13.170 -0.6628 -0.2905  1.2906
 9243TIP3    H249145   2.508   1.258  13.251  1.0681  0.4262 -0.9982
 9244TIP3   OH249146   1.727   4.176  16.857 -0.4500  0.2877  0.1083
 9244TIP3    H149147   1.712   4.254  16.912  0.4092 -0.1977  1.0675
 9244TIP3    H249148   1.675   4.107  16.898 -0.1369  0.0233  0.0684
 9245TIP3   OH249149   4.275   4.140   0.468 -0.4672 -0.2520  0.5508
 9245TIP3    H149150   4.357   4.182   0.495 -1.4299  1.3045  1.2228
 9245TIP3    H249151   4.302   4.069   0.410  1.3047  0.8333 -0.0248
 9246TIP3   OH249152   4.370   2.350  10.622 -0.1435  0.0998  0.1771
 9246TIP3    H149153   4.399   2.267  10.586 -0.3616 -0.9263  2.2271
 9246TIP3    H249154   4.363   2.408  10.546  1.3632 -1.3263 -1.1279
 9247TIP3   OH249155   6.689   0.009   5.341  0.2560 -0.2067  0.2278
 9247TIP3    H149156   6.594  -0.007   5.344 -0.3402  1.4596 -3.5902
 9247TIP3    H249157   6.719  -0.038   5.263  2.0251  1.4417 -0.1684
 9248TIP3   OH249158   5.071   3.231  15.993  0.0119  0.5486 -0.3543
 9248TIP3    H149159   5.100   3.310  16.039 -0.8153  0.6916 -0.0609
 9248TIP3    H249160   4.980   3.248  15.970  0.1286  0.0886 -1.2128
 9249TIP3   OH249161   0.956   0.507   2.958 -0.1243 -0.5182  0.2815
 9249TIP3    H149162   0.921   0.532   2.872 -1.7406 -0.0548  1.0277
 9249TIP3    H249163   0.895   0.440   2.990  0.6848 -0.9718  0.9126
 9250TIP3   OH249164   1.010   4.735   4.028 -0.0562 -0.0569 -0.5588
 9250TIP3    H149165   0.918   4.761   4.033 -0.4143 -1.1611 -1.2505
 9250TIP3    H249166   1.018   4.662   4.090  0.8603  1.3710  1.0960
 9251TIP3   OH249167   0.853   4.313   1.596  0.3429 -0.0254 -0.3709
 9251TIP3    H149168   0.792   4.251   1.636  0.5236 -0.5405 -0.8774
 9251TIP3    H249169   0.889   4.363   1.669 -1.8228  1.3617 -0.1446
 9252TIP3   OH249170   6.155   4.342  14.357 -0.2573 -0.1801  0.9146
 9252TIP3    H149171   6.242   4.308  14.337  0.1271  0.6342  1.1235
 9252TIP3    H249172   6.099   4.265  14.364 -0.0044 -0.6165 -1.2920
 9253TIP3   OH249173   5.787   4.278   1.996  0.2707 -0.4353  0.5655
 9253TIP3    H149174   5.759   4.201   1.947 -3.0682  0.4001  0.9344
 9253TIP3    H249175   5.803   4.345   1.930  0.5455 -0.6625  0.3978
 9254TIP3   OH249176   0.368   4.133   5.433  0.0667 -0.3103  0.4329
 9254TIP3    H149177   0.412   4.106   5.352  0.2775 -0.7937  0.7056
 9254TIP3    H249178   0.440   4.160   5.491 -0.1345  0.8745  0.1649
 9255TIP3   OH249179   1.081   0.594  15.160 -0.0802 -0.5663  0.2639
 9255TIP3    H149180   1.030   0.590  15.080 -0.9860  2.0285  0.6199
 9255TIP3    H249181   1.021   0.566  15.229  0.7692 -3.0318  0.0756
 9256TIP3   OH249182   2.907   6.603  15.519 -0.3751  0.2515 -0.0492
 9256TIP3    H149183   2.887   6.529  15.461 -0.5204  0.0039  0.3118
 9256TIP3    H249184   2.878   6.574  15.606  2.5402 -0.5945  0.7581
 9257TIP3   OH249185   6.624   4.096   4.602 -0.9433 -0.2853  0.1312
 9257TIP3    H149186   6.589   4.124   4.518  0.1739  1.3177  0.1699
 9257TIP3    H249187   6.639   4.002   4.592  0.2129  0.0669 -1.8435
 9258TIP3   OH249188   5.853   0.275   0.297 -0.6433  0.0984  0.5496
 9258TIP3    H149189   5.846   0.219   0.374 -0.1411 -0.8363 -0.0608
 9258TIP3    H249190   5.911   0.227   0.238 -0.3381  1.1914 -0.0688
 9259TIP3   OH249191   1.053   4.774   5.531 -0.2295 -0.0180  0.1125
 9259TIP3    H149192   1.130   4.796   5.583  1.1094  1.1872 -2.1810
 9259TIP3    H249193   1.065   4.682   5.508  1.4507  0.5457 -1.5146
 9260TIP3   OH249194   5.705   4.462  15.609 -0.7217 -0.2803  0.4223
 9260TIP3    H149195   5.783   4.442  15.659  0.8781 -0.6888 -2.0465
 9260TIP3    H249196   5.633   4.458  15.672  1.0971 -1.0255  2.5384
 9261TIP3   OH249197   4.821   1.653  14.611 -0.4212  0.0215 -0.3831
 9261TIP3    H149198   4.852   1.659  14.701 -0.9124  1.1738 -0.2731
 9261TIP3    H249199   4.885   1.598  14.567 -0.7411 -1.4708  0.9107
 9262TIP3   OH249200   0.144   3.788  17.325 -0.0794  0.1654 -0.8321
 9262TIP3    H149201   0.222   3.741  17.292  0.2170 -0.2330  0.3761
 9262TIP3    H249202   0.167   3.880  17.317 -0.3082  0.1160 -2.3951
 9263TIP3   OH249203   3.124   5.792  14.323 -0.1669 -0.3645 -0.3418
 9263TIP3    H149204   3.075   5.763  14.400  1.5081 -0.4585  0.7509
 9263TIP3    H249205   3.146   5.712  14.276 -1.2494 -0.3024 -0.9789
 9264TIP3   OH249206   1.818   2.637  16.238 -0.4210  0.4722  0.2369
 9264TIP3    H149207   1.749   2.695  16.270 -1.0639 -0.6128  0.9046
 9264TIP3    H249208   1.807   2.636  16.143  0.7004  2.7432  0.0073
 9265TIP3   OH249209   3.125   3.023  12.565  0.3171  0.8003  0.1121
 9265TIP3    H149210   3.057   2.966  12.600  1.1214 -1.3562 -1.6222
 9265TIP3    H249211   3.104   3.032  12.472  1.4168  1.5839 -0.0895
 9266TIP3   OH249212   1.874   2.511  12.047 -0.2210  0.3246 -0.2286
 9266TIP3    H149213   1.837   2.556  11.971 -0.7789 -1.0257 -0.7928
 9266TIP3    H249214   1.969   2.512  12.032 -0.2657  0.8596 -0.4843
 9267TIP3   OH249215   1.411   1.510   6.181  0.0165  0.6707 -0.3275
 9267TIP3    H149216   1.331   1.461   6.162  0.3020  0.4499 -0.9735
 9267TIP3    H249217   1.462   1.453   6.238  0.5335  0.0223 -1.4088
 9268TIP3   OH249218   5.879   5.669  11.293  0.3403 -0.0578  0.0713
 9268TIP3    H149219   5.955   5.622  11.326 -0.4547 -1.2694  0.2402
 9268TIP3    H249220   5.853   5.622  11.214 -0.0031  0.5746 -0.2024
 9269TIP3   OH249221   4.062   5.275  12.770 -0.1524  0.2332  0.1136
 9269TIP3    H149222   4.146   5.321  12.772 -0.4549  1.0637 -2.5807
 9269TIP3    H249223   4.085   5.183  12.783  1.0713  0.5514  0.2954
 9270TIP3   OH249224   2.837   4.901   5.413  0.5492  0.9265  0.2888
 9270TIP3    H149225   2.755   4.860   5.386  0.5164  0.9797  0.3091
 9270TIP3    H249226   2.894   4.827   5.435  0.3552  0.9002  0.7170
 9271TIP3   OH249227   1.461   2.118  17.105 -0.2761 -0.1715  0.1508
 9271TIP3    H149228   1.539   2.174  17.109 -1.7793  2.0519  0.0006
 9271TIP3    H249229   1.471   2.058  17.178  1.4216  0.2487  0.3161
 9272TIP3   OH249230   2.323   4.089  16.446  0.1565 -0.2690 -0.0077
 9272TIP3    H149231   2.377   4.148  16.499  0.7104 -0.5783 -0.2130
 9272TIP3    H249232   2.251   4.064  16.503  0.4390 -0.1489  0.4082
 9273TIP3   OH249233   2.126   0.413   2.255  0.0332  0.3424 -0.2000
 9273TIP3    H149234   2.036   0.438   2.238  0.3202  2.4968  1.1166
 9273TIP3    H249235   2.121   0.358   2.334 -0.0136  1.7118  0.7708
 9274TIP3   OH249236   2.974   0.722  12.240 -0.7600 -0.0294  0.1536
 9274TIP3    H149237   2.919   0.794  12.270 -0.8237 -0.3914  0.9318
 9274TIP3    H249238   3.063   0.757  12.242 -0.8021  0.0624  0.4243
 9275TIP3   OH249239   3.832   2.234  11.715  0.2765  0.2411  0.5954
 9275TIP3    H149240   3.808   2.190  11.633 -0.1583  1.7036 -0.0925
 9275TIP3    H249241   3.865   2.164  11.771  0.8961 -0.7493 -0.9485
 9276TIP3   OH249242   1.661   6.330   5.823  0.3533  0.5740  0.3491
 9276TIP3    H149243   1.677   6.250   5.774  0.6319  1.0889 -0.4186
 9276TIP3    H249244   1.726   6.392   5.789 -0.9576  1.6418 -0.3021
 9277TIP3   OH249245   6.441   4.452  14.560  0.4434 -0.0538  0.3347
 9277TIP3    H149246   6.352   4.444  14.596  0.0810  0.7406 -0.3352
 9277TIP3    H249247   6.454   4.547  14.552  0.9492 -0.1946 -0.5529
 9278TIP3   OH249248   0.234   0.031  11.980  0.2334  0.3289  0.3375
 9278TIP3    H149249   0.296   0.091  12.023  0.5430  0.3361 -0.1130
 9278TIP3    H249250   0.244  -0.051  12.027  0.3800  0.4106  0.4520
 9279TIP3   OH249251   2.327   5.489  16.812 -0.0489  0.5633  0.0891
 9279TIP3    H149252   2.408   5.441  16.831 -1.4001 -2.1766 -0.6680
 9279TIP3    H249253   2.349   5.544  16.737  0.6761 -1.5022 -1.2700
 9280TIP3   OH249254   4.141   1.366  15.281  0.1527 -0.0685  0.1241
 9280TIP3    H149255   4.234   1.386  15.276 -0.1654  1.3567 -0.7867
 9280TIP3    H249256   4.130   1.320  15.364  1.8827 -1.5535 -0.4061
 9281TIP3   OH249257   4.654   1.888  13.971  0.6679 -0.0463 -0.1790
 9281TIP3    H149258   4.725   1.831  13.944  0.8741  0.1785 -0.1153
 9281TIP3    H249259   4.640   1.867  14.063  0.4712 -0.2812 -0.2642
 9282TIP3   OH249260   0.058   4.609  17.112  0.1569  0.1703 -0.4966
 9282TIP3    H149261  -0.006   4.539  17.127  0.8946 -0.5289 -0.5363
 9282TIP3    H249262   0.101   4.621  17.197  1.5607 -0.9891 -1.0127
 9283TIP3   OH249263   2.145   2.125   3.258  0.3581 -0.0338  0.1873
 9283TIP3    H149264   2.148   2.133   3.353 -0.7562 -0.6194  0.2956
 9283TIP3    H249265   2.081   2.191   3.231  0.4708 -0.0519 -0.1279
 9284TIP3   OH249266   1.173   5.989   0.619  0.0090 -0.3931 -0.3265
 9284TIP3    H149267   1.165   6.085   0.613  0.5211 -0.4172 -2.4760
 9284TIP3    H249268   1.247   5.968   0.561 -0.4306 -2.1379 -0.3065
 9285TIP3   OH249269   3.649   6.464  11.942 -0.3623 -0.2118  0.7760
 9285TIP3    H149270   3.665   6.383  11.990 -1.0883 -2.7081 -2.8759
 9285TIP3    H249271   3.735   6.508  11.941  0.8733 -2.4802  0.2194
 9286TIP3   OH249272   4.016   2.551  10.527 -0.2658 -0.2219 -0.2198
 9286TIP3    H149273   3.967   2.522  10.450 -0.5930 -1.1424  0.3227
 9286TIP3    H249274   3.990   2.491  10.597 -1.3232  1.6680  1.0855
 9287TIP3   OH249275   3.063   2.774  15.780  0.2246  0.6636 -0.2951
 9287TIP3    H149276   3.037   2.862  15.806  0.9855  0.7815  0.0857
 9287TIP3    H249277   3.145   2.785  15.732  0.5402  0.1363  0.1026
 9288TIP3   OH249278   4.040   4.669   0.396 -0.1014  0.3481 -0.0240
 9288TIP3    H149279   3.956   4.666   0.442  0.3362  2.9430  1.1219
 9288TIP3    H249280   4.104   4.637   0.459 -0.1849 -1.9029 -0.9933
 9289TIP3   OH249281   3.207   0.722  15.721  0.0850  0.1227 -0.1603
 9289TIP3    H149282   3.215   0.812  15.754  1.4243  0.8757 -2.3056
 9289TIP3    H249283   3.131   0.724  15.663  0.6018  0.1136 -0.8529
 9290TIP3   OH249284   5.295   0.970   3.768 -0.2072 -0.0093 -0.1968
 9290TIP3    H149285   5.316   0.877   3.773  0.6685  0.2087  0.3249
 9290TIP3    H249286   5.200   0.974   3.782 -0.4371 -0.8990 -1.3493
 9291TIP3   OH249287   4.259   4.129  13.487  0.4319  0.6967  0.2047
 9291TIP3    H149288   4.351   4.152  13.501  0.1777  1.7396  0.2308
 9291TIP3    H249289   4.233   4.177  13.409  0.4517 -1.1940 -1.0457
 9292TIP3   OH249290   6.434   1.164  11.645 -0.0329 -0.0659  0.2470
 9292TIP3    H149291   6.360   1.172  11.705 -0.5518 -0.4762 -0.3236
 9292TIP3    H249292   6.412   1.088  11.591 -1.6401  2.5869 -3.2384
 9293TIP3   OH249293   5.164   6.300   4.548 -0.5799 -0.5173  0.6204
 9293TIP3    H149294   5.218   6.353   4.488 -1.1283 -1.3895 -0.7024
 9293TIP3    H249295   5.141   6.359   4.619  0.1501  0.5485 -0.0047
 9294TIP3   OH249296   4.307   1.000  16.957 -0.2518 -0.2315  0.1588
 9294TIP3    H149297   4.375   0.969  16.897 -0.5441 -1.2743  0.3392
 9294TIP3    H249298   4.268   0.920  16.992  0.9083  0.2928  2.9127
 9295TIP3   OH249299   2.399   2.997  10.840 -0.1736 -0.0469  0.0893
 9295TIP3    H149300   2.452   3.060  10.891 -0.0518 -1.0987  1.3192
 9295TIP3    H249301   2.338   3.051  10.791  0.0785  1.0515  0.9472
 9296TIP3   OH249302   0.051   1.267  14.402 -0.4184 -0.1223  0.0225
 9296TIP3    H149303   0.143   1.257  14.430 -0.3887  1.2495  0.4649
 9296TIP3    H249304   0.044   1.211  14.325  0.5979 -0.8209  0.4087
 9297TIP3   OH249305   5.551   1.504   3.070  0.4638  0.0253  0.6579
 9297TIP3    H149306   5.548   1.462   2.984 -1.1465 -0.2055  0.7825
 9297TIP3    H249307   5.642   1.528   3.083  1.1039 -1.7413 -0.2411
 9298TIP3   OH249308   1.398   2.048   1.763  0.5915 -0.3312  0.0102
 9298TIP3    H149309   1.390   2.022   1.671  1.1312  1.3027 -0.5359
 9298TIP3    H249310   1.361   2.136   1.766 -0.6948 -0.8778  1.6638
 9299TIP3   OH249311   2.541   5.650   5.496  0.4306  0.4762  0.1204
 9299TIP3    H149312   2.633   5.678   5.505  0.3536  1.4049 -1.6433
 9299TIP3    H249313   2.513   5.633   5.586  2.2465  0.4239  0.7241
 9300TIP3   OH249314   1.276   5.978   3.676 -0.0277 -0.4899 -0.1490
 9300TIP3    H149315   1.282   6.019   3.762 -1.7134 -1.3684  0.4390
 9300TIP3    H249316   1.245   6.048   3.618  0.9982  0.0721 -0.0364
 9301TIP3   OH249317   5.902   6.088  11.352  0.0305 -0.3443 -0.2965
 9301TIP3    H149318   5.846   6.137  11.292 -1.3520  0.2355  1.3929
 9301TIP3    H249319   5.900   6.137  11.434  2.1881 -0.8933  0.1588
 9302TIP3   OH249320   2.773   4.282   1.432  0.0173 -0.1272 -0.7079
 9302TIP3    H149321   2.789   4.237   1.515  0.2117 -2.1780 -1.7812
 9302TIP3    H249322   2.851   4.336   1.418  1.0535 -1.5402 -0.6203
 9303TIP3   OH249323   3.545   5.471   5.340 -0.0375  0.1872 -0.3061
 9303TIP3    H149324   3.559   5.526   5.263  1.3438 -1.2717 -1.1681
 9303TIP3    H249325   3.624   5.417   5.346 -0.3491 -0.1250  1.8284
 9304TIP3   OH249326   3.272   5.110   2.390 -0.5730  0.0040  0.1689
 9304TIP3    H149327   3.259   5.032   2.336 -2.5544  1.1966 -1.2196
 9304TIP3    H249328   3.184   5.142   2.407  0.1312  1.0581  2.0969
 9305TIP3   OH249329   2.056   2.640   0.612  0.6148  0.0504  0.0618
 9305TIP3    H149330   1.963   2.649   0.632  0.0333 -0.4815 -2.1295
 9305TIP3    H249331   2.091   2.729   0.617 -0.6045  0.6620 -1.6173
 9306TIP3   OH249332   5.618   2.523   3.951 -0.1549  0.3678 -0.3589
 9306TIP3    H149333   5.591   2.439   3.915  0.2132 -0.0734  0.3805
 9306TIP3    H249334   5.536   2.565   3.977 -0.2716 -0.2491  0.3103
 9307TIP3   OH249335   5.189   2.507  15.460  0.0188 -0.6571 -0.1350
 9307TIP3    H149336   5.248   2.505  15.535 -1.5406 -0.8773  1.1390
 9307TIP3    H249337   5.174   2.415  15.438 -0.0887 -0.6132 -0.2499
 9308TIP3   OH249338   6.121   0.504  14.465  0.2905 -0.7005  0.4719
 9308TIP3    H149339   6.102   0.464  14.380  2.3238  0.9565 -0.8563
 9308TIP3    H249340   6.206   0.469  14.490  0.8615  0.6795  0.5769
 9309TIP3   OH249341   0.592   3.203   1.877  0.0801  0.2440  0.2576
 9309TIP3    H149342   0.650   3.179   1.805  1.4302  0.1081  1.3530
 9309TIP3    H249343   0.514   3.149   1.864  0.7635 -0.6009 -0.4599
 9310TIP3   OH249344   3.525   3.046   2.768  0.0394 -0.0825 -0.9512
 9310TIP3    H149345   3.562   3.070   2.853 -1.9753 -2.1226  0.6252
 9310TIP3    H249346   3.583   2.979   2.734 -0.0199 -0.4215 -0.3928
 9311TIP3   OH249347   5.739   2.513   3.057  0.3656  0.1130  0.0876
 9311TIP3    H149348   5.654   2.492   3.018 -0.4322  1.3314  1.0774
 9311TIP3    H249349   5.794   2.438   3.037 -1.4952 -1.5881  1.0360
 9312TIP3   OH249350   0.198   4.409   4.166  0.6834  0.0033  0.4665
 9312TIP3    H149351   0.168   4.323   4.196  1.7727  0.0109  1.6430
 9312TIP3    H249352   0.143   4.428   4.089  1.4299 -2.4211 -0.7704
 9313TIP3   OH249353   0.712   1.590  16.407  0.2550 -0.8590 -0.3095
 9313TIP3    H149354   0.750   1.650  16.471 -1.0291  0.2317 -0.5366
 9313TIP3    H249355   0.765   1.601  16.328  0.1756 -0.1951 -0.2744
 9314TIP3   OH249356   2.720   5.930  11.636 -0.1480 -0.8816 -0.1924
 9314TIP3    H149357   2.692   6.006  11.688  1.2589 -0.5838  0.1810
 9314TIP3    H249358   2.773   5.968  11.566  1.8078 -1.5771  0.8429
 9315TIP3   OH249359   2.964   1.561   2.856  0.0752  0.4714  0.3473
 9315TIP3    H149360   2.957   1.644   2.809  0.2247 -1.3668 -3.2687
 9315TIP3    H249361   2.891   1.509   2.823  2.2683 -2.1881 -0.7078
 9316TIP3   OH249362   0.549   6.359  13.495 -0.3289 -0.2764 -0.0615
 9316TIP3    H149363   0.501   6.441  13.504 -1.2542 -0.5109 -2.4228
 9316TIP3    H249364   0.487   6.292  13.523 -0.0402 -0.2992  0.5447
 9317TIP3   OH249365   3.393   2.889   5.379 -0.3264  0.0407  0.0425
 9317TIP3    H149366   3.441   2.827   5.433 -0.4908  0.4464  0.6655
 9317TIP3    H249367   3.447   2.969   5.382 -2.0349  1.2189  2.5113
 9318TIP3   OH249368   2.835   3.134  12.801 -0.1848  0.9450  0.4451
 9318TIP3    H149369   2.808   3.146  12.710 -1.0586  0.8666  0.6899
 9318TIP3    H249370   2.818   3.041  12.819 -3.2461  1.6606  1.7000
 9319TIP3   OH249371   4.707   2.385   5.394 -0.1525 -0.0508 -0.0007
 9319TIP3    H149372   4.638   2.386   5.461 -0.1550 -0.3062  0.0038
 9319TIP3    H249373   4.670   2.434   5.321 -0.9061 -1.3735 -0.5432
 9320TIP3   OH249374   3.139   0.352  14.125 -0.1997 -0.1671 -0.4126
 9320TIP3    H149375   3.206   0.417  14.105  0.3080  0.4359  2.6920
 9320TIP3    H249376   3.119   0.367  14.218 -3.3094 -1.5585 -0.7553
 9321TIP3   OH249377   2.032   2.443   4.694 -0.0325  0.0648  0.0581
 9321TIP3    H149378   1.965   2.388   4.732  0.5265 -0.3611  0.4450
 9321TIP3    H249379   2.112   2.391   4.700  0.0817 -0.0400 -1.7135
 9322TIP3   OH249380   5.690   1.226   4.318  0.2015 -0.3341  0.3551
 9322TIP3    H149381   5.784   1.231   4.333  0.5939 -0.8011 -1.7061
 9322TIP3    H249382   5.680   1.176   4.237 -1.8343 -0.4356  0.6021
 9323TIP3   OH249383   3.834   6.149  11.937 -0.5721 -0.1239  0.2611
 9323TIP3    H149384   3.769   6.185  11.997  0.3025 -0.7588  1.6181
 9323TIP3    H249385   3.788   6.079  11.891 -1.6615  1.2643 -0.8793
 9324TIP3   OH249386   5.539   1.000   0.132  0.5664 -0.2921  0.5772
 9324TIP3    H149387   5.563   0.939   0.201  1.4476 -1.2657 -0.5431
 9324TIP3    H249388   5.545   0.948   0.051  0.3999  1.0287 -0.3163
 9325TIP3   OH249389   5.891   4.206  11.927  0.1534 -0.5186 -0.4784
 9325TIP3    H149390   5.972   4.187  11.975 -0.1344 -0.0904  0.1906
 9325TIP3    H249391   5.918   4.261  11.854  0.2857  0.9407  0.6207
 9326TIP3   OH249392   4.462   0.797  13.070  0.1187 -0.0248  0.2847
 9326TIP3    H149393   4.420   0.858  13.130 -0.6894  0.1302 -0.4231
 9326TIP3    H249394   4.547   0.778  13.111  0.1259  1.0809  0.8287
 9327TIP3   OH249395   1.049   5.121  14.525 -0.5813 -0.2625  0.0207
 9327TIP3    H149396   1.130   5.088  14.487 -0.9963  0.6796 -1.7595
 9327TIP3    H249397   1.075   5.153  14.612  0.2711 -2.9594  0.8728
 9328TIP3   OH249398   0.506   0.293  12.287 -0.5450  0.1491 -0.0379
 9328TIP3    H149399   0.441   0.331  12.346 -0.8400 -1.4465  0.7189
 9328TIP3    H249400   0.589   0.332  12.314 -1.1286  2.1461 -0.9624
 9329TIP3   OH249401   5.311   5.107   2.804 -0.1369  0.2350  0.1283
 9329TIP3    H149402   5.314   5.179   2.866  0.4522 -0.7460  1.2739
 9329TIP3    H249403   5.381   5.048   2.831 -1.5721 -1.5384  0.1887
 9330TIP3   OH249404   5.793   0.224  12.387 -0.3480  1.3019  0.5404
 9330TIP3    H149405   5.731   0.254  12.321 -1.0261  1.5467  1.2738
 9330TIP3    H249406   5.847   0.159  12.342 -1.5182  0.6524  0.0345
 9331TIP3   OH249407   0.590   1.366   4.086 -0.1876 -0.9421 -0.4759
 9331TIP3    H149408   0.620   1.306   4.154 -2.4079 -1.6065 -0.0007
 9331TIP3    H249409   0.657   1.434   4.083 -0.1123 -0.7256  2.5810
 9332TIP3   OH249410   2.707   2.118  13.386  0.0521  0.3696 -0.6558
 9332TIP3    H149411   2.748   2.032  13.392  0.6656  0.4799 -2.5030
 9332TIP3    H249412   2.616   2.103  13.412  0.2881 -0.7141 -0.4020
 9333TIP3   OH249413   4.734   2.092  17.329 -0.0582 -0.0209  0.1587
 9333TIP3    H149414   4.759   2.124  17.242 -0.2179  0.3191  0.2387
 9333TIP3    H249415   4.644   2.121  17.340 -0.5703 -1.3916 -0.2031
 9334TIP3   OH249416   4.402   0.760   0.143 -0.1882 -0.3798  0.3284
 9334TIP3    H149417   4.483   0.708   0.144  0.7085  0.9662  1.3975
 9334TIP3    H249418   4.393   0.789   0.053  0.7535 -0.2078  0.2818
 9335TIP3   OH249419   0.610   3.706   3.034 -0.1596  0.6225 -0.7854
 9335TIP3    H149420   0.581   3.728   2.946 -0.9559 -1.2785 -1.0569
 9335TIP3    H249421   0.572   3.620   3.051  0.4612  0.6756  1.1961
 9336TIP3   OH249422   5.719   3.029   2.467  0.2758 -1.2587  0.3114
 9336TIP3    H149423   5.728   3.115   2.506 -1.1548 -1.2128  0.5958
 9336TIP3    H249424   5.783   2.974   2.513  0.1159 -0.7110  1.2002
 9337TIP3   OH249425   0.632   4.595  13.530 -0.0727 -0.4071 -0.0951
 9337TIP3    H149426   0.645   4.626  13.440  0.4352 -1.5478 -0.4429
 9337TIP3    H249427   0.718   4.600  13.570 -0.3208  0.2036  0.3746
 9338TIP3   OH249428   0.859   0.290   0.469  0.1691 -0.1147  0.4185
 9338TIP3    H149429   0.899   0.377   0.473 -0.0210  0.0427 -0.6690
 9338TIP3    H249430   0.900   0.241   0.541  0.4256  0.8081  0.9173
 9339TIP3   OH249431   0.999   3.261  12.192  0.5694  0.1668  0.0284
 9339TIP3    H149432   1.064   3.301  12.249 -1.5404  0.3971  2.4161
 9339TIP3    H249433   0.944   3.333  12.164  1.1978 -0.0386 -1.9238
 9340TIP3   OH249434   6.746   1.064   6.463  0.1424  0.3896  0.2875
 9340TIP3    H149435   6.801   1.121   6.516 -0.9305  0.4667  1.3423
 9340TIP3    H249436   6.753   0.978   6.505 -0.9281  0.5110  0.7536
 9341TIP3   OH249437   0.406   5.900  15.805  0.2557  0.1297  0.1174
 9341TIP3    H149438   0.375   5.838  15.739 -1.0916 -0.8734  1.5911
 9341TIP3    H249439   0.446   5.971  15.755 -1.3038 -0.2512 -1.7974
 9342TIP3   OH249440   5.399   3.668  11.876 -0.2482 -0.1574 -0.0169
 9342TIP3    H149441   5.492   3.645  11.876 -0.0078  0.7728  0.7578
 9342TIP3    H249442   5.396   3.757  11.910 -1.4828 -0.4532  0.7101
 9343TIP3   OH249443   4.829   6.177   3.593 -0.3478  0.2688  0.0448
 9343TIP3    H149444   4.906   6.228   3.618 -0.6338  0.9420 -0.4173
 9343TIP3    H249445   4.763   6.199   3.658  0.1418 -1.1214  1.0798
 9344TIP3   OH249446   3.747   6.703  15.562  0.3005  0.8762  0.6808
 9344TIP3    H149447   3.731   6.681  15.471 -0.7264  0.8152  0.8565
 9344TIP3    H249448   3.786   6.624  15.600 -0.2181  0.5348  0.5206
 9345TIP3   OH249449   4.951   1.773   1.451  0.3209  0.5933 -0.2593
 9345TIP3    H149450   4.881   1.795   1.390  0.0825  1.2267  0.2261
 9345TIP3    H249451   4.939   1.680   1.470 -1.8157  1.1509  1.5596
 9346TIP3   OH249452   4.038   6.426  11.504 -0.1479  0.4348  0.7911
 9346TIP3    H149453   4.100   6.415  11.576  0.7232 -1.2477 -0.1641
 9346TIP3    H249454   3.954   6.398  11.541  0.4033 -1.0158  1.0149
 9347TIP3   OH249455   3.917   5.792  15.394  0.1581 -0.4944  0.3630
 9347TIP3    H149456   3.887   5.821  15.308  3.3724 -2.7124 -1.7641
 9347TIP3    H249457   3.956   5.870  15.433 -2.8863  0.9835  0.7196
 9348TIP3   OH249458   3.127   6.024   0.749 -0.1905  0.0779  0.1744
 9348TIP3    H149459   3.215   5.987   0.753 -0.1860  0.0891  0.1758
 9348TIP3    H249460   3.086   5.979   0.675 -0.6921 -1.0512  1.1002
 9349TIP3   OH249461   4.369   2.104  12.006 -0.1627  0.1804 -0.3681
 9349TIP3    H149462   4.276   2.080  12.012 -0.0081 -0.0507  2.9184
 9349TIP3    H249463   4.413   2.025  11.977 -0.7769 -0.4009  0.2503
 9350TIP3   OH249464   1.763   2.940   1.593 -0.5146 -0.2664  0.0322
 9350TIP3    H149465   1.761   2.883   1.516 -1.0203  0.1241 -0.2489
 9350TIP3    H249466   1.833   2.904   1.648 -1.1048 -1.4200  0.0586
 9351TIP3   OH249467   3.104   3.571   3.272 -0.0699  0.1546 -0.0452
 9351TIP3    H149468   3.175   3.624   3.236 -0.4071  2.8790  2.8775
 9351TIP3    H249469   3.032   3.581   3.210  0.7122  0.9632 -0.8404
 9352TIP3   OH249470   1.843   4.714   3.877  0.4048 -0.3007 -0.6652
 9352TIP3    H149471   1.878   4.714   3.787  1.9119  0.5293 -0.1191
 9352TIP3    H249472   1.853   4.805   3.906 -0.2394 -0.5230  0.2865
 9353TIP3   OH249473   4.544   3.423  13.065 -0.2009  0.2076  0.3874
 9353TIP3    H149474   4.616   3.379  13.110 -0.4754  1.2878  1.9943
 9353TIP3    H249475   4.466   3.394  13.112 -0.4177  2.0527  1.2668
 9354TIP3   OH249476   3.192   2.811  16.639 -0.4406 -0.0541  0.1868
 9354TIP3    H149477   3.119   2.773  16.688  0.7939 -1.3533  1.1067
 9354TIP3    H249478   3.251   2.737  16.624  0.7174  0.9748 -0.4799
 9355TIP3   OH249479   0.248   1.050  14.120  0.0033  0.8075 -0.0691
 9355TIP3    H149480   0.248   1.144  14.135  0.8664  0.5190  2.1267
 9355TIP3    H249481   0.338   1.022  14.138 -0.4372 -0.5584  0.1664
 9356TIP3   OH249482   4.328   0.616  16.243 -0.1660  0.1785  0.2204
 9356TIP3    H149483   4.375   0.564  16.178 -2.4741 -0.4459 -1.0510
 9356TIP3    H249484   4.316   0.701  16.202  0.6044  0.6282  0.9063
 9357TIP3   OH249485   5.168   4.239   2.623 -0.2603  0.1592  0.4538
 9357TIP3    H149486   5.148   4.218   2.532  0.2037 -0.5175  0.5051
 9357TIP3    H249487   5.204   4.328   2.619 -0.2720  0.1463 -0.0163
 9358TIP3   OH249488   2.533   3.840   1.638 -0.1870  0.2795 -0.1788
 9358TIP3    H149489   2.501   3.761   1.681  0.5940 -0.2043 -0.4633
 9358TIP3    H249490   2.455   3.880   1.600 -0.9866  1.0363  2.1423
 9359TIP3   OH249491   4.740   0.834  13.802 -0.1212  0.5104  0.5137
 9359TIP3    H149492   4.754   0.855  13.894 -1.2860  0.1375  0.8015
 9359TIP3    H249493   4.720   0.919  13.761 -0.7055  0.5410  0.8409
 9360TIP3   OH249494   6.099   5.679  10.323 -0.1415  0.4062  0.3536
 9360TIP3    H149495   6.191   5.689  10.301 -0.5595  0.2724 -1.6813
 9360TIP3    H249496   6.093   5.705  10.415  1.7740  1.1371  0.3176
 9361TIP3   OH249497   0.065   3.073   4.722  0.3255  0.0530 -0.1337
 9361TIP3    H149498   0.022   3.052   4.805  1.3872  2.5030  1.1580
 9361TIP3    H249499   0.153   3.037   4.731  0.8159  1.3031  0.3575
 9362TIP3   OH249500   5.951   2.231   0.478 -0.2848 -0.0054 -0.2848
 9362TIP3    H149501   5.949   2.270   0.390  0.1813  1.0174  0.1471
 9362TIP3    H249502   5.910   2.145   0.466  1.6890 -0.8161 -1.9467
 9363TIP3   OH249503   5.568   6.620  12.314  0.0788 -0.0201 -0.2832
 9363TIP3    H149504   5.576   6.686  12.245 -0.4522  0.9027  0.5063
 9363TIP3    H249505   5.655   6.579  12.317  0.2638  0.2745 -1.1465
 9364TIP3   OH249506   6.607   5.301  15.348 -0.2727 -0.0090  0.1679
 9364TIP3    H149507   6.588   5.306  15.255  0.7261  1.5901  0.0197
 9364TIP3    H249508   6.537   5.246  15.384 -1.9612  1.1615 -1.1667
 9365TIP3   OH249509   3.380   6.012  15.633  0.2389  0.4253  0.7648
 9365TIP3    H149510   3.427   6.038  15.553 -2.0028  0.6772 -0.5689
 9365TIP3    H249511   3.351   5.923  15.615 -0.2326  0.4622  1.3170
 9366TIP3   OH249512   0.173   2.852  11.930 -0.5974  0.1535  0.1609
 9366TIP3    H149513   0.081   2.827  11.938 -1.1622  1.9274 -0.2284
 9366TIP3    H249514   0.221   2.769  11.927 -2.2344 -0.8218 -0.2241
 9367TIP3   OH249515   4.347   0.979  16.620  0.2485 -0.9954 -0.0692
 9367TIP3    H149516   4.359   0.912  16.688 -1.1103 -0.9111  0.2826
 9367TIP3    H249517   4.263   0.957  16.579 -0.6711  0.9628  0.6370
 9368TIP3   OH249518   6.285   0.253  15.289 -0.6326  0.1840  0.3228
 9368TIP3    H149519   6.192   0.241  15.311 -0.5841 -0.0378  0.4058
 9368TIP3    H249520   6.312   0.328  15.343 -0.9849  0.8143 -0.3526
 9369TIP3   OH249521   0.640   5.677  14.504  0.0181  0.0724 -0.2947
 9369TIP3    H149522   0.580   5.603  14.506 -0.2024  0.1662 -1.8931
 9369TIP3    H249523   0.614   5.732  14.578 -1.4771 -0.1817 -0.6093
 9370TIP3   OH249524   4.845   3.515   0.104 -0.4041  0.6616  0.3666
 9370TIP3    H149525   4.829   3.595   0.153  1.6264  1.6018 -0.3530
 9370TIP3    H249526   4.880   3.546   0.020 -0.8219 -0.9586 -0.4385
 9371TIP3   OH249527   6.069   5.257   6.093  0.4244 -0.1447 -0.6863
 9371TIP3    H149528   6.057   5.329   6.154  0.8442  0.4683 -1.3189
 9371TIP3    H249529   6.086   5.181   6.148 -0.5540  0.1206  0.0102
 9372TIP3   OH249530   3.276   5.359   5.005 -0.1763  0.2467 -0.5049
 9372TIP3    H149531   3.224   5.420   4.952  0.2153  0.6715 -0.4076
 9372TIP3    H249532   3.225   5.348   5.085 -0.0501  0.7750 -0.3481
 9373TIP3   OH249533   3.400   0.185  10.874  0.8587  0.1035  0.1306
 9373TIP3    H149534   3.312   0.198  10.907  1.1858  1.2198  0.5831
 9373TIP3    H249535   3.405   0.090  10.858 -0.3780  0.0116  0.1721
 9374TIP3   OH249536   0.783   5.929   5.032 -0.1578 -0.1452  0.2179
 9374TIP3    H149537   0.876   5.949   5.050  0.2032  0.1336 -1.7227
 9374TIP3    H249538   0.781   5.835   5.020 -0.2122 -0.2065  0.7004
 9375TIP3   OH249539   6.700   1.564  17.378  0.5301  0.0102 -0.2870
 9375TIP3    H149540   6.676   1.472  17.364  0.2483  0.1926 -1.0889
 9375TIP3    H249541   6.702   1.601  17.290 -1.5997  1.3191  0.1511
 9376TIP3   OH249542   0.369   3.313  11.401 -0.5423  0.4207  0.4217
 9376TIP3    H149543   0.273   3.303  11.403 -0.5979  0.0758 -1.8002
 9376TIP3    H249544   0.387   3.376  11.470 -2.1519 -0.9475  2.2239
 9377TIP3   OH249545   3.771   0.755  13.287 -0.5852 -0.3419 -0.3824
 9377TIP3    H149546   3.832   0.685  13.309 -0.8763 -0.3757  0.3660
 9377TIP3    H249547   3.773   0.813  13.364  0.6743  1.2221 -1.5331
 9378TIP3   OH249548   4.635   0.966   6.110  0.2428  0.1347 -0.2381
 9378TIP3    H149549   4.658   0.875   6.092  1.1924  0.6719 -1.9517
 9378TIP3    H249550   4.688   1.017   6.049  0.3969  1.9130  1.2746
 9379TIP3   OH249551   6.623   1.182  13.304 -0.4413  0.3223 -0.5706
 9379TIP3    H149552   6.592   1.173  13.214 -0.9426 -0.1953 -0.3506
 9379TIP3    H249553   6.597   1.101  13.347  2.1830 -0.6426 -0.6389
 9380TIP3   OH249554   5.115   5.455   4.622  0.3191  0.1342 -0.2340
 9380TIP3    H149555   5.032   5.460   4.669  0.3367  0.4915 -0.2357
 9380TIP3    H249556   5.092   5.477   4.531  0.0168 -2.0280 -0.7371
 9381TIP3   OH249557   0.924   5.152   2.694  0.9661  0.0227 -0.0497
 9381TIP3    H149558   0.857   5.212   2.662 -0.6496 -0.8940  1.4296
 9381TIP3    H249559   0.910   5.072   2.644  1.3359  0.0015 -0.1226
 9382TIP3   OH249560   3.767   2.304   1.283  0.0166  0.5287 -0.5078
 9382TIP3    H149561   3.695   2.350   1.238  0.6140  0.8077 -1.2141
 9382TIP3    H249562   3.845   2.357   1.262  0.7208 -0.7755 -1.3103
 9383TIP3   OH249563   4.742   6.689  16.594 -0.1866  0.8009 -0.2918
 9383TIP3    H149564   4.692   6.712  16.673  0.5829  0.7332  0.2258
 9383TIP3    H249565   4.695   6.732  16.523 -0.9850  0.7413  0.1771
 9384TIP3   OH249566   5.653   3.829  10.784  0.0526 -0.2342  0.0936
 9384TIP3    H149567   5.698   3.913  10.777  0.3060 -0.4707 -1.6412
 9384TIP3    H249568   5.723   3.765  10.794  0.1217 -0.5252 -1.8333
 9385TIP3   OH249569   3.502   1.470  11.966 -0.4780 -0.6379  0.4041
 9385TIP3    H149570   3.448   1.394  11.989  1.5195 -1.8580  1.3442
 9385TIP3    H249571   3.539   1.499  12.049 -0.7914  1.0880 -0.0245
 9386TIP3   OH249572   4.994   5.436  14.480 -0.0908  0.0903  0.1307
 9386TIP3    H149573   4.985   5.504  14.414 -1.8159 -1.4273 -1.3076
 9386TIP3    H249574   5.002   5.483  14.563  1.6613  2.0435 -1.0461
 9387TIP3   OH249575   1.110   3.410   1.359  0.2000  0.4155  0.5075
 9387TIP3    H149576   1.118   3.452   1.444 -0.8242 -1.1218  1.4144
 9387TIP3    H249577   1.052   3.335   1.374  1.1540 -0.7517 -1.2293
 9388TIP3   OH249578   4.065   3.766   1.918  0.4142 -0.0368 -0.1447
 9388TIP3    H149579   4.143   3.723   1.954  1.5505 -0.1806 -2.5961
 9388TIP3    H249580   4.037   3.709   1.847 -2.1761 -0.1337  0.8581
 9389TIP3   OH249581   6.752   2.328  12.602  0.0358 -0.2942 -0.6193
 9389TIP3    H149582   6.663   2.304  12.626 -0.6674  3.6144  1.5271
 9389TIP3    H249583   6.745   2.362  12.513 -1.0111  1.3090  0.0323
 9390TIP3   OH249584   5.691   4.992   3.975 -0.1679  0.2127  0.3908
 9390TIP3    H149585   5.677   4.924   3.910  1.9800  0.5520 -0.5074
 9390TIP3    H249586   5.654   4.956   4.056  1.5374 -2.4020  0.1304
 9391TIP3   OH249587   4.485   0.287  15.799  0.3165 -0.3940  0.1159
 9391TIP3    H149588   4.413   0.345  15.822  0.5286  0.0758 -0.3911
 9391TIP3    H249589   4.538   0.337  15.737  1.1368 -0.6891  0.5612
 9392TIP3   OH249590   2.045   5.249   3.631 -0.0436  0.0530 -0.2713
 9392TIP3    H149591   2.066   5.180   3.694  1.6116 -0.1272 -0.9611
 9392TIP3    H249592   2.021   5.202   3.551 -0.9178  0.2909 -0.1658
 9393TIP3   OH249593   5.463   0.059  12.107  0.3814  0.2317 -0.3521
 9393TIP3    H149594   5.505   0.012  12.035  0.1009  1.4461 -1.3411
 9393TIP3    H249595   5.376   0.019  12.115  0.6797 -0.3906 -0.1955
 9394TIP3   OH249596   4.137   0.267   0.545  0.1635  0.0779 -0.3668
 9394TIP3    H149597   4.136   0.264   0.640  0.8117 -0.7110 -0.3739
 9394TIP3    H249598   4.046   0.288   0.520 -1.1345 -3.8206  0.3309
 9395TIP3   OH249599   4.756   5.016  14.932  0.2056  0.4147 -0.5143
 9395TIP3    H149600   4.791   5.000  14.844  2.5708  1.8251  0.0923
 9395TIP3    H249601   4.730   5.108  14.930 -0.4651  0.2401  0.0514
 9396TIP3   OH249602   1.016   3.386   0.566  0.3993  0.5713 -0.0125
 9396TIP3    H149603   1.010   3.435   0.647  0.8671  0.0711  0.3287
 9396TIP3    H249604   0.925   3.365   0.543  0.1836  1.7173 -0.2497
 9397TIP3   OH249605   1.031   0.463  16.282 -0.4448 -0.2936 -0.3507
 9397TIP3    H149606   0.945   0.501  16.303 -0.8144 -1.2523 -0.0735
 9397TIP3    H249607   1.093   0.513  16.335 -0.9662 -0.3156  0.2871
 9398TIP3   OH249608   4.136   6.284   3.055 -0.3435  0.5954 -0.4593
 9398TIP3    H149609   4.102   6.195   3.064 -1.1773  1.0272  1.0475
 9398TIP3    H249610   4.213   6.286   3.112  0.4645  0.4932 -1.5102
 9399TIP3   OH249611   3.325   2.193  15.229  0.4432  0.4352 -0.1383
 9399TIP3    H149612   3.273   2.240  15.165 -0.3812  1.2262  1.0678
 9399TIP3    H249613   3.267   2.184  15.305  1.2611 -0.7800  0.3774
 9400TIP3   OH249614   4.874   5.647  12.887 -0.1401 -0.3906 -0.4478
 9400TIP3    H149615   4.821   5.672  12.963 -1.2390 -0.9831 -1.0000
 9400TIP3    H249616   4.828   5.573  12.849 -0.9134  1.2888 -3.0429
 9401TIP3   OH249617   3.276   1.034   3.606 -0.0240 -0.5926  0.2391
 9401TIP3    H149618   3.198   1.031   3.661  0.2057 -1.5762  0.5275
 9401TIP3    H249619   3.250   1.085   3.529 -1.2071 -1.6017 -0.0565
 9402TIP3   OH249620   3.824   1.898  11.813  0.2259 -0.3617 -0.6490
 9402TIP3    H149621   3.828   1.855  11.898 -0.2900 -0.1903 -0.5374
 9402TIP3    H249622   3.886   1.848  11.758 -0.5919 -1.4527 -0.6185
 9403TIP3   OH249623   2.028   3.771  12.047  0.4238 -0.4893  0.2869
 9403TIP3    H149624   1.988   3.842  12.098  0.3317  0.3310 -0.8875
 9403TIP3    H249625   2.099   3.739  12.102  0.8785  0.9569  0.5831
 9404TIP3   OH249626   0.080   4.549   3.052  0.8048  0.0222 -0.7748
 9404TIP3    H149627   0.093   4.567   3.146  0.0854  0.1380 -0.6952
 9404TIP3    H249628   0.014   4.479   3.050 -1.0183  1.6802 -1.2424
 9405TIP3   OH249629   2.851   1.440  15.060  0.5155  0.5602  0.4024
 9405TIP3    H149630   2.879   1.444  15.151 -0.2561  3.4302  0.6155
 9405TIP3    H249631   2.932   1.423  15.011  1.1599  0.3262  1.5072
 9406TIP3   OH249632   5.382   3.308   3.677  0.7055 -0.2267 -0.8056
 9406TIP3    H149633   5.348   3.248   3.742 -2.7794  1.0484 -1.2679
 9406TIP3    H249634   5.425   3.252   3.612  0.5408 -1.8530  0.4318
 9407TIP3   OH249635   3.283   6.273   2.998 -0.6447 -0.5070 -0.3856
 9407TIP3    H149636   3.205   6.222   3.019 -0.8226  0.9058  2.9977
 9407TIP3    H249637   3.255   6.364   3.009  0.5284  0.2650 -2.9837
 9408TIP3   OH249638   6.037   6.211   2.458 -0.1494  0.4650 -0.0316
 9408TIP3    H149639   5.991   6.227   2.541 -0.3106  0.2346 -0.0752
 9408TIP3    H249640   5.970   6.178   2.399 -0.4482  2.4425 -0.8572
 9409TIP3   OH249641   2.414   2.451  10.627  0.1204  0.0955 -0.4975
 9409TIP3    H149642   2.342   2.462  10.565 -0.8681 -0.3551  0.5358
 9409TIP3    H249643   2.490   2.428  10.572  0.2349  3.2819 -1.9083
 9410TIP3   OH249644   3.027   4.753  17.304 -1.0366 -0.6514  0.2739
 9410TIP3    H149645   3.094   4.781  17.242 -0.5769  1.7809  1.7796
 9410TIP3    H249646   3.074   4.706  17.372 -0.3777  2.7807  2.4026
 9411TIP3   OH249647   4.681   4.515  11.234  0.6921 -0.1790 -0.3187
 9411TIP3    H149648   4.772   4.499  11.259  0.4057 -0.2158  0.7321
 9411TIP3    H249649   4.683   4.522  11.138  1.8153 -0.0552 -0.2929
 9412TIP3   OH249650   4.879   5.901  16.430  0.2711  0.2876  0.2265
 9412TIP3    H149651   4.918   5.814  16.419 -0.1957 -0.1089  1.5235
 9412TIP3    H249652   4.797   5.886  16.476 -0.4321  1.3194 -0.6240
 9413TIP3   OH249653   0.367   0.573   2.347 -0.1674 -0.0664  0.0002
 9413TIP3    H149654   0.351   0.568   2.441 -2.6113  0.6267 -0.3151
 9413TIP3    H249655   0.328   0.494   2.311 -1.4805  0.8331 -0.6446
 9414TIP3   OH249656   0.630   0.172   1.788 -0.5254 -0.1116  0.2719
 9414TIP3    H149657   0.696   0.179   1.858 -0.0793 -1.5159  0.0103
 9414TIP3    H249658   0.646   0.087   1.748 -1.3814  0.2790 -0.9525
 9415TIP3   OH249659   4.355   1.268  11.527  0.4129 -0.2222 -0.6193
 9415TIP3    H149660   4.324   1.344  11.477  0.7950 -0.6464 -1.5211
 9415TIP3    H249661   4.275   1.217  11.542 -0.2637  1.4158  1.9712
 9416TIP3   OH249662   0.840   2.721   3.970  0.0355 -0.1543  0.3225
 9416TIP3    H149663   0.826   2.664   3.894 -0.8190  0.1596  0.2383
 9416TIP3    H249664   0.851   2.661   4.044  3.7294 -0.6154 -0.4104
 9417TIP3   OH249665   6.240   6.286  14.853 -0.3060  0.4909 -0.5701
 9417TIP3    H149666   6.185   6.358  14.822 -0.3286  1.2954  1.2230
 9417TIP3    H249667   6.319   6.329  14.886 -0.0428 -0.3514 -0.0807
 9418TIP3   OH249668   3.627   5.962   5.383  0.5969  0.2022 -0.0780
 9418TIP3    H149669   3.560   5.899   5.412  0.5929 -1.4187 -3.2063
 9418TIP3    H249670   3.579   6.044   5.374 -1.0082 -0.8252 -1.8360
 9419TIP3   OH249671   3.459   2.574   4.061  0.1118 -0.2024 -0.1010
 9419TIP3    H149672   3.510   2.654   4.047 -1.5169  0.7486 -0.8685
 9419TIP3    H249673   3.389   2.601   4.121  0.4732 -1.4867  0.9446
 9420TIP3   OH249674   5.431   3.174  16.611  0.0647  0.2509  0.1096
 9420TIP3    H149675   5.432   3.113  16.685 -0.9297 -0.3027 -0.3131
 9420TIP3    H249676   5.412   3.260  16.651  0.5908  0.1365  0.6114
 9421TIP3   OH249677   6.024   4.310  15.108  0.4405 -0.1793 -0.3409
 9421TIP3    H149678   5.971   4.353  15.041  2.2984 -0.2995 -1.9670
 9421TIP3    H249679   6.096   4.370  15.125 -0.7340  0.5528  2.7590
 9422TIP3   OH249680   5.326   5.243  12.227  0.0071  0.3366 -0.1635
 9422TIP3    H149681   5.349   5.241  12.320  1.6708  1.2879 -0.5108
 9422TIP3    H249682   5.295   5.333  12.213  0.5273  0.4383 -0.6790
 9423TIP3   OH249683   0.107   4.546   3.340  0.4391 -0.1305  0.0143
 9423TIP3    H149684   0.078   4.455   3.336  0.5268 -0.1211 -1.2749
 9423TIP3    H249685   0.196   4.542   3.375  1.0549 -0.7043 -1.5517
 9424TIP3   OH249686   2.383   5.171  12.578  0.3643  0.5258  0.0116
 9424TIP3    H149687   2.380   5.076  12.565  1.4042  0.2690  1.4722
 9424TIP3    H249688   2.293   5.199  12.566  0.2142 -0.4848 -1.5051
 9425TIP3   OH249689   5.016   3.003  12.673 -0.0654 -0.2843  0.4101
 9425TIP3    H149690   4.923   3.024  12.665  0.1872  1.7194  1.9295
 9425TIP3    H249691   5.020   2.908  12.663 -2.1986 -0.3667 -0.1595
 9426TIP3   OH249692   5.803   2.288  14.558  0.4106  1.0354  0.2163
 9426TIP3    H149693   5.841   2.269  14.644 -0.2979  0.2340  0.3718
 9426TIP3    H249694   5.876   2.282  14.497  0.7453  0.6577  0.6479
 9427TIP3   OH249695   6.340   6.240  12.826  0.1519  0.5709 -0.6226
 9427TIP3    H149696   6.412   6.281  12.777 -1.0765 -0.6660 -3.7059
 9427TIP3    H249697   6.361   6.146  12.825  0.9084  0.5593  2.8615
 9428TIP3   OH249698   3.430   0.381   0.938  0.0243  0.2236 -0.0095
 9428TIP3    H149699   3.525   0.383   0.949  0.6917 -3.6620 -2.9241
 9428TIP3    H249700   3.400   0.317   1.002 -0.7832  1.6548  1.1118
 9429TIP3   OH249701   2.911   0.059   0.734 -0.4151 -0.4433 -0.0978
 9429TIP3    H149702   2.912   0.148   0.768 -0.2537 -1.2537  2.2308
 9429TIP3    H249703   2.840   0.058   0.669 -1.7407  0.8982  1.2696
 9430TIP3   OH249704   4.824   3.475  16.699 -0.6949  0.2160 -0.1668
 9430TIP3    H149705   4.866   3.403  16.652 -1.4294 -1.1842  1.2137
 9430TIP3    H249706   4.734   3.475  16.666 -0.6274  0.7075 -0.3643
 9431TIP3   OH249707   5.381   1.290  17.124 -0.0118  0.2361 -0.5873
 9431TIP3    H149708   5.382   1.383  17.143  0.7053  0.0405  0.3760
 9431TIP3    H249709   5.308   1.255  17.175  0.8464 -0.0107  0.4981
 9432TIP3   OH249710   0.456   1.270  12.788 -0.6669  0.3079  0.1599
 9432TIP3    H149711   0.524   1.314  12.840  0.3196  0.5177 -1.2653
 9432TIP3    H249712   0.446   1.185  12.830  0.4162  0.3063  0.4480
 9433TIP3   OH249713   2.968   3.995   2.544  0.0417 -0.3127  0.0718
 9433TIP3    H149714   2.985   4.082   2.508 -0.2653 -0.5286 -0.6122
 9433TIP3    H249715   3.022   3.991   2.623 -2.4390  1.7758  2.0587
 9434TIP3   OH249716   1.630   6.047  12.011 -0.2151 -0.4014 -0.6614
 9434TIP3    H149717   1.705   6.096  12.047 -0.3870 -1.1514  0.7784
 9434TIP3    H249718   1.658   6.024  11.922  1.1311 -0.3571 -0.2825
 9435TIP3   OH249719   3.590   4.127  14.541 -0.3359  0.2752  0.1881
 9435TIP3    H149720   3.642   4.204  14.563  2.0359 -1.3880  0.7878
 9435TIP3    H249721   3.615   4.106  14.451  0.4316 -0.7586  0.6080
 9436TIP3   OH249722   1.256   2.428   2.780  0.3583  0.1746 -0.4018
 9436TIP3    H149723   1.164   2.448   2.797 -0.2017 -1.9385 -0.6287
 9436TIP3    H249724   1.303   2.467   2.854 -0.7374  0.9872 -0.1011
 9437TIP3   OH249725   4.498   4.825   3.733 -0.5214 -0.0993  0.3540
 9437TIP3    H149726   4.456   4.739   3.741  0.6498 -0.6511  0.7555
 9437TIP3    H249727   4.495   4.861   3.822  0.4767 -0.4561  0.5449
 9438TIP3   OH249728   6.529   4.068  11.849 -0.0609  0.2385 -1.1797
 9438TIP3    H149729   6.584   4.008  11.799 -1.3045 -1.6141 -0.3882
 9438TIP3    H249730   6.588   4.142  11.869  1.3911 -0.4886 -2.4943
 9439TIP3   OH249731   1.088   5.711   3.203  0.1458  0.1618  0.4270
 9439TIP3    H149732   1.086   5.644   3.134 -0.6733  0.4691  0.1369
 9439TIP3    H249733   1.011   5.693   3.256 -0.1273  0.9157  0.3010
 9440TIP3   OH249734   5.870   4.456   1.816  0.0342  0.6070 -0.1019
 9440TIP3    H149735   5.835   4.483   1.731  1.1350  0.1477 -0.7222
 9440TIP3    H249736   5.946   4.401   1.794  0.9378  1.2977  1.1806
 9441TIP3   OH249737   2.570   1.542   4.571  0.5441  0.3980  0.0055
 9441TIP3    H149738   2.526   1.616   4.613 -0.6060 -1.0545  1.4675
 9441TIP3    H249739   2.536   1.542   4.481 -0.4778  0.8544  0.3813
 9442TIP3   OH249740   4.851   1.853   4.932  0.1211 -0.1627 -0.3710
 9442TIP3    H149741   4.894   1.935   4.909  1.6922 -1.0559 -0.7419
 9442TIP3    H249742   4.855   1.851   5.028  1.3438 -0.4196 -0.4037
 9443TIP3   OH249743   5.069   5.198   2.933  0.0710  0.7026  0.2502
 9443TIP3    H149744   5.133   5.259   2.971 -0.1113  0.0383  1.7003
 9443TIP3    H249745   5.081   5.206   2.839 -1.0019  4.1177  0.2751
 9444TIP3   OH249746   4.197   5.066   2.190 -0.5486 -0.0450  0.7944
 9444TIP3    H149747   4.213   5.026   2.105  0.3338  0.1875  0.8461
 9444TIP3    H249748   4.170   4.992   2.246 -0.1352 -0.3667  0.5740
 9445TIP3   OH249749   2.310   4.404   2.430 -0.6565 -0.6391 -0.5020
 9445TIP3    H149750   2.305   4.316   2.467 -1.0858 -0.0306  0.9939
 9445TIP3    H249751   2.351   4.456   2.499 -0.7907  0.4148 -1.1954
 9446TIP3   OH249752   0.811   0.748  15.379 -0.3642  0.3112  0.8736
 9446TIP3    H149753   0.836   0.837  15.357  0.2295  0.1687  0.9305
 9446TIP3    H249754   0.821   0.743  15.474  1.7743 -0.4259  0.6632
 9447TIP3   OH249755   2.551   4.530  16.687 -0.0405 -0.4004  0.2563
 9447TIP3    H149756   2.507   4.590  16.748 -0.1177 -0.1764 -0.0179
 9447TIP3    H249757   2.628   4.500  16.735  0.8074  1.0530 -0.1319
 9448TIP3   OH249758   0.683   1.485  13.180  0.1403 -0.5031  0.4773
 9448TIP3    H149759   0.603   1.530  13.205  0.2477  0.2252 -0.4150
 9448TIP3    H249760   0.753   1.536  13.222  0.1581 -1.0180  1.0884
 9449TIP3   OH249761   2.532   5.250   2.368  0.0418  0.2603 -0.0288
 9449TIP3    H149762   2.462   5.309   2.396 -0.2835  0.5982 -1.4800
 9449TIP3    H249763   2.493   5.163   2.370 -0.2578  0.3861 -0.2886
 9450TIP3   OH249764   5.442   6.692   4.052 -0.2946  0.2111  0.1379
 9450TIP3    H149765   5.390   6.615   4.028 -0.8642  0.6705 -0.1166
 9450TIP3    H249766   5.488   6.716   3.972  1.7953 -1.2882  0.7915
 9451TIP3   OH249767   6.457   5.710   2.152  0.2435  0.5170 -0.3850
 9451TIP3    H149768   6.394   5.779   2.175  0.2989  0.6188 -0.5347
 9451TIP3    H249769   6.403   5.633   2.135 -0.0009  1.0383 -2.2044
 9452TIP3   OH249770   3.391   5.845  13.386 -0.5640  0.0833 -0.4048
 9452TIP3    H149771   3.381   5.750  13.388  1.3428 -0.1422  1.1465
 9452TIP3    H249772   3.404   5.866  13.294  1.7039 -1.5313 -0.5223
 9453TIP3   OH249773   0.297   1.968  16.610  0.0553  0.0465 -0.0626
 9453TIP3    H149774   0.344   1.937  16.533  0.6025 -0.7616  0.5756
 9453TIP3    H249775   0.277   1.889  16.660 -0.1577  0.5613  0.6956
 9454TIP3   OH249776   5.665   2.962  17.014 -0.5732  0.2685  0.3448
 9454TIP3    H149777   5.698   3.035  17.066 -1.5702  1.7396 -0.9911
 9454TIP3    H249778   5.700   2.977  16.926 -0.5361 -1.0520  0.1106
 9455TIP3   OH249779   3.082   1.171  15.974  0.0656 -0.0383  0.4082
 9455TIP3    H149780   3.131   1.092  15.951  0.0637 -0.2379  1.0658
 9455TIP3    H249781   3.100   1.185  16.067  0.6810  1.1740  0.1316
 9456TIP3   OH249782   5.485   3.130  11.420  0.1162  0.7397 -0.1868
 9456TIP3    H149783   5.469   3.108  11.328 -1.1166 -0.3435  0.2607
 9456TIP3    H249784   5.579   3.117  11.432  0.5618  2.2462 -1.6214
 9457TIP3   OH249785   3.028   5.703  15.049 -0.3931 -0.4175 -0.3204
 9457TIP3    H149786   3.031   5.708  15.145 -0.1643  1.2487 -0.3767
 9457TIP3    H249787   3.114   5.667  15.025  0.6183  1.5766  0.0433
 9458TIP3   OH249788   2.777   2.891   6.618  0.1662  0.0279  0.0546
 9458TIP3    H149789   2.729   2.960   6.664  1.8360  1.6367 -0.4843
 9458TIP3    H249790   2.742   2.810   6.654 -3.2858  1.0042 -0.6553
 9459TIP3   OH249791   4.826   0.052   4.747  0.3688  0.2597  0.2467
 9459TIP3    H149792   4.737   0.048   4.712  1.0189  0.8590 -1.5921
 9459TIP3    H249793   4.834   0.140   4.782  0.2585  0.2299  0.3467
 9460TIP3   OH249794   3.594   4.254  11.854  0.2346 -0.0236  0.2171
 9460TIP3    H149795   3.543   4.326  11.890  0.5422  0.4369 -0.2660
 9460TIP3    H249796   3.671   4.248  11.911  0.4111  0.2964  0.0123
 9461TIP3   OH249797   2.546   4.327   1.763 -0.1393  0.7012  0.0795
 9461TIP3    H149798   2.635   4.310   1.730  0.8202  0.6559  2.4826
 9461TIP3    H249799   2.509   4.389   1.700  0.6399 -1.1432 -2.3610
 9462TIP3   OH249800   1.253   5.049  10.636 -0.2887 -0.2147  0.1763
 9462TIP3    H149801   1.243   5.038  10.731 -0.6469  0.6003  0.2408
 9462TIP3    H249802   1.173   5.095  10.609 -0.1873 -0.4356 -0.5251
 9463TIP3   OH249803   0.652   5.013   0.537 -0.9328 -0.1117  0.0815
 9463TIP3    H149804   0.570   5.031   0.584 -0.5891  0.8006  0.3445
 9463TIP3    H249805   0.624   4.986   0.449 -1.5055  3.4003 -0.9629
 9464TIP3   OH249806   1.449   6.116   6.879  0.0642  0.2827 -1.3273
 9464TIP3    H149807   1.431   6.027   6.909  1.2785  0.7246  0.9463
 9464TIP3    H249808   1.364   6.159   6.881 -0.4014 -0.6028 -1.6238
 9465TIP3   OH249809   3.256   2.985  17.209 -0.0203 -0.0023 -0.1699
 9465TIP3    H149810   3.333   3.034  17.180  0.3058 -0.1260  0.4464
 9465TIP3    H249811   3.187   3.050  17.218 -1.0059 -0.3022 -3.8576
 9466TIP3   OH249812   1.269   3.009  15.516  0.8448  0.2998 -0.1469
 9466TIP3    H149813   1.362   3.020  15.536  0.8198 -0.7568  0.6485
 9466TIP3    H249814   1.268   2.958  15.435  0.9338  2.3023 -1.4835
 9467TIP3   OH249815   4.340   1.570  12.112 -0.3748  0.2957 -0.1374
 9467TIP3    H149816   4.359   1.520  12.192  2.2688 -1.9050 -1.9642
 9467TIP3    H249817   4.299   1.506  12.054 -0.0883  1.2087 -1.3734
 9468TIP3   OH249818   3.016   0.477   1.925  0.1797 -0.1918  0.5050
 9468TIP3    H149819   2.965   0.445   1.850  2.4056  1.1667 -1.7382
 9468TIP3    H249820   2.977   0.562   1.946  0.5542  0.1612 -0.2028
 9469TIP3   OH249821   4.276   4.095   3.566  0.4303  0.1212  0.1781
 9469TIP3    H149822   4.201   4.075   3.510  0.5195 -0.4696  0.2699
 9469TIP3    H249823   4.243   4.082   3.655  0.1366  1.5511  0.3064
 9470TIP3   OH249824   5.310   0.412   3.211  0.0416 -0.5553  0.4375
 9470TIP3    H149825   5.256   0.420   3.289 -0.0857  1.0437  0.2105
 9470TIP3    H249826   5.286   0.487   3.157  0.0958 -1.6425 -1.1715
 9471TIP3   OH249827   2.045   2.951   5.196  0.5223 -0.6286  0.5171
 9471TIP3    H149828   2.077   3.009   5.127 -0.7888 -1.1585 -0.5912
 9471TIP3    H249829   2.070   2.994   5.278  0.4796  0.9618 -0.2808
 9472TIP3   OH249830   5.304   3.935  16.110 -0.8823  0.6226  0.3717
 9472TIP3    H149831   5.274   4.022  16.083 -0.1561  0.5998 -0.5363
 9472TIP3    H249832   5.319   3.889  16.028 -1.2013 -0.3444  0.8510
 9473TIP3   OH249833   3.668   3.605  10.914  0.2640 -0.1054  0.4472
 9473TIP3    H149834   3.701   3.670  10.853 -1.3559  0.9526  0.6293
 9473TIP3    H249835   3.628   3.538  10.859  0.5700 -0.1581  0.2909
 9474TIP3   OH249836   1.856   0.230   1.907  0.1844  0.6203 -0.4075
 9474TIP3    H149837   1.951   0.246   1.911  0.2350  0.1653  0.3571
 9474TIP3    H249838   1.834   0.195   1.993 -0.4297 -0.6748 -1.0677
 9475TIP3   OH249839   5.326   6.349   1.715  0.4616  0.1639  0.1036
 9475TIP3    H149840   5.272   6.427   1.712 -1.3086 -1.0300 -2.0174
 9475TIP3    H249841   5.411   6.379   1.747 -0.0044  3.0281 -1.1084
 9476TIP3   OH249842   4.280   3.832   6.431 -0.2625 -0.3299  0.2392
 9476TIP3    H149843   4.340   3.892   6.386 -0.0822 -0.8664 -0.2486
 9476TIP3    H249844   4.224   3.889   6.483 -0.1081  0.2694 -0.2336
 9477TIP3   OH249845   5.914   0.379   4.944  0.2083 -0.3309  0.5247
 9477TIP3    H149846   5.822   0.381   4.916  0.6262 -0.0052 -0.8730
 9477TIP3    H249847   5.925   0.292   4.981 -0.9067 -0.0449  1.6106
 9478TIP3   OH249848   4.104   6.245   5.014  0.6321  0.4945  0.5676
 9478TIP3    H149849   4.163   6.202   5.076  1.9209  0.1111 -0.8851
 9478TIP3    H249850   4.077   6.325   5.059  1.3456  0.1131  1.7128
 9479TIP3   OH249851   3.957   0.050  17.330  0.3590  0.5396 -0.9742
 9479TIP3    H149852   3.947  -0.044  17.320 -1.7752  0.7387 -1.1947
 9479TIP3    H249853   4.038   0.071  17.284 -0.1953 -0.9247 -2.7010
 9480TIP3   OH249854   5.419   2.252   1.545 -0.9567  1.4163 -0.2673
 9480TIP3    H149855   5.368   2.171   1.547 -0.0733  0.8418 -0.2914
 9480TIP3    H249856   5.365   2.313   1.494 -1.1159  0.4738 -1.2666
 9481TIP3   OH249857   4.996   0.840  14.508 -0.2458 -0.0782  0.1796
 9481TIP3    H149858   4.974   0.762  14.458 -1.0102  1.2653 -1.6917
 9481TIP3    H249859   4.921   0.852  14.567  1.2767 -2.4512  2.8377
 9482TIP3   OH249860   3.310   1.158   2.842 -0.0067 -0.0574  0.1914
 9482TIP3    H149861   3.347   1.186   2.758 -1.2040  0.5815 -0.1529
 9482TIP3    H249862   3.271   1.238   2.878  0.3734 -0.3571  1.2995
 9483TIP3   OH249863   3.719   1.962  11.187  0.7824 -0.6916  0.0646
 9483TIP3    H149864   3.662   1.884  11.186 -1.4765  0.8306 -2.1869
 9483TIP3    H249865   3.749   1.971  11.097 -0.1668  1.7510 -0.0874
 9484TIP3   OH249866   5.381   4.168  15.190 -0.3625 -0.6377 -0.2455
 9484TIP3    H149867   5.289   4.192  15.199 -0.5994 -1.3409 -0.7085
 9484TIP3    H249868   5.427   4.226  15.250 -0.7840  1.7882 -2.1104
 9485TIP3   OH249869   0.523   6.120  15.679  0.2818 -0.0205  0.3246
 9485TIP3    H149870   0.604   6.113  15.731 -0.9426 -1.4300  2.1545
 9485TIP3    H249871   0.500   6.213  15.685  1.8871  0.4838 -0.5033
 9486TIP3   OH249872   6.259   3.150  11.765 -0.0543  0.1343 -0.3067
 9486TIP3    H149873   6.252   3.059  11.794  0.8991  0.2714  0.3765
 9486TIP3    H249874   6.198   3.198  11.821 -1.1189 -0.1611 -1.1534
 9487TIP3   OH249875   1.700   6.544  14.040  0.0599 -0.3482  0.0228
 9487TIP3    H149876   1.666   6.455  14.045 -3.1738  0.7634  0.4217
 9487TIP3    H249877   1.770   6.540  13.975  0.6715 -3.3088  0.7383
 9488TIP3   OH249878   0.789   2.024   2.769  0.5669 -1.0167 -0.1198
 9488TIP3    H149879   0.789   1.986   2.681 -0.3479 -1.1698 -0.0656
 9488TIP3    H249880   0.726   2.096   2.765  0.5587 -0.9872  0.3889
 9489TIP3   OH249881   1.391   0.238   4.006  0.0811  0.3325  0.6233
 9489TIP3    H149882   1.354   0.158   4.042  0.2077  0.5773  1.3069
 9489TIP3    H249883   1.342   0.253   3.925  1.6775 -1.7506 -0.8284
 9490TIP3   OH249884   1.430   6.749   4.961 -0.1586  0.2818  0.2485
 9490TIP3    H149885   1.369   6.770   4.891 -1.0730  1.6232  1.3978
 9490TIP3    H249886   1.413   6.657   4.981 -1.1481  0.3805 -0.0887
 9491TIP3   OH249887   0.074   4.127   2.191  0.3018 -0.0371 -0.9123
 9491TIP3    H149888   0.076   4.044   2.142  1.0956 -0.0974 -0.7793
 9491TIP3    H249889   0.083   4.194   2.123  1.5808 -0.1262 -0.8528
 9492TIP3   OH249890   0.518   1.474  15.356 -0.2803 -0.2921 -1.1276
 9492TIP3    H149891   0.464   1.446  15.430  1.4652  1.1060  0.7841
 9492TIP3    H249892   0.599   1.426  15.366  0.5304  0.9999 -1.2466
 9493TIP3   OH249893   6.313   3.234   5.499 -0.4631  0.0088  0.2721
 9493TIP3    H149894   6.398   3.195   5.479  0.0577  0.5044  1.3970
 9493TIP3    H249895   6.252   3.161   5.499 -0.4172 -0.1041 -2.4001
 9494TIP3   OH249896   3.970   4.584  12.399  0.4491  0.3566  0.1506
 9494TIP3    H149897   4.052   4.542  12.423 -0.8887 -2.7569 -0.2257
 9494TIP3    H249898   3.969   4.584  12.303 -0.2486 -0.2433  0.1490
 9495TIP3   OH249899   4.986   1.450  10.460  0.0588 -0.3637 -0.2769
 9495TIP3    H149900   4.940   1.371  10.487 -0.5859  0.6765  1.9691
 9495TIP3    H249901   4.917   1.515  10.448  0.7175  0.5503  0.6699
 9496TIP3   OH249902   0.893   1.791   3.800 -0.5285  0.3877  0.4895
 9496TIP3    H149903   0.863   1.800   3.890  0.2942  0.6649  0.7448
 9496TIP3    H249904   0.918   1.699   3.792  0.5659  0.6265  0.9352
 9497TIP3   OH249905   3.882   0.673   5.196 -0.0507 -0.2004 -0.1511
 9497TIP3    H149906   3.870   0.722   5.115 -0.9554  0.7782  0.5495
 9497TIP3    H249907   3.799   0.628   5.209  0.6780 -1.7541 -0.6445
 9498TIP3   OH249908   5.092   1.001  17.051  0.2516 -0.2409  0.0105
 9498TIP3    H149909   5.042   0.919  17.057 -1.0385  0.3566 -1.8725
 9498TIP3    H249910   5.065   1.040  16.968  0.6359  2.2615  0.9936
 9499TIP3   OH249911   5.709   4.399  11.568 -0.1567 -0.4410  0.4602
 9499TIP3    H149912   5.637   4.358  11.520 -0.3658 -1.0163  1.2417
 9499TIP3    H249913   5.788   4.371  11.521 -0.3765 -0.7120  0.2496
 9500TIP3   OH249914   4.270   6.177  15.835 -0.2475 -0.7304  0.0255
 9500TIP3    H149915   4.194   6.235  15.830 -2.2651 -3.2788 -0.9703
 9500TIP3    H249916   4.278   6.157  15.929 -1.6732 -1.4113  0.0355
 9501TIP3   OH249917   4.171   2.300  16.458 -0.5647  0.6928 -0.1100
 9501TIP3    H149918   4.176   2.205  16.452 -1.2525  0.6833 -0.5449
 9501TIP3    H249919   4.175   2.318  16.552 -2.2468  0.1202  0.0969
 9502TIP3   OH249920   3.283   2.602   0.944 -0.0260 -0.3357 -0.2769
 9502TIP3    H149921   3.329   2.553   0.875 -2.5404 -2.1138 -0.8567
 9502TIP3    H249922   3.240   2.534   0.997 -0.3592  1.1150  1.4155
 9503TIP3   OH249923   4.635   1.554   4.388  0.1005 -0.1176 -0.0466
 9503TIP3    H149924   4.579   1.564   4.465  0.9948 -1.7493  0.8840
 9503TIP3    H249925   4.724   1.568   4.422  0.5365 -1.2385 -0.6752
 9504TIP3   OH249926   4.396   3.406  17.025  0.6800 -0.2575 -0.4261
 9504TIP3    H149927   4.373   3.367  17.109 -1.6998  1.9657  0.0848
 9504TIP3    H249928   4.323   3.385  16.967  1.3367 -0.0650 -1.3510
 9505TIP3   OH249929   5.538   5.283   0.627 -0.1786  0.1673  0.1390
 9505TIP3    H149930   5.491   5.209   0.664 -0.3661  0.0169 -0.3954
 9505TIP3    H249931   5.554   5.341   0.702  1.6091 -1.2508  0.9412
 9506TIP3   OH249932   0.585   6.725   5.600 -0.3780  0.2963 -0.5350
 9506TIP3    H149933   0.668   6.755   5.638  0.2416 -2.0490  0.1775
 9506TIP3    H249934   0.518   6.777   5.644  0.5461 -0.0411  1.3992
 9507TIP3   OH249935   5.819   0.726   3.117 -0.4644 -1.1144  0.3333
 9507TIP3    H149936   5.777   0.807   3.089  0.1930 -0.4556  1.1836
 9507TIP3    H249937   5.774   0.702   3.198  1.2679  0.0815  1.7507
 9508TIP3   OH249938   6.283   4.203  11.821  0.1882  0.5428  0.0353
 9508TIP3    H149939   6.252   4.222  11.909  2.4516  3.2026  0.3956
 9508TIP3    H249940   6.361   4.149  11.834 -0.1124 -0.0060 -0.4087
 9509TIP3   OH249941   0.679   5.295   1.240 -0.3731 -0.4646 -0.0440
 9509TIP3    H149942   0.751   5.353   1.214 -0.1146 -0.7027  0.1317
 9509TIP3    H249943   0.634   5.274   1.159  0.9279 -1.8797 -0.4511
 9510TIP3   OH249944   0.457   1.020  14.757 -0.0205 -0.0268 -0.2203
 9510TIP3    H149945   0.403   1.024  14.678 -0.0625 -0.0254 -0.1912
 9510TIP3    H249946   0.523   0.954  14.737 -0.0239 -0.0182 -0.2609
 9511TIP3   OH249947   3.748   3.098   2.330 -0.6540 -0.1323  0.0400
 9511TIP3    H149948   3.836   3.063   2.343 -0.5457 -0.0943 -0.5705
 9511TIP3    H249949   3.733   3.092   2.235 -1.1775  0.1706  0.0980
 9512TIP3   OH249950   0.090   4.369  14.882 -0.2431  0.3222  0.1432
 9512TIP3    H149951   0.032   4.379  14.805  0.1233 -1.4010 -0.3941
 9512TIP3    H249952   0.032   4.336  14.951 -0.5967  1.9805  0.6848
 9513TIP3   OH249953   5.181   4.901  14.620  0.2802  0.6141 -0.4425
 9513TIP3    H149954   5.123   4.959  14.670  0.3893 -0.2757  0.7632
 9513TIP3    H249955   5.248   4.960  14.584 -1.5830  1.7433 -2.2921
 9514TIP3   OH249956   1.495   5.535  15.605  0.3321  0.3114  0.6069
 9514TIP3    H149957   1.578   5.570  15.572  0.8960  0.7507  2.4228
 9514TIP3    H249958   1.429   5.567  15.543  1.1761  2.2876  0.6826
 9515TIP3   OH249959   3.148   4.991  17.133 -0.2609 -0.4624 -0.2172
 9515TIP3    H149960   3.053   4.995  17.138 -0.1857  2.4668  0.2764
 9515TIP3    H249961   3.171   5.050  17.061  1.1856 -1.6710 -0.8141
 9516TIP3   OH249962   4.288   5.856   1.437  0.1818 -0.2159  0.0331
 9516TIP3    H149963   4.194   5.857   1.458  0.3258  0.3850  0.7092
 9516TIP3    H249964   4.325   5.925   1.493  1.1898 -1.1216  0.5053
 9517TIP3   OH249965   0.744   4.847  15.743 -0.3017  0.6489 -0.4411
 9517TIP3    H149966   0.825   4.898  15.739  0.1953  0.0000  0.7740
 9517TIP3    H249967   0.693   4.888  15.813 -0.1451 -0.1429  0.1556
 9518TIP3   OH249968   1.067   6.027  15.286 -0.1935  0.4675  0.1927
 9518TIP3    H149969   1.016   5.963  15.336  0.4423 -0.4051 -0.2323
 9518TIP3    H249970   1.139   6.051  15.345 -0.4866  0.8661  0.3884
 9519TIP3   OH249971   0.005   1.102  12.186 -0.1965  0.5145  0.5289
 9519TIP3    H149972   0.020   1.063  12.272  0.0247 -0.0141  0.2565
 9519TIP3    H249973   0.028   1.194  12.196  1.1143  0.1858  0.6945
 9520TIP3   OH249974   4.040   3.922  11.835 -0.2171 -0.0483 -0.0038
 9520TIP3    H149975   4.103   3.852  11.849 -0.1387 -0.1877 -1.0128
 9520TIP3    H249976   4.091   4.003  11.847  0.1985 -0.1579 -0.9361
 9521TIP3   OH249977   2.136   0.538  15.703  0.6733 -0.2882 -0.2460
 9521TIP3    H149978   2.182   0.455  15.690 -0.8770 -1.1008 -0.7441
 9521TIP3    H249979   2.100   0.560  15.617 -1.8454 -0.9328  0.5613
 9522TIP3   OH249980   5.071   6.336  13.192  0.0655  0.0290  0.3510
 9522TIP3    H149981   5.162   6.365  13.195  0.3029 -0.6665  0.0308
 9522TIP3    H249982   5.028   6.399  13.134  0.3720  0.2617  0.3727
 9523TIP3   OH249983   4.117   0.405  12.951  0.1843  0.1325  0.5694
 9523TIP3    H149984   4.194   0.453  12.922 -0.1267 -0.6418 -1.6979
 9523TIP3    H249985   4.110   0.332  12.890 -1.8049 -0.3457  1.3106
 9524TIP3   OH249986   1.129   2.621  14.952  0.5314  0.1768 -0.3293
 9524TIP3    H149987   1.194   2.599  14.886  1.8755  2.6066  0.0606
 9524TIP3    H249988   1.046   2.593  14.914  1.4238  0.1663 -2.4133
 9525TIP3   OH249989   2.442   5.361  14.243 -0.0008  0.2966 -0.1764
 9525TIP3    H149990   2.441   5.329  14.333 -1.9675 -1.5618 -0.7732
 9525TIP3    H249991   2.425   5.455  14.251  1.4581  0.4768  1.4194
 9526TIP3   OH249992   4.307   1.412  16.491  0.2920 -0.0563 -0.2724
 9526TIP3    H149993   4.289   1.318  16.483 -0.0688  0.0701 -1.1622
 9526TIP3    H249994   4.261   1.451  16.416 -1.5078  1.1053  1.3424
 9527TIP3   OH249995   3.125   2.372   4.128  0.1359  0.3968 -0.9197
 9527TIP3    H149996   3.086   2.459   4.129 -0.4835  0.1435 -1.6106
 9527TIP3    H249997   3.050   2.312   4.133  0.6398 -0.1221  1.6686
 9528TIP3   OH249998   5.785   5.290   2.959 -0.1189  0.6575 -0.0681
 9528TIP3    H149999   5.851   5.224   2.938 -0.7774 -0.6795  1.7741
 9528TIP3    H250000   5.835   5.368   2.983  0.6900  0.6298 -1.5571
 9529TIP3   OH250001   5.158   2.757  12.644  0.2007  0.5160 -0.2793
 9529TIP3    H150002   5.181   2.709  12.723  2.1801 -0.3694 -1.3141
 9529TIP3    H250003   5.064   2.743  12.633 -0.1285  0.6858  1.8722
 9530TIP3   OH250004   2.904   2.187   5.075 -0.0055  0.2173 -0.4023
 9530TIP3    H150005   2.995   2.213   5.084  0.5185 -1.5470 -0.1044
 9530TIP3    H250006   2.908   2.102   5.031 -1.5279  0.2030 -0.5790
 9531TIP3   OH250007   3.414   1.211   2.596 -0.0355 -0.1676  0.2483
 9531TIP3    H150008   3.481   1.280   2.595 -0.9387  0.7373 -0.0787
 9531TIP3    H250009   3.462   1.131   2.574  0.6586  0.7431 -1.8578
 9532TIP3   OH250010   4.252   3.831   0.687 -0.2592 -0.3427 -0.3816
 9532TIP3    H150011   4.175   3.884   0.665 -0.8120 -0.8219  0.3447
 9532TIP3    H250012   4.266   3.775   0.612 -1.1473 -0.8506 -0.1777
 9533TIP3   OH250013   3.439   1.743  16.347 -0.1582  0.1685 -0.5406
 9533TIP3    H150014   3.344   1.731  16.347  0.0608 -2.0930  0.4729
 9533TIP3    H250015   3.465   1.734  16.439  1.2567 -1.8314 -1.0583
 9534TIP3   OH250016   0.175   4.848   4.145 -0.3225  0.0152 -0.0534
 9534TIP3    H150017   0.257   4.882   4.108 -0.7001  1.2601  0.2167
 9534TIP3    H250018   0.107   4.901   4.105 -0.7355  1.7595  2.6930
 9535TIP3   OH250019   2.190   0.688  13.478  0.0585 -0.1609 -0.7769
 9535TIP3    H150020   2.097   0.666  13.485  0.3976 -1.4903 -0.0052
 9535TIP3    H250021   2.229   0.612  13.437  1.2428 -0.9954  1.6942
 9536TIP3   OH250022   0.549   5.373   4.941 -0.0003 -0.1330 -0.9721
 9536TIP3    H150023   0.598   5.377   5.023 -0.8848  0.3572 -0.4638
 9536TIP3    H250024   0.470   5.324   4.962 -0.2019 -0.0638 -1.5542
 9537TIP3   OH250025   1.463   5.924   4.203 -0.5985  0.1444 -0.1376
 9537TIP3    H150026   1.382   5.929   4.253 -1.0748  1.5343 -0.9983
 9537TIP3    H250027   1.532   5.936   4.267 -1.1652  1.1739  0.2945
 9538TIP3   OH250028   3.597   3.162   0.947  0.1970 -0.3889 -0.0244
 9538TIP3    H150029   3.600   3.104   1.023 -1.9343 -0.4245  0.0933
 9538TIP3    H250030   3.640   3.242   0.977  1.3616 -1.1644  0.4687
 9539TIP3   OH250031   4.467   0.429  12.788  0.2147  0.1888 -0.5437
 9539TIP3    H150032   4.543   0.477  12.756  1.2486 -0.6815  0.4834
 9539TIP3    H250033   4.475   0.342  12.749  1.1764 -0.7062  1.4635
 9540TIP3   OH250034   6.487   0.190   2.065  0.8498  0.4902 -0.5013
 9540TIP3    H150035   6.434   0.135   2.006 -0.2253  1.5888 -0.6022
 9540TIP3    H250036   6.435   0.269   2.077  0.0996 -0.3617  3.3889
 9541TIP3   OH250037   3.324   3.106  14.892  0.0673 -0.4789 -0.4207
 9541TIP3    H150038   3.278   3.098  14.808  0.3314 -0.4305 -0.5705
 9541TIP3    H250039   3.264   3.157  14.947  0.4278  0.5774 -0.9791
 9542TIP3   OH250040   1.745   6.206   0.889 -0.5059  0.1148 -0.1114
 9542TIP3    H150041   1.781   6.120   0.911 -1.9245 -0.1334  1.3467
 9542TIP3    H250042   1.651   6.196   0.898 -0.7909  1.4872 -1.2357
 9543TIP3   OH250043   3.823   0.291  14.780  0.2184 -0.0025  0.3919
 9543TIP3    H150044   3.839   0.295  14.874 -0.9612 -0.1212  0.6179
 9543TIP3    H250045   3.771   0.211  14.769  2.1158 -1.1678 -0.6511
 9544TIP3   OH250046   6.432   5.101  12.266  0.2226  0.0890  0.3172
 9544TIP3    H150047   6.395   5.174  12.216 -1.2879 -1.6374 -1.2443
 9544TIP3    H250048   6.519   5.131  12.291 -0.0869  2.1698 -0.8304
 9545TIP3   OH250049   0.233   4.271   1.573  0.2769 -0.4628 -0.2363
 9545TIP3    H150050   0.250   4.181   1.600 -0.5110 -0.5925 -0.1340
 9545TIP3    H250051   0.141   4.270   1.544 -1.2569  1.2193  3.8420
 9546TIP3   OH250052   5.827   6.050   4.995  0.5228 -0.0492  0.8709
 9546TIP3    H150053   5.871   6.060   4.910  0.4806 -0.1684  0.8359
 9546TIP3    H250054   5.882   6.100   5.056 -0.0522  0.9814  0.5743
 9547TIP3   OH250055   6.250   1.630  16.241  0.0808  0.5395  0.0086
 9547TIP3    H150056   6.243   1.597  16.331  2.1272  1.1275  0.4445
 9547TIP3    H250057   6.182   1.584  16.193  0.2825 -1.3624  1.4260
 9548TIP3   OH250058   4.720   5.187   1.896 -0.9101  0.1723  0.0692
 9548TIP3    H150059   4.688   5.188   1.986 -0.4438 -0.0439  0.2392
 9548TIP3    H250060   4.714   5.278   1.867 -3.0610 -0.0631 -0.4062
 9549TIP3   OH250061   2.701   1.216   0.108 -0.6693  0.0882 -0.1115
 9549TIP3    H150062   2.719   1.289   0.167  0.6935 -1.4958  1.5392
 9549TIP3    H250063   2.610   1.192   0.126 -0.5938  0.3068  0.5668
 9550TIP3   OH250064   2.898   1.736   1.407 -0.1333 -0.0404 -0.1680
 9550TIP3    H150065   2.932   1.662   1.456 -0.8294 -0.1209  0.1991
 9550TIP3    H250066   2.919   1.716   1.315  2.0211  0.5493  0.1275
 9551TIP3   OH250067   1.654   2.943  13.926  0.3377 -0.3545  0.5545
 9551TIP3    H150068   1.744   2.914  13.940  0.3189 -0.6959  0.0053
 9551TIP3    H250069   1.625   2.974  14.011  1.7247  1.8663  0.3204
 9552TIP3   OH250070   4.443   2.185  16.960  0.0526 -0.7499  0.2269
 9552TIP3    H150071   4.403   2.231  17.034 -0.2210 -0.7565  0.0838
 9552TIP3    H250072   4.482   2.254  16.908 -0.7423 -0.6299 -0.2213
 9553TIP3   OH250073   4.797   0.058   3.741  0.0205  0.0565 -0.6043
 9553TIP3    H150074   4.708   0.089   3.723 -0.2310  0.1227  0.6853
 9553TIP3    H250075   4.796   0.033   3.833  2.0161  2.4982  0.1873
 9554TIP3   OH250076   0.998   3.723   2.957  0.5554  0.2413 -0.1623
 9554TIP3    H150077   0.946   3.736   3.036 -0.1442 -2.1509 -0.1511
 9554TIP3    H250078   1.087   3.747   2.982  0.5962 -1.6756  1.8085
 9555TIP3   OH250079   4.929   2.621   6.074  0.1013 -0.0774 -0.3298
 9555TIP3    H150080   4.897   2.697   6.025  0.2741  0.1385 -0.1104
 9555TIP3    H250081   4.992   2.657   6.136  3.1293 -0.7441 -2.7022
 9556TIP3   OH250082   4.045   6.123  17.312  0.1884 -0.4519 -0.2399
 9556TIP3    H150083   4.037   6.159  17.401 -0.6327 -0.1575 -0.4272
 9556TIP3    H250084   4.062   6.030  17.326  1.0266 -0.2448  0.2320
 9557TIP3   OH250085   0.263   5.332  12.037 -0.6092 -0.0627  0.5222
 9557TIP3    H150086   0.233   5.319  11.947 -1.0398 -1.1695  0.8167
 9557TIP3    H250087   0.201   5.396  12.073 -0.6071  0.1723  0.1153
 9558TIP3   OH250088   2.983   6.260  15.839 -0.6101 -0.3142  0.2995
 9558TIP3    H150089   3.017   6.182  15.883 -1.8836 -0.7046  0.6433
 9558TIP3    H250090   3.006   6.333  15.896  1.6509 -0.2497 -0.6081
 9559TIP3   OH250091   2.162   5.830  13.556  0.2766 -0.1857  0.6756
 9559TIP3    H150092   2.113   5.750  13.536 -0.7806  0.3843  0.9189
 9559TIP3    H250093   2.252   5.800  13.566 -0.2887 -1.6004  2.1453
 9560TIP3   OH250094   1.770   0.919   3.008 -0.3656 -0.0339  0.5528
 9560TIP3    H150095   1.755   1.014   3.015 -0.9809  0.1092 -1.7862
 9560TIP3    H250096   1.683   0.881   2.999 -0.0559 -0.6769  0.1817
 9561TIP3   OH250097   1.293   2.484   3.100  0.1550  0.0724 -0.1187
 9561TIP3    H150098   1.334   2.541   3.165  0.9043 -1.3108  0.6559
 9561TIP3    H250099   1.199   2.493   3.115  0.2592  1.1094 -0.0314
 9562TIP3   OH250100   3.014   2.992   1.130 -0.2355  0.2234 -0.4753
 9562TIP3    H150101   3.043   2.910   1.171  0.0629 -0.1923 -1.4761
 9562TIP3    H250102   2.919   2.981   1.120 -0.7483  1.3684  2.3276
 9563TIP3   OH250103   2.060   4.016  11.524 -0.2375  0.5040 -0.3406
 9563TIP3    H150104   1.971   4.007  11.491  0.2616  1.0787 -1.9214
 9563TIP3    H250105   2.050   4.023  11.619 -1.8731  0.6736 -0.5008
 9564TIP3   OH250106   3.904   0.277   2.459  0.5197 -0.3190 -0.2884
 9564TIP3    H150107   3.941   0.355   2.501  3.2054 -1.1764 -0.8587
 9564TIP3    H250108   3.851   0.312   2.387  0.3115  1.0140  0.4797
 9565TIP3   OH250109   5.982   6.342   1.913 -0.1082  0.3093 -0.1828
 9565TIP3    H150110   5.990   6.391   1.831 -0.9965 -0.3465 -0.6761
 9565TIP3    H250111   5.937   6.403   1.972 -0.3338  0.4363 -0.4831
 9566TIP3   OH250112   1.871   5.124   5.656 -0.3570  0.0634  0.2975
 9566TIP3    H150113   1.879   5.030   5.636 -1.3179  0.0880 -0.2779
 9566TIP3    H250114   1.870   5.167   5.570 -0.0434  0.5987  0.5554
 9567TIP3   OH250115   0.318   5.277   2.470 -0.4403 -0.2461  0.2794
 9567TIP3    H150116   0.235   5.324   2.459  0.0457  0.1547 -2.6577
 9567TIP3    H250117   0.298   5.187   2.444 -0.0826 -0.2685  0.0796
 9568TIP3   OH250118   1.354   6.257  14.349  0.5547  0.2858 -0.2187
 9568TIP3    H150119   1.355   6.162  14.362 -0.7866  0.1498 -1.0071
 9568TIP3    H250120   1.446   6.283  14.353  0.8335 -0.8232  1.5384
 9569TIP3   OH250121   5.683   0.214   6.173 -0.2086  0.1701 -0.0372
 9569TIP3    H150122   5.712   0.141   6.118  0.8857  0.8157 -0.3697
 9569TIP3    H250123   5.757   0.230   6.232 -0.4419  0.9662  0.0577
 9570TIP3   OH250124   4.236   2.865  12.858  1.2573 -0.3099  0.2416
 9570TIP3    H150125   4.308   2.895  12.914  2.1809  2.3596 -2.1505
 9570TIP3    H250126   4.278   2.804  12.797  0.9154 -0.8255  0.5194
 9571TIP3   OH250127   4.595   3.050   4.017 -0.6826  0.4057 -0.2903
 9571TIP3    H150128   4.523   3.000   3.978 -0.1871 -0.2073 -0.4459
 9571TIP3    H250129   4.560   3.138   4.028 -1.6931 -0.0490  0.2830
 9572TIP3   OH250130   1.855   4.719  12.657  0.1917 -0.8043  0.4731
 9572TIP3    H150131   1.815   4.650  12.604  0.0512 -0.8766  0.6672
 9572TIP3    H250132   1.781   4.774  12.684  0.4503  0.1111 -0.6611
 9573TIP3   OH250133   0.316   2.973   0.509  0.1558  0.0318 -0.1457
 9573TIP3    H150134   0.262   2.968   0.430 -0.2062 -0.6627  0.1362
 9573TIP3    H250135   0.381   2.904   0.498  0.2767  0.1135  0.0450
 9574TIP3   OH250136   2.166   6.251   5.847 -0.0685 -0.1705 -0.0548
 9574TIP3    H150137   2.237   6.311   5.870  0.9980 -0.7814 -1.6683
 9574TIP3    H250138   2.146   6.270   5.756 -2.4967  0.4618  0.5229
 9575TIP3   OH250139   0.740   3.346   0.616 -0.3353  0.4453 -0.1659
 9575TIP3    H150140   0.658   3.297   0.621 -1.3329  1.9601 -0.6801
 9575TIP3    H250141   0.785   3.327   0.698 -0.1407 -2.1321 -0.7892
 9576TIP3   OH250142   2.641   1.436   2.251 -0.6100 -0.1986 -0.0322
 9576TIP3    H150143   2.609   1.371   2.188 -2.3834  0.7854 -0.2311
 9576TIP3    H250144   2.727   1.462   2.219 -0.1043 -2.0436 -0.2369
 9577TIP3   OH250145   1.785   3.745   2.878  0.2332  0.6103  0.1605
 9577TIP3    H150146   1.727   3.813   2.843 -0.0119  0.6592  0.6662
 9577TIP3    H250147   1.807   3.691   2.801 -0.2921  0.7243 -0.0746
 9578TIP3   OH250148   1.589   0.069  17.038 -0.3603  0.3136  0.3873
 9578TIP3    H150149   1.642  -0.002  17.075  0.3578  2.0128  2.9041
 9578TIP3    H250150   1.505   0.062  17.084 -1.1334 -0.2590 -1.0553
 9579TIP3   OH250151   3.126   4.711   1.522 -0.3211  0.6040  0.2547
 9579TIP3    H150152   3.122   4.793   1.472 -0.4589 -0.0024 -0.7486
 9579TIP3    H250153   3.138   4.740   1.613  0.8522  1.7057 -0.2137
 9580TIP3   OH250154   5.070   0.749   1.134  0.3910  0.3826 -0.0757
 9580TIP3    H150155   5.053   0.822   1.074  0.3124 -0.3989 -1.0299
 9580TIP3    H250156   5.144   0.703   1.095  0.2690 -0.2035  0.3761
 9581TIP3   OH250157   3.810   3.764  11.810 -0.3462  0.0933 -0.0497
 9581TIP3    H150158   3.734   3.804  11.851 -0.0049  0.0816  0.6031
 9581TIP3    H250159   3.872   3.837  11.798 -0.6301  0.1927 -1.0062
 9582TIP3   OH250160   2.747   4.815   4.440 -0.2304 -0.0766  0.4288
 9582TIP3    H150161   2.842   4.806   4.425 -0.4102 -2.2276  0.1752
 9582TIP3    H250162   2.739   4.826   4.535  0.3080  0.9263  0.3649
 9583TIP3   OH250163   5.354   4.565  12.187 -0.5371  0.1446  1.0833
 9583TIP3    H150164   5.303   4.522  12.119  0.4994  0.4848  0.0633
 9583TIP3    H250165   5.412   4.496  12.220  0.7235  0.5692 -0.1555
 9584TIP3   OH250166   5.124   4.225  13.111 -0.3488 -0.5762  0.2607
 9584TIP3    H150167   5.175   4.151  13.077  1.3326  0.5577  0.2069
 9584TIP3    H250168   5.098   4.275  13.034  0.0488 -0.1478  0.4038
 9585TIP3   OH250169   5.562   0.860  17.282 -0.9232 -0.1239 -0.4774
 9585TIP3    H150170   5.556   0.766  17.296 -0.4789 -0.4607 -2.2478
 9585TIP3    H250171   5.487   0.881  17.225 -0.5558  0.4297 -0.7749
 9586TIP3   OH250172   2.518   0.542   2.975  0.5661 -0.1680  0.0019
 9586TIP3    H150173   2.431   0.524   3.012  0.7794 -1.7863 -0.2159
 9586TIP3    H250174   2.500   0.580   2.890  0.0529 -0.5427 -0.0627
 9587TIP3   OH250175   6.231   2.983   6.431  0.0898 -0.0475  0.7653
 9587TIP3    H150176   6.266   2.950   6.514  0.4343 -0.1327  0.5883
 9587TIP3    H250177   6.309   3.009   6.381 -0.0584 -0.6498  0.1960
 9588TIP3   OH250178   6.429   0.680  12.081  0.4995 -0.1333  0.1155
 9588TIP3    H150179   6.516   0.695  12.117  0.1517  0.7725  0.5948
 9588TIP3    H250180   6.406   0.762  12.038 -0.0088 -0.4617 -0.2588
 9589TIP3   OH250181   1.176   3.803  16.627 -0.5172 -0.2453 -0.2513
 9589TIP3    H150182   1.164   3.771  16.538  0.3171  0.9177 -0.8020
 9589TIP3    H250183   1.090   3.840  16.650 -0.7796 -0.6826 -0.5071
 9590TIP3   OH250184   3.763   2.733  11.730 -0.0089  0.2468 -0.3917
 9590TIP3    H150185   3.826   2.662  11.741 -2.1280 -1.9263 -1.3120
 9590TIP3    H250186   3.786   2.796  11.798  2.7358 -0.6930 -0.3346
 9591TIP3   OH250187   1.476   3.284   3.260 -0.2442 -0.1976 -0.6009
 9591TIP3    H150188   1.527   3.207   3.286 -0.0931  0.2966  0.6201
 9591TIP3    H250189   1.391   3.272   3.303 -0.2116  0.3250 -0.3876
 9592TIP3   OH250190   4.405   3.671  16.359  0.0921  0.0984  0.1690
 9592TIP3    H150191   4.401   3.738  16.291 -0.4710  0.5811  0.6681
 9592TIP3    H250192   4.335   3.693  16.420 -0.6593 -1.4329 -0.0855
 9593TIP3   OH250193   2.253   6.755  17.246 -0.2721 -0.2669  0.0024
 9593TIP3    H150194   2.280   6.847  17.244 -1.9030  0.2661  0.6180
 9593TIP3    H250195   2.229   6.736  17.155 -1.2434  0.3646  0.1054
 9594TIP3   OH250196   4.188   0.387   1.317  0.0483  0.3413  0.0089
 9594TIP3    H150197   4.239   0.462   1.287  1.0885 -0.0174  0.8114
 9594TIP3    H250198   4.253   0.319   1.333 -0.6704 -0.1185  1.1140
 9595TIP3   OH250199   3.440   6.064  13.549  0.3002 -0.2403 -0.8350
 9595TIP3    H150200   3.475   6.018  13.626 -2.5451 -1.4248 -0.1398
 9595TIP3    H250201   3.409   5.994  13.491 -3.1446  0.6042 -0.2405
 9596TIP3   OH250202   2.936   4.228   4.002 -0.2178 -0.2912  0.1149
 9596TIP3    H150203   2.911   4.198   3.914 -2.9955  0.2960  0.5910
 9596TIP3    H250204   2.956   4.148   4.050 -0.3738 -0.7743 -0.6067
 9597TIP3   OH250205   3.550   2.028  15.004  0.3528 -0.2083 -0.0446
 9597TIP3    H150206   3.581   1.954  15.056  0.4816 -0.7147 -0.8181
 9597TIP3    H250207   3.618   2.040  14.937  1.2767  1.7923  1.1354
 9598TIP3   OH250208   4.289   5.123   1.044 -0.2782 -0.2502 -0.4033
 9598TIP3    H150209   4.266   5.031   1.034  1.1811 -0.7260  0.3526
 9598TIP3    H250210   4.308   5.152   0.955 -0.0558 -0.8930 -0.5757
 9599TIP3   OH250211   4.891   4.163  16.146  0.3163  0.1015  0.5331
 9599TIP3    H150212   4.981   4.176  16.175  0.6712 -0.3909 -0.3049
 9599TIP3    H250213   4.892   4.188  16.054 -0.9187  2.2142  1.0201
 9600TIP3   OH250214   3.819   3.967  16.067 -0.0682  0.1536 -0.2222
 9600TIP3    H150215   3.735   4.013  16.057  0.0003  0.9229  2.1641
 9600TIP3    H250216   3.810   3.889  16.012 -1.9951  0.6689 -0.7212
 9601TIP3   OH250217   4.098   0.669   5.359  0.3047 -0.0453 -0.1986
 9601TIP3    H150218   4.023   0.677   5.301  0.7296 -0.0656 -0.7589
 9601TIP3    H250219   4.074   0.720   5.437  0.3048  1.1676 -0.9720
 9602TIP3   OH250220   3.550   6.543  11.544 -0.1257  0.6447 -0.1424
 9602TIP3    H150221   3.572   6.629  11.580 -2.3235  1.4553 -0.5119
 9602TIP3    H250222   3.467   6.558  11.498 -2.4861 -2.3812  2.6873
 9603TIP3   OH250223   3.272   5.510  11.802 -0.0568  0.0967  0.1787
 9603TIP3    H150224   3.193   5.489  11.751 -0.5187 -0.4597  1.0984
 9603TIP3    H250225   3.292   5.429  11.849  0.4002  0.5804  0.8358
 9604TIP3   OH250226   0.254   1.856   5.983 -0.7698 -0.6708  0.5560
 9604TIP3    H150227   0.175   1.827   6.030 -0.2854 -1.3642  0.9687
 9604TIP3    H250228   0.308   1.895   6.051 -1.2431  0.8793  0.0668
 9605TIP3   OH250229   1.702   2.734   5.170 -0.2065  0.3007  0.2691
 9605TIP3    H150230   1.678   2.683   5.247 -0.5218  0.3824  0.2258
 9605TIP3    H250231   1.790   2.704   5.147 -0.4150 -0.2623  0.2092
 9606TIP3   OH250232   3.863   0.125   5.992 -0.3901 -0.2262  0.5604
 9606TIP3    H150233   3.905   0.211   5.999  0.4498 -0.7217  1.9170
 9606TIP3    H250234   3.776   0.137   6.030 -1.1535  0.5365 -1.2870
 9607TIP3   OH250235   2.392   2.984  14.019 -0.9368 -0.8708 -0.0227
 9607TIP3    H150236   2.367   3.066  13.978 -0.2930 -1.1284 -0.9741
 9607TIP3    H250237   2.329   2.920  13.986  0.2294 -1.2978 -1.5399
 9608TIP3   OH250238   0.797   6.205   5.698  0.2688 -0.0523 -0.1363
 9608TIP3    H150239   0.703   6.190   5.707 -0.2582  2.6178 -0.1579
 9608TIP3    H250240   0.813   6.202   5.604  0.4439 -1.4766 -0.0846
 9609TIP3   OH250241   1.205   1.700  13.436 -0.5174  0.4171 -0.0819
 9609TIP3    H150242   1.138   1.769  13.431 -0.6924  0.3931  1.3801
 9609TIP3    H250243   1.167   1.634  13.494  0.6221  0.2396  0.4888
 9610TIP3   OH250244   1.726   2.394  14.574 -0.1072 -0.3824  0.5012
 9610TIP3    H150245   1.681   2.381  14.491 -1.3922  1.6728  0.7996
 9610TIP3    H250246   1.747   2.306  14.605 -0.9389 -1.2395 -1.2672
 9611TIP3   OH250247   1.907   2.563  17.340  0.2297  0.3425  0.5270
 9611TIP3    H150248   1.917   2.585  17.433  0.3646 -1.3244  0.9428
 9611TIP3    H250249   1.850   2.486  17.340  0.7629 -0.0782 -0.7131
 9612TIP3   OH250250   3.064   5.960   2.708  0.5460  0.0842  0.2796
 9612TIP3    H150251   3.126   5.888   2.703  1.5703  1.0343 -1.8256
 9612TIP3    H250252   3.017   5.946   2.790  0.8646 -2.8219  0.0462
 9613TIP3   OH250253   6.342   2.172   3.733  0.4461  0.2407 -0.4553
 9613TIP3    H150254   6.433   2.202   3.723  0.2641  0.8811 -0.2096
 9613TIP3    H250255   6.290   2.237   3.686  0.1410 -0.3527 -0.9503
 9614TIP3   OH250256   4.246   1.986   5.984 -0.2576 -0.1672 -0.2014
 9614TIP3    H150257   4.286   1.900   6.001  0.3729 -0.0181 -0.8887
 9614TIP3    H250258   4.157   1.965   5.954  0.3413 -0.6780 -1.7402
 9615TIP3   OH250259   0.491   5.597  13.944  0.0315  0.0082 -0.3095
 9615TIP3    H150260   0.514   5.688  13.923 -1.6421  0.0355 -2.3090
 9615TIP3    H250261   0.546   5.544  13.886 -0.1925 -0.1773 -0.3550
 9616TIP3   OH250262   2.586   6.190   0.819 -0.2913  0.0164 -0.2159
 9616TIP3    H150263   2.518   6.147   0.766 -0.9664  0.4911  0.2422
 9616TIP3    H250264   2.658   6.127   0.822 -1.1803 -0.9978  0.2932
 9617TIP3   OH250265   6.333   4.292   4.286 -0.5269  0.1520  0.1142
 9617TIP3    H150266   6.344   4.224   4.220  0.9587 -0.3893  0.8476
 9617TIP3    H250267   6.293   4.366   4.240  0.6311 -0.1430 -1.4287
 9618TIP3   OH250268   0.051   5.834  13.302  0.1513 -0.2863  0.4330
 9618TIP3    H150269   0.054   5.928  13.281 -0.7181 -0.5946 -1.2958
 9618TIP3    H250270   0.047   5.831  13.398 -0.5067  1.4788  0.5088
 9619TIP3   OH250271   3.274   2.064   3.148  0.4197 -0.1082  0.5541
 9619TIP3    H150272   3.328   2.054   3.070 -1.3128  0.1510 -0.7462
 9619TIP3    H250273   3.195   2.109   3.117  0.4386  1.6841  2.8088
 9620TIP3   OH250274   0.672   0.517   0.340  0.2165  0.3855  0.0243
 9620TIP3    H150275   0.650   0.460   0.267 -1.2634  0.4758  0.3664
 9620TIP3    H250276   0.619   0.484   0.413  2.2005 -0.1810  1.3059
 9621TIP3   OH250277   1.140   6.504   1.538 -0.2639  0.4210  0.3294
 9621TIP3    H150278   1.167   6.580   1.591 -0.4514 -0.1439  1.2546
 9621TIP3    H250279   1.210   6.494   1.474 -0.3518  1.5205  0.0289
 9622TIP3   OH250280   3.042   4.949   2.468  0.1790 -0.3809 -0.3087
 9622TIP3    H150281   2.975   4.945   2.536 -0.9949  0.2318 -1.3949
 9622TIP3    H250282   3.007   4.894   2.398  0.9260 -0.2274 -0.8048
 9623TIP3   OH250283   4.064   5.854   5.223 -0.3905  0.5705 -0.2908
 9623TIP3    H150284   4.071   5.900   5.306 -1.3261  0.6286 -0.2386
 9623TIP3    H250285   4.133   5.893   5.168  0.6435  0.1088  0.6343
 9624TIP3   OH250286   5.754   2.079  14.890  0.2991 -0.1435 -0.1844
 9624TIP3    H150287   5.703   2.053  14.814  0.4880  0.4606 -0.5253
 9624TIP3    H250288   5.722   2.024  14.961 -0.8412  0.2385 -0.3806
 9625TIP3   OH250289   3.648   5.444  13.813 -0.4594  0.2212  0.0354
 9625TIP3    H150290   3.626   5.367  13.759  1.2409 -0.9698  0.9516
 9625TIP3    H250291   3.738   5.465  13.790 -0.2555  0.7079  1.2162
 9626TIP3   OH250292   5.001   0.272  14.611 -0.3094  0.6576  0.0537
 9626TIP3    H150293   5.077   0.327  14.595  0.5040 -0.6169 -0.7272
 9626TIP3    H250294   5.026   0.187  14.574 -1.4457 -0.2710  1.3295
 9627TIP3   OH250295   1.896   3.504  14.281 -0.1366  0.2257 -0.3009
 9627TIP3    H150296   1.823   3.565  14.269 -3.9871 -3.7709  0.2636
 9627TIP3    H250297   1.917   3.475  14.192 -0.6474  0.0110 -0.3590
 9628TIP3   OH250298   5.398   5.011  16.490  0.0760 -0.3180 -0.3347
 9628TIP3    H150299   5.427   4.926  16.455  0.3323  0.7536 -2.9839
 9628TIP3    H250300   5.461   5.031  16.559 -0.1369 -2.3708  0.5280
 9629TIP3   OH250301   2.146   6.697   0.709  0.0298  0.2893 -0.7006
 9629TIP3    H150302   2.161   6.763   0.641 -0.0163  0.7902 -0.2425
 9629TIP3    H250303   2.123   6.618   0.662  0.4349  0.5109 -1.2808
 9630TIP3   OH250304   4.757   4.582   5.579  0.7952  0.3834 -0.4506
 9630TIP3    H150305   4.772   4.654   5.639 -1.8624  0.5433  0.1491
 9630TIP3    H250306   4.754   4.504   5.635  3.2294 -0.2215 -1.0426
 9631TIP3   OH250307   5.765   5.531   1.184 -0.4566 -0.0144 -0.2571
 9631TIP3    H150308   5.791   5.623   1.179 -0.7997  0.0811 -0.3317
 9631TIP3    H250309   5.838   5.488   1.229  0.6390 -0.0929 -2.0097
 9632TIP3   OH250310   2.636   5.921  14.419 -0.7123  0.5657  0.7713
 9632TIP3    H150311   2.728   5.948  14.422  0.0730 -1.2727 -2.3419
 9632TIP3    H250312   2.586   6.003  14.428  1.2664  1.8062  0.9698
 9633TIP3   OH250313   5.714   3.124   2.813 -0.3023  0.0817  0.0222
 9633TIP3    H150314   5.628   3.138   2.773  0.7124 -1.6462 -3.0427
 9633TIP3    H250315   5.777   3.162   2.751  1.2732 -0.1218  1.4156
 9634TIP3   OH250316   0.477   6.108  12.833 -0.0929 -0.5587 -0.4355
 9634TIP3    H150317   0.564   6.105  12.795  0.1563 -0.5513  0.1210
 9634TIP3    H250318   0.484   6.057  12.914 -0.9001 -1.5113 -0.9557
 9635TIP3   OH250319   0.231   4.600  14.732 -0.3181  0.5845 -0.2676
 9635TIP3    H150320   0.189   4.514  14.731 -0.0157  0.3771 -3.1477
 9635TIP3    H250321   0.173   4.655  14.680 -1.0116  2.4849  2.3083
 9636TIP3   OH250322   6.633   5.480   2.389  0.0784  0.4022  0.3771
 9636TIP3    H150323   6.590   5.534   2.323 -0.7096  0.6644  1.0914
 9636TIP3    H250324   6.610   5.521   2.473  0.3608 -0.4190  0.8702
 9637TIP3   OH250325   1.917   0.065   3.597  0.1120 -0.0414  0.2441
 9637TIP3    H150326   1.960  -0.018   3.617  2.2594  0.7977 -0.6929
 9637TIP3    H250327   1.843   0.041   3.541  0.0113 -1.4088  0.9225
 9638TIP3   OH250328   4.761   6.339  16.453 -0.1420  0.5504 -0.4434
 9638TIP3    H150329   4.814   6.260  16.465 -2.2270 -0.8169  0.2445
 9638TIP3    H250330   4.824   6.410  16.457  1.7182 -1.0153 -0.2324
 9639TIP3   OH250331   2.444   6.747   4.446 -0.2094  0.1578 -0.0051
 9639TIP3    H150332   2.476   6.778   4.361  1.6680 -1.7448 -0.0805
 9639TIP3    H250333   2.433   6.827   4.497  0.0401  1.2458 -1.5553
 9640TIP3   OH250334   1.839   5.804  14.699  0.7498 -0.2840  0.1577
 9640TIP3    H150335   1.822   5.828  14.790  1.9069  1.7805 -0.1209
 9640TIP3    H250336   1.752   5.798  14.659  0.3082  2.1546  0.6252
 9641TIP3   OH250337   0.794   5.049  11.419 -0.1920 -0.2824  0.3576
 9641TIP3    H150338   0.853   4.978  11.392  0.7908  0.9338 -0.8675
 9641TIP3    H250339   0.802   5.113  11.348 -0.5657  1.3203  1.7309
 9642TIP3   OH250340   0.942   1.150  15.174  0.0193  0.5527 -0.7225
 9642TIP3    H150341   0.986   1.081  15.125 -1.4256 -0.2037 -1.0001
 9642TIP3    H250342   0.885   1.193  15.110 -1.2720  0.0915  0.0717
 9643TIP3   OH250343   2.370   5.636   1.237  0.1854  0.1126  0.0569
 9643TIP3    H150344   2.457   5.672   1.251 -0.0151  0.2492  0.9813
 9643TIP3    H250345   2.385   5.561   1.178  1.3327 -1.5904  2.3450
 9644TIP3   OH250346   4.643   2.546  14.920 -0.0988 -0.3267 -0.8654
 9644TIP3    H150347   4.663   2.498  15.001 -2.5652 -0.5935 -0.3362
 9644TIP3    H250348   4.628   2.477  14.855 -0.1377 -0.1575 -1.0356
 9645TIP3   OH250349   3.100   5.323  12.850 -0.0804 -0.9038  0.2564
 9645TIP3    H150350   3.039   5.261  12.809 -0.6864  0.4537 -0.9801
 9645TIP3    H250351   3.152   5.356  12.776 -0.2633  0.5878  0.7784
 9646TIP3   OH250352   6.406   0.956  14.418 -0.4592 -0.0128  0.2533
 9646TIP3    H150353   6.388   0.987  14.507 -0.2327  1.0109 -0.0391
 9646TIP3    H250354   6.341   0.887  14.403 -1.4192  0.7510  0.7198
 9647TIP3   OH250355   5.183   6.615   5.070  0.5556 -0.1718 -0.2782
 9647TIP3    H150356   5.152   6.527   5.049  2.2489 -1.1445  1.0613
 9647TIP3    H250357   5.112   6.673   5.041 -0.7153 -1.9754 -0.9485
 9648TIP3   OH250358   0.168   3.063  16.100 -0.2433  0.5027 -0.4741
 9648TIP3    H150359   0.166   3.038  16.192  0.1960  1.0669 -0.3100
 9648TIP3    H250360   0.235   3.007  16.062  0.0235  0.7137 -0.3163
 9649TIP3   OH250361   0.434   2.357  15.788  0.5867 -0.1925  0.3062
 9649TIP3    H150362   0.500   2.292  15.810  0.1749 -0.2471  1.4527
 9649TIP3    H250363   0.384   2.317  15.717  0.8860 -0.7595  0.4088
 9650TIP3   OH250364   2.061   1.292  17.235 -0.0503 -0.1690 -0.4231
 9650TIP3    H150365   2.042   1.263  17.146  0.0107  1.1805 -0.9015
 9650TIP3    H250366   1.977   1.322  17.269  0.4946  2.7140 -1.3646
 9651TIP3   OH250367   4.546   1.107  15.325  0.2265 -0.3252  0.3045
 9651TIP3    H150368   4.609   1.169  15.287  1.1525 -1.3868  0.0503
 9651TIP3    H250369   4.478   1.098  15.258  0.7357 -0.5363 -0.1910
 9652TIP3   OH250370   5.408   1.551   1.072  0.1186  0.2395  0.0111
 9652TIP3    H150371   5.346   1.623   1.058 -1.2763 -0.9604 -0.3257
 9652TIP3    H250372   5.443   1.533   0.985 -1.8806 -1.4334 -0.5547
 9653TIP3   OH250373   0.616   3.688  15.518 -0.4025 -0.1259 -0.2985
 9653TIP3    H150374   0.710   3.687  15.536  0.3515 -0.8419 -3.6366
 9653TIP3    H250375   0.607   3.651  15.430 -3.8320 -0.0814 -0.1306
 9654TIP3   OH250376   4.595   4.534   3.852 -0.3946  0.2279 -0.0483
 9654TIP3    H150377   4.575   4.442   3.836  0.7016 -0.1376  0.5629
 9654TIP3    H250378   4.556   4.552   3.937 -3.6962  1.3620 -1.6496
 9655TIP3   OH250379   2.824   4.087   5.739  0.0397 -0.4115  0.4333
 9655TIP3    H150380   2.860   4.176   5.733 -0.9954 -0.0136 -0.1514
 9655TIP3    H250381   2.842   4.060   5.829  2.4526 -0.5458 -0.0118
 9656TIP3   OH250382   3.249   4.105  12.319 -0.0572 -0.3441  0.1177
 9656TIP3    H150383   3.248   4.193  12.355 -1.9241 -0.4485  0.4019
 9656TIP3    H250384   3.296   4.053  12.384  0.2660  0.2552  0.3768
 9657TIP3   OH250385   4.459   4.749   0.668  0.0425  0.4622 -0.2195
 9657TIP3    H150386   4.554   4.759   0.655  0.6494 -2.2529  1.2193
 9657TIP3    H250387   4.431   4.694   0.595  0.4580 -2.0743  1.4136
 9658TIP3   OH250388   2.676   2.468   1.927  0.9092  0.1647 -0.8706
 9658TIP3    H150389   2.735   2.423   1.866  0.5295 -2.1413  0.3462
 9658TIP3    H250390   2.689   2.423   2.010 -3.4108 -1.4226 -0.7863
 9659TIP3   OH250391   5.216   6.597   1.721  0.0134 -0.1128 -0.2142
 9659TIP3    H150392   5.231   6.690   1.701  0.2609 -0.4772 -1.9167
 9659TIP3    H250393   5.134   6.576   1.676 -0.0210 -0.7381  0.1284
 9660TIP3   OH250394   4.115   3.074  13.296 -0.1325 -0.0697  0.1909
 9660TIP3    H150395   4.035   3.123  13.281 -0.0170  0.3320  0.8241
 9660TIP3    H250396   4.110   2.999  13.236  0.1563  1.2193 -1.5034
 9661TIP3   OH250397   3.103   1.684  13.879  0.7530  0.4893  0.4341
 9661TIP3    H150398   3.175   1.733  13.839  1.6895 -0.3842  0.9918
 9661TIP3    H250399   3.120   1.691  13.973 -0.1932  0.7035  0.5951
 9662TIP3   OH250400   1.483   3.814   5.732  0.8264 -0.3662 -0.2938
 9662TIP3    H150401   1.522   3.779   5.812  0.9430  2.0124  0.7543
 9662TIP3    H250402   1.389   3.818   5.751  0.8312  0.0240 -0.3423
 9663TIP3   OH250403   5.902   1.506  15.109  0.6930 -0.1766  0.2245
 9663TIP3    H150404   5.987   1.501  15.066  0.1712  0.9272 -1.0141
 9663TIP3    H250405   5.868   1.593  15.085 -0.7263 -0.5394  0.8004
 9664TIP3   OH250406   2.298   0.577   3.393 -0.8106 -0.2567  0.4444
 9664TIP3    H150407   2.292   0.522   3.472 -0.1649 -0.5882  0.2662
 9664TIP3    H250408   2.390   0.573   3.368 -0.8551  0.5086  0.1359
 9665TIP3   OH250409   0.779   4.179  12.926  0.4420  0.6282 -0.4893
 9665TIP3    H150410   0.685   4.195  12.935  0.1783 -1.8468  3.8119
 9665TIP3    H250411   0.818   4.267  12.925 -1.7658  1.6784 -0.3154
 9666TIP3   OH250412   4.623   6.377   2.554  0.6640 -0.2625 -0.2311
 9666TIP3    H150413   4.550   6.316   2.564 -0.0050  0.2941 -1.5641
 9666TIP3    H250414   4.584   6.464   2.563  0.8945  0.0926 -2.1726
 9667TIP3   OH250415   1.245   3.291  17.265 -0.4434  0.6443  0.5230
 9667TIP3    H150416   1.282   3.376  17.240 -1.1755  0.6208 -0.7551
 9667TIP3    H250417   1.151   3.309  17.276 -0.7080 -0.0938 -0.3542
 9668TIP3   OH250418   4.376   4.120   2.721 -0.7660 -0.4313  0.0633
 9668TIP3    H150419   4.471   4.112   2.730 -0.7422 -1.1127 -0.6547
 9668TIP3    H250420   4.358   4.212   2.739  0.3786  0.3921 -2.5018
 9669TIP3   OH250421   6.562   1.115  16.028 -0.3573  0.0752  0.1282
 9669TIP3    H150422   6.636   1.145  15.975  1.3546 -1.6588  1.3951
 9669TIP3    H250423   6.513   1.195  16.048  1.9290  1.5168  0.3566
 9670TIP3   OH250424   0.602   3.506  14.272 -0.0953 -0.2358  0.0912
 9670TIP3    H150425   0.644   3.534  14.191  1.0990 -0.3419  0.6559
 9670TIP3    H250426   0.673   3.468  14.324 -0.8775 -0.3373  1.1158
 9671TIP3   OH250427   2.277   3.867  11.448  0.1527 -0.1297  0.1095
 9671TIP3    H150428   2.214   3.929  11.484 -0.2158 -0.2068 -0.3967
 9671TIP3    H250429   2.302   3.904  11.363 -0.7293 -1.0981 -0.5957
 9672TIP3   OH250430   2.330   6.375  14.788  0.5779 -0.3051 -0.4452
 9672TIP3    H150431   2.303   6.453  14.740 -0.4303 -1.2765 -1.5579
 9672TIP3    H250432   2.253   6.318  14.784  0.5625 -0.5712  2.0995
 9673TIP3   OH250433   2.395   5.508   5.300 -0.1449 -0.3797  0.4006
 9673TIP3    H150434   2.469   5.502   5.240  0.1930 -2.2398  0.9501
 9673TIP3    H250435   2.429   5.556   5.376 -0.4052  1.4429 -0.5688
 9674TIP3   OH250436   1.506   3.753   3.860 -0.4409 -0.2556 -0.0464
 9674TIP3    H150437   1.446   3.825   3.838 -2.1215 -1.1574  1.3082
 9674TIP3    H250438   1.593   3.794   3.860 -1.1479  1.3620 -1.0050
 9675TIP3   OH250439   4.363   6.365   3.850 -0.0980  0.0342 -0.1251
 9675TIP3    H150440   4.394   6.338   3.937 -0.3978 -1.6651 -0.5162
 9675TIP3    H250441   4.315   6.289   3.817 -0.5941  0.9128 -1.4979
 9676TIP3   OH250442   0.821   6.599   3.445  0.3565  0.3155  0.3737
 9676TIP3    H150443   0.790   6.627   3.532 -0.0401  0.0681  0.3160
 9676TIP3    H250444   0.822   6.679   3.393 -1.0375  0.1992  0.1308
 9677TIP3   OH250445   0.673   4.988   4.352  0.1347 -0.6649  0.1983
 9677TIP3    H150446   0.670   4.899   4.316 -0.3808 -0.8336  0.6388
 9677TIP3    H250447   0.586   5.001   4.390  0.7838 -0.6511  1.7501
 9678TIP3   OH250448   1.440   1.248   4.500  0.5380  0.1849  0.6918
 9678TIP3    H150449   1.413   1.196   4.576 -0.2343  0.0385  0.3332
 9678TIP3    H250450   1.374   1.228   4.433  1.2671  0.2339 -0.0527
 9679TIP3   OH250451   1.708   0.406  12.769 -0.3011  0.1898  0.0749
 9679TIP3    H150452   1.693   0.497  12.793 -1.6466 -0.1755  0.7739
 9679TIP3    H250453   1.797   0.387  12.797 -0.5225  0.8806  1.3344
 9680TIP3   OH250454   5.158   0.949   2.786  0.1292 -0.2877  0.2626
 9680TIP3    H150455   5.125   0.994   2.864  1.9001 -2.5193  2.4695
 9680TIP3    H250456   5.230   0.895   2.819  1.3276 -0.9352 -3.0651
 9681TIP3   OH250457   1.410   0.058   5.918  0.5072 -0.4633 -0.0006
 9681TIP3    H150458   1.321   0.027   5.901  0.4440  0.1300 -0.8245
 9681TIP3    H250459   1.405   0.098   6.004  0.0615 -0.7570  0.1128
 9682TIP3   OH250460   4.396   1.130  12.939  0.2130  0.2196  0.1757
 9682TIP3    H150461   4.415   1.160  12.850  0.8182  1.1930  0.6186
 9682TIP3    H250462   4.323   1.184  12.968 -0.3589 -0.4872  0.0770
 9683TIP3   OH250463   3.067   3.176   5.791 -0.2510 -0.1741  0.4232
 9683TIP3    H150464   3.148   3.126   5.779 -0.7476 -0.9633  0.2957
 9683TIP3    H250465   3.063   3.193   5.885  0.5557  0.7336  0.3118
 9684TIP3   OH250466   1.482   1.850  13.395 -0.0726  0.3262 -0.9824
 9684TIP3    H150467   1.478   1.763  13.434 -1.4098  0.0048 -1.7818
 9684TIP3    H250468   1.452   1.908  13.465 -0.4189 -0.0052 -0.8521
 9685TIP3   OH250469   0.457   5.732   3.145  0.0212  0.5594  0.0629
 9685TIP3    H150470   0.533   5.739   3.203 -1.2909 -1.6598  2.2338
 9685TIP3    H250471   0.384   5.711   3.203 -1.5441 -1.0693 -2.3133
 9686TIP3   OH250472   2.085   3.825  12.596  0.5056 -0.0044  0.6736
 9686TIP3    H150473   2.113   3.803  12.684  1.2885 -1.0899  0.1747
 9686TIP3    H250474   2.165   3.853  12.552 -0.1564  2.2407  0.7723
 9687TIP3   OH250475   2.934   0.356   0.140 -0.7099  0.3924 -0.1721
 9687TIP3    H150476   3.020   0.324   0.115 -0.4716  0.0818  0.9702
 9687TIP3    H250477   2.879   0.342   0.063  0.3761  1.0942 -1.0905
 9688TIP3   OH250478   5.470   2.393  12.817  0.3829 -0.1943  0.5061
 9688TIP3    H150479   5.455   2.429  12.904  0.9716  0.7568  0.2279
 9688TIP3    H250480   5.488   2.300  12.832  1.5737  0.1721  1.5174
 9689TIP3   OH250481   2.665   6.077   0.474  0.6665 -0.0474  0.0077
 9689TIP3    H150482   2.721   6.000   0.479  3.0298  1.5188 -0.2674
 9689TIP3    H250483   2.723   6.150   0.499 -1.1730  1.7476 -0.6682
 9690TIP3   OH250484   4.964   1.990   0.379  0.4351 -0.0892  0.0532
 9690TIP3    H150485   4.963   1.926   0.308 -2.1226  0.0345 -0.0976
 9690TIP3    H250486   5.012   2.065   0.343 -0.5201 -0.1622 -1.4567
 9691TIP3   OH250487   1.617   5.112   1.226  0.1182 -0.6393  0.0210
 9691TIP3    H150488   1.574   5.043   1.275 -2.1176 -0.1087 -1.0447
 9691TIP3    H250489   1.624   5.077   1.137 -0.3560  0.1989 -0.3573
 9692TIP3   OH250490   0.609   2.255  16.711  0.0256 -0.4269 -0.1181
 9692TIP3    H150491   0.604   2.228  16.620  0.3468 -1.1293  0.0622
 9692TIP3    H250492   0.560   2.337  16.715 -1.4534 -1.2449 -0.5802
 9693TIP3   OH250493   6.595   6.099  13.461  0.3191  0.3443 -0.0412
 9693TIP3    H150494   6.553   6.152  13.393  0.2582 -0.0368 -0.3047
 9693TIP3    H250495   6.547   6.017  13.460 -0.2359  0.6422  1.0584
 9694TIP3   OH250496   5.353   5.852  13.944 -0.1859  0.2372 -0.0865
 9694TIP3    H150497   5.378   5.835  14.035  2.0289 -0.7597 -0.8203
 9694TIP3    H250498   5.424   5.906  13.909 -0.3854 -0.3943 -1.5332
 9695TIP3   OH250499   1.602   1.319  14.466  0.1364  1.0788 -0.1374
 9695TIP3    H150500   1.587   1.260  14.393  2.3808  1.1081 -0.6850
 9695TIP3    H250501   1.530   1.302  14.526  1.3383 -3.1953  0.3780
 9696TIP3   OH250502   4.748   1.105   5.872 -0.0363 -0.2394 -0.0719
 9696TIP3    H150503   4.793   1.122   5.790 -1.8135 -2.9104 -1.7231
 9696TIP3    H250504   4.678   1.171   5.875 -0.3598 -0.5230 -1.0557
 9697TIP3   OH250505   6.420   0.286  13.758  0.0423 -0.6344  0.0380
 9697TIP3    H150506   6.478   0.358  13.730 -0.0532 -1.4197 -2.4633
 9697TIP3    H250507   6.475   0.208  13.753 -0.6936 -1.1336 -0.4449
 9698TIP3   OH250508   2.727   2.641   4.379 -0.0413 -0.4019  0.0249
 9698TIP3    H150509   2.648   2.690   4.359  0.7132  0.6947 -0.4000
 9698TIP3    H250510   2.781   2.702   4.429 -0.4356 -1.9396  2.4833
 9699TIP3   OH250511   0.901   5.707  15.122  0.3896 -0.1360  0.4008
 9699TIP3    H150512   0.841   5.742  15.188  0.9779 -1.0831  1.4663
 9699TIP3    H250513   0.847   5.646  15.071  0.2624 -0.4516  0.9053
 9700TIP3   OH250514   0.728   1.664  10.963 -0.4537  0.2581  0.2297
 9700TIP3    H150515   0.697   1.713  10.888 -2.0185  0.2337  0.8113
 9700TIP3    H250516   0.794   1.605  10.928 -0.5337  0.8540 -0.9602
 9701TIP3   OH250517   1.493   3.005   2.406  0.1228  0.0327  0.0683
 9701TIP3    H150518   1.432   2.956   2.351  0.1416 -0.6553  0.6301
 9701TIP3    H250519   1.534   2.937   2.461 -1.1752  0.8531  2.1668
 9702TIP3   OH250520   6.597   6.563  11.439  0.4492 -0.3276  0.0288
 9702TIP3    H150521   6.537   6.637  11.443 -0.1540 -0.8135  0.2309
 9702TIP3    H250522   6.636   6.568  11.352  4.6891  3.4801  1.7696
 9703TIP3   OH250523   4.894   3.417   0.735 -0.2985  0.4518  0.1361
 9703TIP3    H150524   4.891   3.321   0.736 -0.8751  0.4655  0.4783
 9703TIP3    H250525   4.978   3.438   0.695 -0.1561 -0.1977  0.0763
 9704TIP3   OH250526   2.461   5.729   0.499  0.3453 -0.7906 -0.1921
 9704TIP3    H150527   2.556   5.738   0.489  0.2172  0.7627 -0.3054
 9704TIP3    H250528   2.425   5.792   0.436 -0.7607 -1.3803 -0.1611
 9705TIP3   OH250529   3.732   4.603   4.678 -0.1215 -0.1804 -0.0701
 9705TIP3    H150530   3.822   4.624   4.656 -0.6298  0.3300 -1.8464
 9705TIP3    H250531   3.722   4.511   4.654  0.2806 -0.6378  1.4331
 9706TIP3   OH250532   1.970   3.753   0.417  0.1006 -0.4395  0.3502
 9706TIP3    H150533   2.057   3.715   0.407  0.0451 -1.1036  2.0558
 9706TIP3    H250534   1.984   3.847   0.408  1.0578 -0.5163  0.9090
 9707TIP3   OH250535   3.492   4.735   4.486  0.5061  0.5322 -0.0238
 9707TIP3    H150536   3.578   4.756   4.521  0.3570  1.2135 -0.0616
 9707TIP3    H250537   3.431   4.753   4.558  0.4910 -1.2004  0.4630
 9708TIP3   OH250538   1.659   0.778   3.333  0.0654 -0.0493 -0.1415
 9708TIP3    H150539   1.706   0.761   3.415  0.9827 -1.9342 -0.9997
 9708TIP3    H250540   1.581   0.827   3.359  0.0606 -1.0742  1.9348
 9709TIP3   OH250541   4.392   1.497   3.847 -0.4068  0.5452 -0.2637
 9709TIP3    H150542   4.326   1.487   3.778 -0.9479  3.0744 -0.2308
 9709TIP3    H250543   4.341   1.521   3.925  0.3663 -0.1763  0.4822
 9710TIP3   OH250544   2.043   0.829   2.493 -0.1565 -0.4916  0.1059
 9710TIP3    H150545   2.012   0.813   2.582  0.1693  2.5522  0.8945
 9710TIP3    H250546   2.084   0.916   2.497  2.4868 -1.4403 -2.3757
 9711TIP3   OH250547   2.082   0.084  13.603 -0.4575  0.1790  0.1590
 9711TIP3    H150548   2.147   0.076  13.673  0.3328 -0.1892 -0.5984
 9711TIP3    H250549   2.132   0.115  13.527 -1.2511  0.3315 -0.3154
 9712TIP3   OH250550   1.297   6.531  13.206  0.1770 -1.1367  0.1137
 9712TIP3    H150551   1.384   6.504  13.236 -0.0422 -1.1835  0.7121
 9712TIP3    H250552   1.296   6.507  13.113 -0.4163 -4.2812  0.8253
 9713TIP3   OH250553   5.266   4.257   1.345 -0.3121  0.3439  0.3167
 9713TIP3    H150554   5.336   4.263   1.280 -1.7252  0.3544 -1.2820
 9713TIP3    H250555   5.225   4.172   1.327 -0.9924  0.5396  0.9294
 9714TIP3   OH250556   3.123   2.455  15.386 -0.1725  0.2333 -0.5664
 9714TIP3    H150557   3.059   2.415  15.327  0.8485 -1.0762 -0.8570
 9714TIP3    H250558   3.116   2.404  15.467  1.1579 -0.6355 -0.9455
 9715TIP3   OH250559   0.608   5.009   3.255  0.5689  0.5522 -0.1154
 9715TIP3    H150560   0.583   5.081   3.314 -1.3841 -1.1511  1.2493
 9715TIP3    H250561   0.683   4.968   3.298 -0.5893 -0.4261  1.0476
 9716TIP3   OH250562   2.446   4.400   3.811 -0.4172 -0.4671 -0.5464
 9716TIP3    H150563   2.408   4.395   3.724 -1.1349 -0.7534 -0.2224
 9716TIP3    H250564   2.413   4.483   3.847 -2.0101 -1.4284  0.3050
 9717TIP3   OH250565   0.430   0.201  12.029 -0.3606  0.2907  0.0937
 9717TIP3    H150566   0.445   0.251  12.110 -0.4332  0.7509 -0.1769
 9717TIP3    H250567   0.466   0.256  11.960  1.1173 -0.7876 -0.0397
 9718TIP3   OH250568   3.460   3.075   1.831 -0.3624 -0.1856  0.6139
 9718TIP3    H150569   3.372   3.042   1.850 -0.6826  0.8098  0.9066
 9718TIP3    H250570   3.509   3.060   1.911  0.1498 -1.9685  0.0328
 9719TIP3   OH250571   1.202   1.987   4.550 -0.4264  0.1829 -0.2196
 9719TIP3    H150572   1.240   2.000   4.463  1.0285  0.5288  0.4376
 9719TIP3    H250573   1.220   1.895   4.570 -1.6423 -0.1814 -0.6521
 9720TIP3   OH250574   5.120   0.415  13.455 -0.2263 -0.0910  0.0219
 9720TIP3    H150575   5.063   0.339  13.471 -0.2452  0.2160  1.5608
 9720TIP3    H250576   5.059   0.486  13.436 -0.2706 -0.1675 -0.1236
 9721TIP3   OH250577   1.891   6.115  11.825 -0.1902  0.2072 -0.7752
 9721TIP3    H150578   1.941   6.033  11.827  0.9627  0.8596  1.7351
 9721TIP3    H250579   1.824   6.100  11.759  0.6069 -2.3816 -1.1428
 9722TIP3   OH250580   0.442   5.604   2.884  0.1006 -0.4449  0.3308
 9722TIP3    H150581   0.428   5.640   2.971 -0.1834 -1.1812  0.6005
 9722TIP3    H250582   0.381   5.530   2.878  1.8389 -1.9970  0.4773
 9723TIP3   OH250583   0.114   6.096  13.638 -0.9282  0.2149 -0.4397
 9723TIP3    H150584   0.048   6.086  13.706  0.9986 -1.0414  1.4003
 9723TIP3    H250585   0.082   6.044  13.565 -1.6759 -0.9283  0.6582
 9724TIP3   OH250586   4.502   0.734  14.708 -0.5898 -0.5703  0.1918
 9724TIP3    H150587   4.592   0.732  14.678  0.4723  1.6451  2.7826
 9724TIP3    H250588   4.474   0.643  14.708  1.5325 -1.2762 -0.9417
 9725TIP3   OH250589   6.073   4.031  11.673  0.4385  0.0398  0.1802
 9725TIP3    H150590   6.123   4.095  11.723 -1.5221  2.2191 -0.4548
 9725TIP3    H250591   6.139   3.987  11.618  2.0965  0.1206  1.9876
 9726TIP3   OH250592   4.465   0.811   5.310  0.3131 -0.3545  0.1673
 9726TIP3    H150593   4.414   0.743   5.267  1.4802  0.0432 -1.9637
 9726TIP3    H250594   4.406   0.885   5.318 -0.6356 -1.1998  1.5231
 9727TIP3   OH250595   0.473   1.472  13.981  0.0812  0.3298  0.0753
 9727TIP3    H150596   0.493   1.444  13.892 -3.2531  0.6864 -0.9112
 9727TIP3    H250597   0.482   1.567  13.980 -2.6022  0.6533 -0.7796
 9728TIP3   OH250598   3.561   1.786  14.349 -0.1766  0.1791 -0.4360
 9728TIP3    H150599   3.541   1.787  14.255  0.3711 -0.1343 -0.5630
 9728TIP3    H250600   3.482   1.751  14.390 -0.4980  0.5192 -0.7584
 9729TIP3   OH250601   5.511   4.855  15.780 -0.1196 -0.6586 -0.2162
 9729TIP3    H150602   5.602   4.837  15.758 -0.4909 -1.7719 -0.9510
 9729TIP3    H250603   5.461   4.788  15.733 -1.3169 -0.0955  0.1988
 9730TIP3   OH250604   3.732   2.116  14.829  0.3459 -0.3946  0.6579
 9730TIP3    H150605   3.739   2.210  14.818 -3.4578  0.1834  1.6161
 9730TIP3    H250606   3.819   2.082  14.809  1.0009  2.9105 -3.2184
 9731TIP3   OH250607   1.463   3.780  15.463  0.8730 -0.5018  0.0601
 9731TIP3    H150608   1.402   3.723  15.508  0.6569 -1.3749 -1.2879
 9731TIP3    H250609   1.416   3.809  15.385  0.4491  2.6502  1.3104
 9732TIP3   OH250610   0.320   5.026   1.181  0.5988 -0.7833  0.5462
 9732TIP3    H150611   0.340   4.996   1.092  2.5608 -1.0752  1.0348
 9732TIP3    H250612   0.228   5.053   1.178  0.5621 -1.0226 -1.4967
 9733TIP3   OH250613   2.032   1.873  15.177 -0.0261 -0.4490 -0.1190
 9733TIP3    H150614   2.122   1.901  15.164  0.0609 -1.4007 -1.7295
 9733TIP3    H250615   1.992   1.944  15.228  1.3093  0.5085 -0.3638
 9734TIP3   OH250616   0.707   4.283   3.428  0.4374  0.0402  0.0263
 9734TIP3    H150617   0.717   4.197   3.387 -1.6700  0.1854 -0.9397
 9734TIP3    H250618   0.693   4.342   3.354  0.5028  0.9987  0.7692
 9735TIP3   OH250619   5.957   1.851   4.858 -0.2580  0.1000 -0.0690
 9735TIP3    H150620   6.007   1.897   4.925 -1.2346  0.2586  0.5722
 9735TIP3    H250621   5.942   1.764   4.895  1.0349 -0.5433 -1.0057
 9736TIP3   OH250622   4.010   5.203   4.235  0.8813 -0.2440  0.1491
 9736TIP3    H150623   4.016   5.243   4.148 -1.1467 -1.5103 -0.6457
 9736TIP3    H250624   3.926   5.232   4.269 -0.0061 -2.5594  0.1383
 9737TIP3   OH250625   3.221   6.286   3.901 -0.5810 -0.4704 -0.0187
 9737TIP3    H150626   3.162   6.319   3.834  1.0845  0.2271 -1.2186
 9737TIP3    H250627   3.264   6.364   3.936 -0.4613 -0.9454  0.9224
 9738TIP3   OH250628   5.266   1.097  16.131  0.0134 -0.4100  0.1829
 9738TIP3    H150629   5.194   1.121  16.190  0.6274  0.4359  0.6196
 9738TIP3    H250630   5.258   1.002  16.120  0.0766 -0.6515  1.9201
 9739TIP3   OH250631   1.891   2.995  12.484  0.0045 -0.0682 -0.1993
 9739TIP3    H150632   1.837   3.057  12.534 -0.5765  0.6081 -1.6273
 9739TIP3    H250633   1.964   2.975  12.544 -0.5500  0.8700  0.8422
 9740TIP3   OH250634   6.667   0.447  15.353  0.1989  0.2595  0.5685
 9740TIP3    H150635   6.679   0.420  15.262  0.8325  0.1521  0.6773
 9740TIP3    H250636   6.604   0.385  15.390  1.3479 -0.8576  0.7137
 9741TIP3   OH250637   6.555   4.250   3.256 -0.0029 -0.1404  0.2376
 9741TIP3    H150638   6.476   4.269   3.306 -0.5674 -0.2638 -0.5693
 9741TIP3    H250639   6.626   4.290   3.306 -0.2719 -1.8203  2.0796
 9742TIP3   OH250640   3.555   6.536  16.416  0.2150 -0.1021 -0.3885
 9742TIP3    H150641   3.620   6.554  16.348 -0.8185 -0.1663 -1.4335
 9742TIP3    H250642   3.543   6.441  16.413 -0.2960 -0.0349 -0.5629
 9743TIP3   OH250643   3.427   3.748  13.608  0.1790 -0.0758 -0.5690
 9743TIP3    H150644   3.455   3.657  13.610  1.6893  0.3550  1.3415
 9743TIP3    H250645   3.395   3.765  13.697 -0.4790  1.1255 -1.0219
 9744TIP3   OH250646   4.134   1.473   2.804  0.4542 -0.0658 -0.8158
 9744TIP3    H150647   4.148   1.556   2.757  1.9736  0.4680  0.4943
 9744TIP3    H250648   4.045   1.481   2.840 -1.1077 -0.8313 -4.1185
 9745TIP3   OH250649   6.521   2.500  13.617  0.1552  0.0685 -0.1475
 9745TIP3    H150650   6.529   2.541  13.703  0.1021 -0.3168  0.0389
 9745TIP3    H250651   6.531   2.573  13.555 -0.3238  0.4312  0.1914
 9746TIP3   OH250652   6.548   4.393  11.201 -0.6891 -0.0812 -0.2395
 9746TIP3    H150653   6.488   4.358  11.135 -0.6038  0.4563 -0.6193
 9746TIP3    H250654   6.635   4.385  11.161 -0.5489 -0.5276  0.1583
 9747TIP3   OH250655   3.334   0.806  10.775  0.4063 -0.1402  0.0270
 9747TIP3    H150656   3.275   0.868  10.818 -0.1080 -0.9405  0.5100
 9747TIP3    H250657   3.413   0.857  10.757 -0.4122  0.9421 -0.6071
 9748TIP3   OH250658   1.078   0.106  17.334  0.5886  0.4943 -0.0467
 9748TIP3    H150659   1.012   0.168  17.303 -0.7761 -0.9343 -0.1241
 9748TIP3    H250660   1.030   0.045  17.390  1.9196 -0.3753  0.2027
 9749TIP3   OH250661   5.381   1.578  16.539 -0.1228  0.1687 -0.2777
 9749TIP3    H150662   5.334   1.507  16.496  0.4433  0.5114 -1.4949
 9749TIP3    H250663   5.322   1.607  16.609 -0.6603 -1.0078 -0.2212
 9750TIP3   OH250664   5.253   0.185   0.111  0.2067 -0.6625  0.0238
 9750TIP3    H150665   5.188   0.144   0.054 -0.8134 -1.7214  1.8572
 9750TIP3    H250666   5.279   0.265   0.064  0.0127 -1.8569 -2.2441
 9751TIP3   OH250667   1.118   4.193   2.940 -0.4202  0.1255  0.2504
 9751TIP3    H150668   1.056   4.130   2.977  0.2483 -1.2922 -0.9599
 9751TIP3    H250669   1.201   4.170   2.980 -0.4862  1.4898  1.2357
 9752TIP3   OH250670   3.827   3.343   1.300  0.3474  0.6404 -0.2305
 9752TIP3    H150671   3.767   3.344   1.226  1.2688 -1.0705 -1.0732
 9752TIP3    H250672   3.771   3.330   1.376 -0.8459  4.4216 -0.2627
 9753TIP3   OH250673   1.824   2.167   0.716 -0.5245  0.3659 -1.1106
 9753TIP3    H150674   1.865   2.171   0.630  0.6914  0.0293 -0.5686
 9753TIP3    H250675   1.877   2.105   0.765 -1.7972 -0.2128 -0.4195
 9754TIP3   OH250676   2.181   2.644   4.773 -0.3051 -0.2912 -0.3839
 9754TIP3    H150677   2.145   2.559   4.748 -0.3837 -0.6645  0.9728
 9754TIP3    H250678   2.216   2.680   4.691  1.9529 -2.6867 -0.5959
 9755TIP3   OH250679   0.459   1.469  16.380  0.1791 -0.2466 -0.4225
 9755TIP3    H150680   0.536   1.517  16.411 -1.1117  1.0580  0.9178
 9755TIP3    H250681   0.412   1.532  16.326 -0.2132 -0.8948 -0.8578
 9756TIP3   OH250682   1.088   0.032  13.227 -0.0957  0.0870  1.0215
 9756TIP3    H150683   1.083   0.072  13.140  0.3640  0.4096  1.1383
 9756TIP3    H250684   1.158  -0.032  13.219 -0.6784 -0.5455  0.8999
 9757TIP3   OH250685   1.676   3.954   5.574 -0.1907 -0.2536 -0.4729
 9757TIP3    H150686   1.682   4.043   5.611  0.9332 -0.8501  0.8512
 9757TIP3    H250687   1.601   3.915   5.619  0.5577 -0.6391  0.4653
 9758TIP3   OH250688   0.185   4.605   5.667 -0.1727 -0.5497  0.2325
 9758TIP3    H150689   0.216   4.543   5.601  1.6963 -0.9806  1.4450
 9758TIP3    H250690   0.099   4.632   5.635 -0.3099 -2.4540 -1.2153
 9759TIP3   OH250691   1.973   6.233  16.005 -0.3202 -0.0259  0.1046
 9759TIP3    H150692   2.023   6.181  15.942  1.1853  0.4174  0.8823
 9759TIP3    H250693   1.889   6.250  15.962  0.0731 -1.0587 -1.1154
 9760TIP3   OH250694   1.648   1.826   3.554 -0.1588 -0.1758 -0.0314
 9760TIP3    H150695   1.592   1.833   3.476 -0.0591  2.4437  0.0457
 9760TIP3    H250696   1.736   1.846   3.521 -0.3933  3.1138  0.9613
 9761TIP3   OH250697   3.840   3.677   3.262 -0.1466 -0.1393  0.1805
 9761TIP3    H150698   3.900   3.746   3.290 -2.3290  1.2280  1.8828
 9761TIP3    H250699   3.756   3.721   3.251 -1.6611 -2.4993  1.3619
 9762TIP3   OH250700   5.457   5.792  13.302  0.3335  0.2039 -0.2000
 9762TIP3    H150701   5.541   5.762  13.336  0.1391 -0.8093 -0.5626
 9762TIP3    H250702   5.461   5.772  13.208  0.3019  1.6278 -0.5313
 9763TIP3   OH250703   2.073   3.725   6.452  0.2349  0.3159 -0.3554
 9763TIP3    H150704   2.008   3.750   6.517  0.2756 -0.1398 -0.1361
 9763TIP3    H250705   2.029   3.734   6.368 -1.1274 -2.7804 -0.1269
 9764TIP3   OH250706   3.745   3.690   1.114  0.1094  0.0897 -0.0711
 9764TIP3    H150707   3.731   3.780   1.143 -1.5879  0.6025 -2.2206
 9764TIP3    H250708   3.671   3.672   1.056  3.0303 -0.8617 -3.8951
 9765TIP3   OH250709   6.558   1.996  14.110 -0.3708 -0.0053  0.2876
 9765TIP3    H150710   6.530   2.073  14.061  0.4379 -0.0642 -0.2737
 9765TIP3    H250711   6.651   1.985  14.089 -0.1523 -0.3823  1.3638
 9766TIP3   OH250712   3.624   4.803   5.481 -0.4980 -0.1442 -0.1566
 9766TIP3    H150713   3.709   4.793   5.522 -0.2227  1.1182 -0.3668
 9766TIP3    H250714   3.623   4.894   5.451 -1.7107 -0.2954 -0.6216
 9767TIP3   OH250715   6.451   6.502  17.004  0.0340  0.0833 -0.0633
 9767TIP3    H150716   6.403   6.538  16.930  0.7092 -0.7836 -0.9459
 9767TIP3    H250717   6.404   6.535  17.081 -2.5089 -1.4120 -0.8682
 9768TIP3   OH250718   6.161   0.626   1.666 -0.2616  0.2870  0.3316
 9768TIP3    H150719   6.225   0.628   1.737 -2.0839 -0.2278  2.1187
 9768TIP3    H250720   6.076   0.624   1.711 -1.6284  2.5698 -1.8913
 9769TIP3   OH250721   4.170   2.619  12.099 -0.4718 -0.2761 -0.3091
 9769TIP3    H150722   4.203   2.705  12.125 -2.5719  0.1103  1.3430
 9769TIP3    H250723   4.165   2.622  12.004 -2.9271  2.4584 -0.2111
 9770TIP3   OH250724   2.918   2.407  12.151  0.8830 -0.4906 -0.3758
 9770TIP3    H150725   2.983   2.386  12.084 -0.1599 -1.1314 -1.2295
 9770TIP3    H250726   2.932   2.499  12.171  2.8625 -0.9171  0.3948
 9771TIP3   OH250727   3.455   4.300   2.413  0.1495  0.3615  0.6651
 9771TIP3    H150728   3.385   4.280   2.351  1.0921  1.4622 -0.8406
 9771TIP3    H250729   3.516   4.356   2.364  3.2434 -2.2596  1.1756
 9772TIP3   OH250730   0.790   0.492   5.604  0.1328 -0.5934 -0.0546
 9772TIP3    H150731   0.813   0.570   5.554 -1.7475  0.0850  0.0873
 9772TIP3    H250732   0.872   0.442   5.609  1.5892  1.6789  0.4673
 9773TIP3   OH250733   4.200   3.184   3.659  0.7405 -0.6422 -0.2454
 9773TIP3    H150734   4.257   3.141   3.595  1.9677  0.2940  0.1836
 9773TIP3    H250735   4.126   3.214   3.608  0.7460 -1.6260 -0.8742
 9774TIP3   OH250736   5.866   2.215   4.891 -0.1336 -0.7170 -0.4268
 9774TIP3    H150737   5.804   2.142   4.887 -1.0938  0.1260 -2.7893
 9774TIP3    H250738   5.909   2.216   4.805  1.5992  0.0733  0.3842
 9775TIP3   OH250739   5.156   4.303  15.347  0.2214  1.0522 -0.0807
 9775TIP3    H150740   5.086   4.367  15.336  0.7009  1.5374 -0.3423
 9775TIP3    H250741   5.111   4.223  15.375 -0.6888  0.7703 -2.1206
 9776TIP3   OH250742   6.547   4.014  13.476 -0.1529  0.1791 -0.4477
 9776TIP3    H150743   6.475   4.036  13.535  0.0283 -2.7163  1.0319
 9776TIP3    H250744   6.504   3.973  13.400 -0.1447 -0.1663 -0.2657
 9777TIP3   OH250745   4.314   5.296   5.580  0.4516  0.2936  0.3130
 9777TIP3    H150746   4.398   5.338   5.559 -0.2112  0.8259 -1.4683
 9777TIP3    H250747   4.294   5.243   5.503 -0.9152  0.2686  0.6607
 9778TIP3   OH250748   1.035   4.751   5.998 -0.1062  0.8620  0.0088
 9778TIP3    H150749   1.104   4.686   5.992 -1.8522 -0.9312 -3.5088
 9778TIP3    H250750   0.968   4.710   6.053 -2.5361 -2.0965 -4.5150
 9779TIP3   OH250751   0.008   5.771  13.571  0.6699  0.1140  0.2977
 9779TIP3    H150752  -0.005   5.677  13.582 -1.8608  0.5279  1.6339
 9779TIP3    H250753   0.059   5.797  13.648 -1.9643  0.3307  2.0949
 9780TIP3   OH250754   4.214   3.438  12.869 -0.2007  0.4791 -0.6212
 9780TIP3    H150755   4.201   3.497  12.795  0.0791  1.6979  0.2822
 9780TIP3    H250756   4.284   3.477  12.920 -0.5495 -0.2152  0.4314
 9781TIP3   OH250757   2.059   5.899   1.708 -0.6742  0.0853  0.2258
 9781TIP3    H150758   2.015   5.851   1.638 -1.8223  0.8374  0.3937
 9781TIP3    H250759   2.084   5.983   1.669  0.2029 -0.1476  0.2680
 9782TIP3   OH250760   4.115   1.978   2.328 -0.1960  0.2352  0.1397
 9782TIP3    H150761   4.207   1.989   2.353  0.2156  1.5154 -1.6958
 9782TIP3    H250762   4.069   1.963   2.410  1.9454 -3.0009  0.9351
 9783TIP3   OH250763   6.120   4.347   2.178 -0.0155  0.7534 -0.0932
 9783TIP3    H150764   6.042   4.376   2.225  0.1460 -0.0644  0.6922
 9783TIP3    H250765   6.192   4.362   2.239  0.0533 -1.4479  0.4541
 9784TIP3   OH250766   3.445   2.609   4.790 -0.2959 -0.7392  0.1836
 9784TIP3    H150767   3.409   2.672   4.728  0.3861  1.4428  1.8651
 9784TIP3    H250768   3.377   2.599   4.857  0.5553  0.2124  1.2306
 9785TIP3   OH250769   0.244   3.061  14.767  0.2725  0.4041  0.2592
 9785TIP3    H150770   0.181   3.023  14.827 -1.3419  0.0366 -1.5818
 9785TIP3    H250771   0.220   3.154  14.761  0.1090  0.3373 -0.1775
 9786TIP3   OH250772   6.490   4.847   3.837 -0.3963 -0.1324 -0.5190
 9786TIP3    H150773   6.433   4.895   3.777 -0.9497 -0.6259 -0.3958
 9786TIP3    H250774   6.545   4.794   3.780 -0.3518  0.0190 -0.6190
 9787TIP3   OH250775   5.415   4.809   0.056  0.1764 -0.2698 -0.0350
 9787TIP3    H150776   5.328   4.809   0.016  0.2672  0.9446 -0.2871
 9787TIP3    H250777   5.460   4.884   0.015  1.2492 -0.7223  0.2788
 9788TIP3   OH250778   4.218   1.477   2.443 -0.3003 -0.0388 -0.3513
 9788TIP3    H150779   4.188   1.481   2.352 -0.5042 -0.9061 -0.3304
 9788TIP3    H250780   4.146   1.435   2.490 -0.3017  0.6490  0.2614
 9789TIP3   OH250781   1.075   4.060  16.953  0.4970 -0.1372 -0.1866
 9789TIP3    H150782   0.979   4.061  16.950  0.4811 -1.0102 -0.2344
 9789TIP3    H250783   1.100   4.152  16.965 -0.4270 -0.1187  2.0431
 9790TIP3   OH250784   3.017   2.426   2.746  0.3298  0.4006  0.3144
 9790TIP3    H150785   3.007   2.477   2.826 -0.2145  2.3859 -0.9362
 9790TIP3    H250786   3.111   2.408   2.741  0.3535  0.1346  1.4303
 9791TIP3   OH250787   2.357   1.803  13.029 -0.0881 -0.8178  0.2118
 9791TIP3    H150788   2.320   1.878  13.074  0.1130 -0.2782 -0.4985
 9791TIP3    H250789   2.336   1.728  13.085 -1.6547 -0.4483  0.1678
 9792TIP3   OH250790   6.424   1.886  16.766  0.1290  0.3463 -0.6494
 9792TIP3    H150791   6.378   1.919  16.843 -0.4090 -1.7072 -0.0147
 9792TIP3    H250792   6.473   1.961  16.733 -0.3160  1.5072  1.1832
 9793TIP3   OH250793   0.525   5.635   6.416 -0.4100 -0.3634  0.3340
 9793TIP3    H150794   0.451   5.696   6.416  0.0506  0.2194 -0.5456
 9793TIP3    H250795   0.557   5.637   6.326 -0.1597 -1.6473  0.3860
 9794TIP3   OH250796   3.742   4.199   3.894  0.0822  0.2547 -0.4562
 9794TIP3    H150797   3.659   4.204   3.847 -0.8130 -1.0472  0.8877
 9794TIP3    H250798   3.742   4.275   3.952 -0.7163 -0.3099  0.3169
 9795TIP3   OH250799   0.937   2.842  16.445  0.0026 -0.1107  0.5758
 9795TIP3    H150800   0.906   2.830  16.355  0.8882  1.1142  0.0753
 9795TIP3    H250801   0.875   2.793  16.499 -1.1482 -0.0102 -0.6136
 9796TIP3   OH250802   5.014   1.935  16.472 -0.9217 -0.0925  0.3488
 9796TIP3    H150803   5.058   1.979  16.399 -2.4364  0.1854 -0.4340
 9796TIP3    H250804   4.939   1.992  16.492  0.5984  1.0093  3.5869
 9797TIP3   OH250805   2.063   3.424  15.293 -0.3426 -0.0532 -0.2391
 9797TIP3    H150806   2.079   3.330  15.289  2.0718  0.1919  1.4592
 9797TIP3    H250807   2.137   3.463  15.247  0.1754  1.0539  1.4384
 9798TIP3   OH250808   2.079   5.203  13.103  0.0169  0.4954 -0.4144
 9798TIP3    H150809   2.039   5.172  13.183  1.3122  0.1351  0.1166
 9798TIP3    H250810   2.016   5.182  13.034 -0.5471 -0.3471  0.3486
 9799TIP3   OH250811   0.901   4.792  13.839  0.5650 -0.7605  0.2963
 9799TIP3    H150812   0.940   4.746  13.765  1.8383 -0.2600  0.6245
 9799TIP3    H250813   0.916   4.735  13.914  0.1107 -0.8437  0.3249
 9800TIP3   OH250814   0.150   6.660  17.076 -0.1492 -0.2191  0.4375
 9800TIP3    H150815   0.120   6.731  17.133 -0.9276  0.1807 -0.4353
 9800TIP3    H250816   0.128   6.580  17.124 -1.0224  0.1031  0.6032
 9801TIP3   OH250817   6.735   5.903   2.440 -0.2409 -0.3256 -0.0327
 9801TIP3    H150818   6.645   5.933   2.423  0.3189  0.8518 -1.1010
 9801TIP3    H250819   6.760   5.857   2.360  1.2095  2.2132 -1.1723
 9802TIP3   OH250820   5.141   4.078   5.439  0.0044 -0.0204 -0.1641
 9802TIP3    H150821   5.197   4.151   5.465  0.6134 -0.7078  0.5076
 9802TIP3    H250822   5.145   4.017   5.513 -1.2899 -0.2849 -0.2861
 9803TIP3   OH250823   4.133   3.971   5.182  0.2251  0.0926  0.3234
 9803TIP3    H150824   4.139   4.062   5.210 -1.2970  0.7697 -1.3705
 9803TIP3    H250825   4.182   3.968   5.100 -2.2457  0.1841 -1.2526
 9804TIP3   OH250826   3.330   5.227   2.702 -0.4294  0.4628 -0.0883
 9804TIP3    H150827   3.391   5.292   2.665  2.0017 -2.2095 -1.1267
 9804TIP3    H250828   3.287   5.189   2.625 -1.9652  0.9169  0.5206
 9805TIP3   OH250829   0.282   3.383   6.189  0.3852 -0.1106 -0.1356
 9805TIP3    H150830   0.356   3.441   6.207  0.4498 -0.5048  0.9607
 9805TIP3    H250831   0.259   3.346   6.275 -0.6686 -0.4899 -0.5628
 9806TIP3   OH250832   3.031   4.109  16.535 -0.2563  0.0307  0.1412
 9806TIP3    H150833   3.041   4.065  16.620 -1.7764  2.1655  1.5238
 9806TIP3    H250834   3.071   4.194  16.547 -3.0560  1.5329 -0.2268
 9807TIP3   OH250835   0.898   2.498  11.646  0.7056  0.6093  0.3862
 9807TIP3    H150836   0.962   2.526  11.711  0.4707  1.0462  0.4347
 9807TIP3    H250837   0.837   2.571  11.639  0.7634  0.6014 -0.3786
 9808TIP3   OH250838   1.253   0.892   1.231 -0.0937 -0.7245  0.3773
 9808TIP3    H150839   1.293   0.866   1.148  0.4414  2.3102 -0.4587
 9808TIP3    H250840   1.326   0.901   1.292 -0.2211 -0.8788  0.5535
 9809TIP3   OH250841   5.691   4.578   5.967  0.1307 -0.0721 -0.0204
 9809TIP3    H150842   5.658   4.635   6.036 -0.8296 -0.9204  0.2350
 9809TIP3    H250843   5.786   4.590   5.971  0.0027  0.9034  0.5448
 9810TIP3   OH250844   3.133   1.786  17.296  0.5221 -0.1942 -0.0731
 9810TIP3    H150845   3.155   1.804  17.388  1.0353 -0.6503 -0.0979
 9810TIP3    H250846   3.188   1.845  17.246  0.4538 -0.1479 -0.0935
 9811TIP3   OH250847   6.387   4.868   4.363 -0.8738 -0.5527  0.3518
 9811TIP3    H150848   6.382   4.893   4.271  1.4633 -1.0902 -0.0010
 9811TIP3    H250849   6.400   4.774   4.363  0.4307 -0.4109  1.1219
 9812TIP3   OH250850   3.662   6.337   4.714  0.1110  1.1581 -0.1404
 9812TIP3    H150851   3.679   6.306   4.804 -0.0071  0.2405 -0.4176
 9812TIP3    H250852   3.579   6.296   4.691  0.7744  0.3293 -1.1299
 9813TIP3   OH250853   0.052   2.188  15.182  0.2151 -0.0368  0.4893
 9813TIP3    H150854  -0.021   2.226  15.132  0.4758 -1.3477 -0.9751
 9813TIP3    H250855   0.053   2.237  15.264 -0.4385  2.0243 -0.6466
 9814TIP3   OH250856   1.913   4.988  12.446 -0.1334 -0.1509  0.2157
 9814TIP3    H150857   1.922   4.983  12.542 -0.6409 -1.0032  0.2308
 9814TIP3    H250858   1.827   5.026  12.432 -1.3065 -2.6074  0.1456
 9815TIP3   OH250859   3.739   1.961   3.149  0.1989  0.4045  0.0477
 9815TIP3    H150860   3.795   2.039   3.153 -1.6539  1.8488 -0.5149
 9815TIP3    H250861   3.756   1.915   3.231  0.2934  2.1882  1.0964
 9816TIP3   OH250862   1.964   1.271   6.040 -0.0962  0.2365 -0.7040
 9816TIP3    H150863   1.894   1.317   6.087 -0.5448 -1.0010 -0.1311
 9816TIP3    H250864   2.030   1.253   6.107 -1.1785 -2.4309 -0.2184
 9817TIP3   OH250865   3.736   2.139   3.504 -0.1405  0.0063 -0.0469
 9817TIP3    H150866   3.698   2.085   3.435  1.2729 -1.4342  0.2386
 9817TIP3    H250867   3.690   2.112   3.583  0.6927 -0.9510  0.1259
 9818TIP3   OH250868   6.460   2.802  15.882 -0.5772 -0.6070  0.0771
 9818TIP3    H150869   6.486   2.865  15.814 -0.5543 -1.4082 -0.6796
 9818TIP3    H250870   6.414   2.855  15.947  0.8054  0.4384  0.2419
 9819TIP3   OH250871   2.270   0.945  15.401 -0.0954  0.3866 -0.1463
 9819TIP3    H150872   2.242   1.013  15.340  2.4551  1.6421 -0.0876
 9819TIP3    H250873   2.336   0.988  15.456 -1.2283 -1.0995  2.5729
 9820TIP3   OH250874   3.100   5.190  13.740  0.6607  0.2820  0.1307
 9820TIP3    H150875   3.191   5.203  13.768  0.5789 -0.2016  0.6208
 9820TIP3    H250876   3.103   5.112  13.685  0.8423  1.2886 -1.3539
 9821TIP3   OH250877   5.113   4.999  16.515 -0.4496 -0.4390  0.0943
 9821TIP3    H150878   5.208   4.986  16.517 -0.4509 -0.4029  1.9245
 9821TIP3    H250879   5.100   5.068  16.450  0.9596  0.6629  0.9105
 9822TIP3   OH250880   2.601   0.362  14.670  0.0374 -0.3887  0.0446
 9822TIP3    H150881   2.616   0.283  14.720  0.9177 -0.2503  0.0177
 9822TIP3    H250882   2.622   0.338  14.580 -0.3732 -0.3138 -0.0735
 9823TIP3   OH250883   2.355   5.757  12.472  0.1985 -0.4563  0.0794
 9823TIP3    H150884   2.294   5.814  12.426 -1.5069  0.0313  2.7059
 9823TIP3    H250885   2.313   5.671  12.471 -0.0423 -0.3639  0.9257
 9824TIP3   OH250886   1.165   6.038  11.761  0.5497  0.1492  0.0405
 9824TIP3    H150887   1.139   6.041  11.669  1.7283  1.0970 -0.2825
 9824TIP3    H250888   1.135   5.952  11.792 -0.9723  0.3235 -0.8716
 9825TIP3   OH250889   5.303   3.490   1.179  0.2758 -0.1544  0.6368
 9825TIP3    H150890   5.293   3.438   1.259 -0.5444  0.5758  1.0252
 9825TIP3    H250891   5.237   3.559   1.187  2.7312  2.3259  1.2333
 9826TIP3   OH250892   5.628   3.609  15.585 -0.1247  0.0770 -0.7718
 9826TIP3    H150893   5.665   3.681  15.534 -0.9291 -0.4581 -2.1339
 9826TIP3    H250894   5.534   3.611  15.566 -0.4522 -0.1363  0.6933
 9827TIP3   OH250895   1.332   2.623   4.849 -0.0857 -0.3652  0.6005
 9827TIP3    H150896   1.266   2.567   4.807  1.7916 -1.2415 -1.3556
 9827TIP3    H250897   1.407   2.564   4.864  1.7320  1.4195 -0.9522
 9828TIP3   OH250898   2.567   3.300   5.935  0.2538 -0.6364 -0.2151
 9828TIP3    H150899   2.643   3.243   5.946  0.2040 -0.5096  0.9478
 9828TIP3    H250900   2.563   3.351   6.016  0.4525  1.2449 -1.3223
 9829TIP3   OH250901   3.515   3.190   5.610 -0.1252 -0.3982  0.2117
 9829TIP3    H150902   3.610   3.185   5.601 -0.0230 -0.0937  1.0104
 9829TIP3    H250903   3.484   3.224   5.526  0.6000  0.8012  0.4106
 9830TIP3   OH250904   2.703   0.507   2.649 -0.4836  0.1861 -0.3179
 9830TIP3    H150905   2.674   0.429   2.695 -2.1627  1.0262  0.1221
 9830TIP3    H250906   2.688   0.488   2.556 -2.2209  0.4613 -0.1247
 9831TIP3   OH250907   4.714   3.276   5.734 -0.0488 -0.6256  0.4182
 9831TIP3    H150908   4.753   3.327   5.664 -2.3165  1.7732  0.7273
 9831TIP3    H250909   4.731   3.327   5.813 -1.2008 -1.0347  0.9588
 9832TIP3   OH250910   1.826   3.782   5.440  0.2869 -0.5010 -0.4294
 9832TIP3    H150911   1.781   3.703   5.409 -0.1743 -0.6526  0.5929
 9832TIP3    H250912   1.759   3.828   5.491  0.9776 -0.1752  0.1909
 9833TIP3   OH250913   5.819   0.276   4.486 -0.4496 -0.0049  0.5234
 9833TIP3    H150914   5.892   0.283   4.547 -0.3069 -0.4110  0.4021
 9833TIP3    H250915   5.820   0.358   4.437  0.2859 -0.2396  0.1301
 9834TIP3   OH250916   5.288   0.427   3.926 -0.4444 -0.2800 -0.1475
 9834TIP3    H150917   5.376   0.396   3.944 -0.6028 -0.6164  0.0597
 9834TIP3    H250918   5.280   0.508   3.978 -0.5334 -0.6778  0.4665
 9835TIP3   OH250919   1.519   5.078  10.666  0.0276 -0.3832 -0.1071
 9835TIP3    H150920   1.427   5.077  10.639  0.3913  0.6115 -1.4487
 9835TIP3    H250921   1.521   5.138  10.741 -0.4418 -0.5821  0.0693
 9836TIP3   OH250922   1.930   0.639  13.429 -0.5112  0.6226 -0.2746
 9836TIP3    H150923   1.857   0.593  13.471  0.9681 -0.4136  1.2868
 9836TIP3    H250924   1.890   0.719  13.393 -2.0484  1.2544  2.5092
 9837TIP3   OH250925   2.157   4.364   1.568  0.6409  0.0456 -0.6720
 9837TIP3    H150926   2.142   4.272   1.547  0.6578 -0.2318  0.4999
 9837TIP3    H250927   2.085   4.410   1.525 -0.7538 -0.7621  0.6840
 9838TIP3   OH250928   2.522   3.991   0.424 -0.6042 -0.4218  0.2927
 9838TIP3    H150929   2.517   4.008   0.330  0.3291  0.2191  0.3440
 9838TIP3    H250930   2.464   4.056   0.464 -0.9930 -0.6881  0.1664
 9839TIP3   OH250931   2.735   1.047   4.600  0.1182  0.2242 -0.1963
 9839TIP3    H150932   2.747   1.081   4.511  0.2781  0.4328 -0.0953
 9839TIP3    H250933   2.819   1.061   4.643  0.1169 -0.1045 -0.0872
 9840TIP3   OH250934   2.058   3.791  15.493  0.5063  0.6484  0.2766
 9840TIP3    H150935   1.978   3.738  15.494 -0.1077  1.5521  1.0269
 9840TIP3    H250936   2.109   3.758  15.567  0.2522  0.9171  0.5719
 9841TIP3   OH250937   3.058   2.324   4.882  0.1558  0.2460  0.1218
 9841TIP3    H150938   3.094   2.264   4.948  1.4900  0.3869 -0.4418
 9841TIP3    H250939   3.062   2.274   4.801  2.7199  1.5363 -0.6532
 9842TIP3   OH250940   4.099   0.290  11.276 -0.0776  0.7700 -0.0040
 9842TIP3    H150941   4.055   0.273  11.359  1.2753 -0.4779  0.4946
 9842TIP3    H250942   4.046   0.245  11.210  0.5564 -0.9795  0.6280
 9843TIP3   OH250943   2.415   3.767   6.187 -0.2272  0.0584 -0.0033
 9843TIP3    H150944   2.416   3.672   6.181 -1.8896 -0.0227  0.5734
 9843TIP3    H250945   2.364   3.786   6.266  1.3108  1.4095  0.7413
 9844TIP3   OH250946   0.617   6.709   0.415  0.6631 -0.1494 -0.3285
 9844TIP3    H150947   0.645   6.652   0.344  0.1201 -0.4831 -0.2800
 9844TIP3    H250948   0.585   6.650   0.483 -1.7275  0.1991 -1.0312
 9845TIP3   OH250949   1.168   1.816   1.002 -0.1593 -0.3915 -0.1213
 9845TIP3    H150950   1.163   1.910   0.989  1.1935 -0.5184 -1.8061
 9845TIP3    H250951   1.077   1.786   1.001 -0.5139  0.6977 -1.1107
 9846TIP3   OH250952   2.927   1.772   1.697  0.0749  0.6589  0.3363
 9846TIP3    H150953   3.000   1.744   1.643 -0.2175  0.9839 -0.2400
 9846TIP3    H250954   2.849   1.753   1.644 -0.2572  0.3501  0.9214
 9847TIP3   OH250955   0.330   5.956  13.968  0.2829  0.0098 -0.7702
 9847TIP3    H150956   0.421   5.960  13.998  0.3591  0.4785 -1.0502
 9847TIP3    H250957   0.286   5.899  14.031  1.2766 -2.2052 -1.9236
 9848TIP3   OH250958   0.853   2.487  17.354 -0.3947  0.4113 -0.2224
 9848TIP3    H150959   0.849   2.568  17.405 -0.7931  0.1843  0.1164
 9848TIP3    H250960   0.783   2.497  17.289 -1.0917 -0.0575  0.4313
 9849TIP3   OH250961   5.864   0.700   1.059 -0.2753  0.1165 -0.1786
 9849TIP3    H150962   5.872   0.612   1.022  2.1460 -1.7062  4.0004
 9849TIP3    H250963   5.946   0.744   1.035  0.8419 -0.7132  1.8881
 9850TIP3   OH250964   2.414   4.350   1.292  0.3526 -0.1577 -0.3854
 9850TIP3    H150965   2.375   4.263   1.295  3.1687 -1.6107 -1.7491
 9850TIP3    H250966   2.372   4.393   1.217  0.8427 -1.4427 -1.4370
 9851TIP3   OH250967   6.687   6.243   0.973 -0.1942 -0.3940  0.3878
 9851TIP3    H150968   6.644   6.329   0.970  2.7883  1.2774  1.3673
 9851TIP3    H250969   6.716   6.227   0.884  1.0282  0.6929  0.5548
 9852TIP3   OH250970   5.394   3.679   0.893 -0.6604 -0.0038 -0.0807
 9852TIP3    H150971   5.347   3.600   0.922 -0.7088 -0.0475 -0.2752
 9852TIP3    H250972   5.365   3.692   0.803  1.1143 -1.1183 -0.8663
 9853TIP3   OH250973   3.026   5.355  14.343  0.0111 -0.0028 -0.1440
 9853TIP3    H150974   3.033   5.335  14.437  0.1089 -0.2779 -0.2072
 9853TIP3    H250975   2.991   5.274  14.305 -0.7574  0.3685 -0.2376
 9854TIP3   OH250976   4.840   5.148  13.466 -0.6247  0.3247  0.3596
 9854TIP3    H150977   4.758   5.183  13.432  0.0650  0.4227 -1.2836
 9854TIP3    H250978   4.854   5.196  13.548 -2.2410  0.2294  0.7295
 9855TIP3   OH250979   6.458   5.216  11.900 -0.3750  0.1036  0.4472
 9855TIP3    H150980   6.382   5.158  11.890 -0.8721  0.8082  0.1129
 9855TIP3    H250981   6.420   5.301  11.925  0.4214 -0.0133  2.2094
 9856TIP3   OH250982   3.408   0.877  16.098 -0.3286  0.6251 -0.0636
 9856TIP3    H150983   3.411   0.861  16.004 -0.6174 -1.6381  0.2385
 9856TIP3    H250984   3.338   0.820  16.130  1.0667 -0.2117  1.7534
 9857TIP3   OH250985   1.022   2.852  14.760  0.5038 -0.6043  0.8853
 9857TIP3    H150986   1.053   2.907  14.832 -1.0702 -1.1757  2.0725
 9857TIP3    H250987   1.044   2.763  14.787  2.3135 -0.6819 -0.6469
 9858TIP3   OH250988   6.520   2.069  15.331  0.4907  0.0221  0.0380
 9858TIP3    H150989   6.610   2.043  15.350  0.9914 -0.1063 -2.2235
 9858TIP3    H250990   6.493   2.012  15.258 -0.2097  2.2760 -1.5852
 9859TIP3   OH250991   0.119   1.997   5.017 -0.1953  0.0316 -0.0982
 9859TIP3    H150992   0.050   1.948   5.062  0.4041 -1.3114 -0.5834
 9859TIP3    H250993   0.190   2.002   5.080 -0.8125  1.6811  0.5111
 9860TIP3   OH250994   0.863   4.795   0.576 -0.0275  0.3799 -0.3144
 9860TIP3    H150995   0.826   4.863   0.631  0.8407  0.9454 -0.4069
 9860TIP3    H250996   0.850   4.827   0.486  2.0302  1.3624 -0.3243
 9861TIP3   OH250997   6.169   2.506   1.277  0.0141  0.1558 -0.3442
 9861TIP3    H150998   6.167   2.413   1.300 -2.2148  0.3583  0.5598
 9861TIP3    H250999   6.206   2.508   1.188 -0.2054 -1.6338 -0.5170
 9862TIP3   OH251000   1.766   3.811  12.858  0.0411 -0.1701  0.1451
 9862TIP3    H151001   1.758   3.732  12.806  0.1704  0.2841 -0.5841
 9862TIP3    H251002   1.835   3.792  12.922 -0.8142 -1.0837  0.8166
 9863TIP3   OH251003   5.221   5.831  10.539 -0.0086 -0.0792 -0.3300
 9863TIP3    H151004   5.263   5.777  10.472  0.5135 -3.0292  2.1735
 9863TIP3    H251005   5.134   5.794  10.549  0.1222 -0.0581  1.0132
 9864TIP3   OH251006   5.369   2.173  15.024  0.5422  0.0673  0.5927
 9864TIP3    H151007   5.399   2.255  15.063  1.2161 -0.0072  0.2472
 9864TIP3    H251008   5.277   2.167  15.048  0.0281  1.7598 -0.7517
 9865TIP3   OH251009   3.208   0.274   3.802 -0.2073 -0.6527 -0.1425
 9865TIP3    H151010   3.267   0.262   3.876  1.0176  2.3122 -0.5106
 9865TIP3    H251011   3.126   0.232   3.830  0.7770 -1.2257  2.0996
 9866TIP3   OH251012   4.093   5.503   4.487  0.3512 -0.1033  0.0583
 9866TIP3    H151013   4.180   5.543   4.488  0.0201  0.6967  2.4070
 9866TIP3    H251014   4.048   5.545   4.414  1.6899 -0.0589 -0.7895
 9867TIP3   OH251015   0.979   5.142   2.091  0.2312  0.6279 -0.0378
 9867TIP3    H151016   1.046   5.076   2.076  0.6429  0.7558  1.1463
 9867TIP3    H251017   0.896   5.094   2.085  0.4903  0.1671  0.0390
 9868TIP3   OH251018   5.640   4.019   4.831  0.0318  0.0816  0.2161
 9868TIP3    H151019   5.669   4.109   4.845 -0.1091  0.2166 -0.3187
 9868TIP3    H251020   5.670   3.998   4.743 -0.0261 -0.3608  0.3003
 9869TIP3   OH251021   2.573   4.778   3.658  0.1190 -0.2625 -0.3768
 9869TIP3    H151022   2.498   4.761   3.714  1.2171 -0.3242  1.1195
 9869TIP3    H251023   2.586   4.697   3.609  0.7489 -1.1743  1.2394
 9870TIP3   OH251024   1.443   2.838   1.276 -0.1964  0.2223  0.2362
 9870TIP3    H151025   1.360   2.793   1.288  0.1248 -0.1416  1.1995
 9870TIP3    H251026   1.491   2.784   1.213  0.7039 -1.5826  2.3350
 9871TIP3   OH251027   5.410   0.371   5.829  0.1827 -1.0654 -0.0078
 9871TIP3    H151028   5.454   0.328   5.757 -0.8551 -2.2478  0.0215
 9871TIP3    H251029   5.434   0.320   5.906  0.3484 -0.5237  0.3030
 9872TIP3   OH251030   4.850   6.084  11.976  0.7993  0.2677  0.6043
 9872TIP3    H151031   4.820   6.149  11.912 -1.0447 -0.3882  0.7561
 9872TIP3    H251032   4.777   6.074  12.037  1.4024 -1.2701  1.1230
 9873TIP3   OH251033   2.177   0.274  13.399 -0.0403 -0.5241  0.3040
 9873TIP3    H151034   2.269   0.270  13.427  0.6647 -1.2633 -1.8808
 9873TIP3    H251035   2.175   0.345  13.335 -0.7205 -1.2278 -0.4812
 9874TIP3   OH251036   0.983   2.564   5.204  0.1885  0.1661 -0.6925
 9874TIP3    H151037   0.893   2.596   5.214 -0.0384 -0.7076  0.2132
 9874TIP3    H251038   1.009   2.594   5.117 -1.4656 -0.6806 -1.5508
 9875TIP3   OH251039   2.997   2.576  13.137  0.2700  0.4671 -0.3637
 9875TIP3    H151040   3.065   2.638  13.165  0.6903  0.4675 -1.3749
 9875TIP3    H251041   2.921   2.599  13.191  1.7253 -1.1409  2.6370
 9876TIP3   OH251042   3.527   3.678  14.847 -0.8036 -0.3348  0.0471
 9876TIP3    H151043   3.543   3.584  14.862  1.3031 -0.3568 -1.8159
 9876TIP3    H251044   3.530   3.688  14.752 -1.5350  1.5720  0.1815
 9877TIP3   OH251045   1.801   5.404   3.671  0.0645  0.3028  0.4509
 9877TIP3    H151046   1.882   5.358   3.649  1.9706  1.9521  3.3727
 9877TIP3    H251047   1.790   5.468   3.601  0.3419 -1.0080 -0.8306
 9878TIP3   OH251048   5.526   2.150  16.507  0.7310 -0.1054  0.5408
 9878TIP3    H151049   5.464   2.124  16.574  0.4392  2.8466  1.5776
 9878TIP3    H251050   5.612   2.133  16.546  0.6149  2.9172  2.4845
 9879TIP3   OH251051   6.309   4.012   1.269  0.3847  0.4521 -0.1828
 9879TIP3    H151052   6.390   3.963   1.277 -0.4155 -1.1590 -1.3383
 9879TIP3    H251053   6.258   3.964   1.203 -1.6607  1.2001  0.7609
 9880TIP3   OH251054   1.897   1.590   3.783 -0.3696  0.2055  0.2558
 9880TIP3    H151055   1.924   1.663   3.726  0.3189 -1.0106 -1.0310
 9880TIP3    H251056   1.960   1.592   3.855 -1.5819  2.1074  1.3557
 9881TIP3   OH251057   5.983   5.863   3.899 -0.9656  0.6029 -0.3151
 9881TIP3    H151058   6.070   5.832   3.873 -0.6524 -0.0607  1.4142
 9881TIP3    H251059   5.938   5.879   3.816  0.3165 -0.4043 -1.2551
 9882TIP3   OH251060   1.600   2.319   4.598 -0.8203  0.3108 -1.0561
 9882TIP3    H151061   1.623   2.399   4.645  3.1354 -0.7858 -0.7374
 9882TIP3    H251062   1.550   2.349   4.523 -0.2713  2.9895 -0.4593
 9883TIP3   OH251063   3.861   2.499  16.011 -0.0533 -0.1307 -0.0169
 9883TIP3    H151064   3.898   2.525  16.095 -0.6611 -0.5263  0.3910
 9883TIP3    H251065   3.933   2.456  15.964  0.1800 -0.2817  0.4775
 9884TIP3   OH251066   4.732   1.175  17.055 -0.3572  0.4489  0.2300
 9884TIP3    H151067   4.664   1.227  17.012 -0.0771  1.4213  0.9346
 9884TIP3    H251068   4.745   1.101  16.996 -0.5712  1.3139 -0.9567
 9885TIP3   OH251069   5.831   5.126  11.097 -0.1033  0.2595  0.3705
 9885TIP3    H151070   5.822   5.199  11.036  0.3748  0.6295  0.7358
 9885TIP3    H251071   5.885   5.063  11.049 -1.4330 -0.3531 -0.3725
 9886TIP3   OH251072   4.151   5.895  16.725  0.0259  0.3828 -0.0860
 9886TIP3    H151073   4.119   5.820  16.674 -1.6750  1.3751 -0.5858
 9886TIP3    H251074   4.113   5.971  16.680  0.8728  1.4728  1.0028
 9887TIP3   OH251075   0.402   3.866   1.906  0.1529 -0.3560 -0.3108
 9887TIP3    H151076   0.413   3.829   1.819 -0.4435  0.9234 -0.9709
 9887TIP3    H251077   0.400   3.961   1.891 -1.5624 -0.1625  0.8825
 9888TIP3   OH251078   2.951   3.885   6.659 -0.3767  0.2625  0.3112
 9888TIP3    H151079   3.031   3.926   6.692 -1.1613  2.4814 -0.3689
 9888TIP3    H251080   2.982   3.806   6.614  1.2506  0.2673  1.3432
 9889TIP3   OH251081   3.257   3.657  12.347 -0.1980  0.2098  0.1123
 9889TIP3    H151082   3.286   3.617  12.265 -0.1494 -0.8354  0.6144
 9889TIP3    H251083   3.228   3.744  12.322 -2.1332 -0.7749 -1.3900
 9890TIP3   OH251084   1.353   4.423  14.848 -0.3964  0.2073  0.2851
 9890TIP3    H151085   1.429   4.473  14.819  1.4956 -1.1690  2.5200
 9890TIP3    H251086   1.334   4.363  14.775  0.3026  0.9448 -0.5262
 9891TIP3   OH251087   1.534   2.228  15.551 -0.9397 -0.0651  0.3034
 9891TIP3    H151088   1.592   2.238  15.476 -0.5030 -1.3215  0.4477
 9891TIP3    H251089   1.486   2.147  15.534 -1.5648  0.1686  0.9017
 9892TIP3   OH251090   5.600   4.429  16.702 -0.0649 -0.6566 -0.0243
 9892TIP3    H151091   5.695   4.436  16.712  0.0019 -0.6226 -0.6785
 9892TIP3    H251092   5.586   4.353  16.647 -0.3903 -0.3269 -0.4077
 9893TIP3   OH251093   2.929   1.473  10.941  0.0480  0.4676 -0.3976
 9893TIP3    H151094   3.008   1.524  10.960 -1.4128  3.1596 -1.1165
 9893TIP3    H251095   2.879   1.475  11.023  0.7985 -1.5149  0.1621
 9894TIP3   OH251096   6.082   5.182  14.753  0.5640 -0.5485 -0.0249
 9894TIP3    H151097   6.113   5.119  14.688  0.7235  0.2336 -0.7278
 9894TIP3    H251098   6.141   5.257  14.743 -0.1756  0.0683  0.1683
 9895TIP3   OH251099   3.145   2.779   1.216 -0.0612 -0.1719  0.0216
 9895TIP3    H151100   3.236   2.788   1.242  0.4609 -1.3296 -1.3148
 9895TIP3    H251101   3.121   2.689   1.240 -0.5291 -0.2159 -0.5723
 9896TIP3   OH251102   3.518   4.172  12.541  0.1258 -0.2672  0.1450
 9896TIP3    H151103   3.584   4.120  12.495  0.6070 -0.0962  0.6409
 9896TIP3    H251104   3.549   4.262  12.534  0.1620 -0.2322  0.7380
 9897TIP3   OH251105   4.057   3.901  14.859 -0.2694  0.1515 -0.0950
 9897TIP3    H151106   3.996   3.863  14.922  0.1459  0.2823  0.3943
 9897TIP3    H251107   4.033   3.994  14.855 -0.0707  0.2167  0.1477
 9898TIP3   OH251108   6.357   1.442   2.854  0.3109  0.0177  0.2870
 9898TIP3    H151109   6.284   1.400   2.808  2.5715 -0.7502 -2.9785
 9898TIP3    H251110   6.407   1.370   2.891  1.3645  0.1874 -0.7466
 9899TIP3   OH251111   5.347   2.355  16.257  0.1301 -0.4825 -0.6551
 9899TIP3    H151112   5.337   2.378  16.350  2.7394  0.0501 -0.4080
 9899TIP3    H251113   5.347   2.440  16.212  0.5548 -0.6160 -0.9103
 9900TIP3   OH251114   0.574   0.263   0.811 -0.2829 -0.1034 -0.3566
 9900TIP3    H151115   0.514   0.276   0.737 -1.8554 -1.9381  0.5320
 9900TIP3    H251116   0.563   0.171   0.835  0.8612  0.2248  1.5940
 9901TIP3   OH251117   5.723   6.576   5.241 -0.4370  0.3490 -0.0973
 9901TIP3    H151118   5.670   6.640   5.290  0.2870  1.0396 -0.2004
 9901TIP3    H251119   5.789   6.546   5.304  0.9499  1.7704 -0.8093
 9902TIP3   OH251120   5.616   2.393   6.507  0.2657 -0.4750 -0.2010
 9902TIP3    H151121   5.628   2.483   6.535 -3.7028 -0.1408  1.1323
 9902TIP3    H251122   5.632   2.341   6.587  0.0586 -0.6769 -0.2895
 9903TIP3   OH251123   1.459   3.042  15.104 -0.5679  0.7710 -0.9265
 9903TIP3    H151124   1.521   3.055  15.175 -1.6639 -0.0680  0.2183
 9903TIP3    H251125   1.454   3.126  15.059  2.0462  0.6280 -1.6211
 9904TIP3   OH251126   2.942   6.109   2.364 -0.4551  0.4056  0.7557
 9904TIP3    H151127   2.898   6.078   2.285 -1.4212 -0.0671  1.4547
 9904TIP3    H251128   2.972   6.197   2.342 -2.5672  1.1152  0.5252
 9905TIP3   OH251129   6.178   1.980  14.099  1.0157  0.0098  0.3499
 9905TIP3    H151130   6.172   1.933  14.183  1.6325  0.3440  0.5850
 9905TIP3    H251131   6.184   2.072  14.123 -0.8049  0.2946 -0.1321
 9906TIP3   OH251132   4.213   4.341  17.009  0.3559 -0.3974 -0.5611
 9906TIP3    H151133   4.135   4.292  17.035  0.6646 -0.3368  0.5348
 9906TIP3    H251134   4.254   4.288  16.941 -0.5015 -0.5563 -0.9593
 9907TIP3   OH251135   5.453   3.227   1.375  0.2029 -0.2776 -0.2347
 9907TIP3    H151136   5.437   3.136   1.349 -0.1480 -0.9573  2.0817
 9907TIP3    H251137   5.367   3.263   1.393  0.3932  0.2512 -0.3659
 9908TIP3   OH251138   1.636   0.212  15.156  0.1767 -0.0511 -0.1475
 9908TIP3    H151139   1.555   0.250  15.121 -0.1176 -0.9515 -0.4798
 9908TIP3    H251140   1.704   0.277  15.135 -0.5201  0.9170  0.5323
 9909TIP3   OH251141   0.128   2.803   3.831 -0.6094 -0.0353  0.5422
 9909TIP3    H151142   0.147   2.895   3.816 -0.5133  0.0077  0.9215
 9909TIP3    H251143   0.041   2.790   3.795 -1.5707  0.7230  2.4542
 9910TIP3   OH251144   2.823   3.106   0.337 -0.6867  0.2827 -0.2039
 9910TIP3    H151145   2.890   3.106   0.269 -1.1060  2.3746 -0.6963
 9910TIP3    H251146   2.857   3.049   0.406  2.3262  2.4349  0.2432
 9911TIP3   OH251147   2.141   0.875  11.764  0.4024  0.4859 -0.3289
 9911TIP3    H151148   2.216   0.845  11.816  0.9810  1.9746 -0.2696
 9911TIP3    H251149   2.180   0.928  11.694 -0.3889 -1.1637 -2.1274
 9912TIP3   OH251150   4.722   4.708   0.541 -0.2922 -0.4721  0.3166
 9912TIP3    H151151   4.762   4.793   0.563  2.0414 -1.2257 -0.6983
 9912TIP3    H251152   4.693   4.717   0.451 -0.5589 -0.5812  0.3906
 9913TIP3   OH251153   2.338   1.204  14.724  0.0339 -0.3730  0.3793
 9913TIP3    H151154   2.280   1.231  14.795 -0.3685 -2.3989  0.8907
 9913TIP3    H251155   2.304   1.250  14.647 -1.4837 -0.5153  0.9176
 9914TIP3   OH251156   0.009   0.391  16.011 -0.1884 -0.1271  0.3698
 9914TIP3    H151157   0.076   0.459  16.018  2.1380 -2.2466  0.0750
 9914TIP3    H251158  -0.032   0.405  15.926 -0.1743  1.2388  0.5725
 9915TIP3   OH251159   0.162   4.388   5.068 -0.1573  0.9069 -0.4646
 9915TIP3    H151160   0.126   4.395   4.980  1.0891 -1.1951 -1.2040
 9915TIP3    H251161   0.257   4.389   5.055  0.0558 -1.0569  0.6602
 9916TIP3   OH251162   5.044   6.607   0.646  0.1900  0.6404 -0.0104
 9916TIP3    H151163   5.077   6.697   0.638  1.2629  0.1322 -4.2147
 9916TIP3    H251164   4.955   6.611   0.610 -0.2065  0.1964  0.9051
 9917TIP3   OH251165   6.471   5.822   2.854  0.5417 -0.2006 -0.0871
 9917TIP3    H151166   6.556   5.866   2.851 -0.3430  1.6006 -0.3453
 9917TIP3    H251167   6.462   5.793   2.944  1.3729 -0.3168 -0.0317
 9918TIP3   OH251168   1.592   0.930   0.882  0.1594 -0.2248 -0.3052
 9918TIP3    H151169   1.626   0.981   0.955  0.9375 -2.6025  1.1131
 9918TIP3    H251170   1.640   0.962   0.806  1.2648  0.5285  0.6690
 9919TIP3   OH251171   3.235   4.032  16.117 -0.0238  0.1361 -0.4836
 9919TIP3    H151172   3.195   4.116  16.098  1.7147  0.8619 -1.1534
 9919TIP3    H251173   3.266   4.040  16.208  0.3320  0.3124 -0.6178
 9920TIP3   OH251174   1.632   1.444   1.277 -0.0912  0.2864 -0.5351
 9920TIP3    H151175   1.588   1.481   1.354  0.4202 -2.0885  0.9853
 9920TIP3    H251176   1.723   1.470   1.286  0.3699 -1.5834  0.8043
 9921TIP3   OH251177   6.692   6.616   3.121  0.3043  0.5523  0.1222
 9921TIP3    H151178   6.657   6.547   3.064  1.4819  1.0468 -1.2605
 9921TIP3    H251179   6.772   6.578   3.158  1.8420  1.6636 -1.9022
 9922TIP3   OH251180   1.995   0.942   0.101 -0.2320  0.2640 -0.2576
 9922TIP3    H151181   2.042   0.865   0.132  0.7592  1.4643  1.4061
 9922TIP3    H251182   1.941   0.911   0.028  0.4294 -1.8889  0.1286
 9923TIP3   OH251183   6.027   4.024  16.743  0.2756  0.0827  0.0360
 9923TIP3    H151184   6.086   4.090  16.706 -1.2608  0.4635 -1.8972
 9923TIP3    H251185   6.051   3.943  16.698  1.1461 -0.3989  1.3074
 9924TIP3   OH251186   0.755   0.671   4.671 -0.3938  0.6845  0.0066
 9924TIP3    H151187   0.714   0.698   4.753 -2.2639 -1.0550 -0.2710
 9924TIP3    H251188   0.689   0.687   4.604 -0.2135 -1.0482 -0.6480
 9925TIP3   OH251189   6.019   3.822  13.753 -0.3905 -0.2611 -0.0779
 9925TIP3    H151190   6.008   3.803  13.660  2.0126 -0.9743 -0.2955
 9925TIP3    H251191   6.044   3.738  13.792  0.0792  0.3195  0.9224
 9926TIP3   OH251192   1.764   5.241  17.027  0.4782 -1.3089  0.0975
 9926TIP3    H151193   1.728   5.152  17.020 -0.4856 -0.9974  0.8634
 9926TIP3    H251194   1.696   5.297  16.991  1.0842 -0.8701 -0.3767
 9927TIP3   OH251195   3.855   0.244   0.841 -0.4551 -0.8515  0.8637
 9927TIP3    H151196   3.789   0.298   0.885  0.2493  0.0856  0.7999
 9927TIP3    H251197   3.819   0.156   0.843 -0.7203 -0.7528  2.8240
 9928TIP3   OH251198   5.720   2.174   1.359  0.3934  0.0249  0.0479
 9928TIP3    H151199   5.804   2.212   1.334  0.4514  0.2670  0.5964
 9928TIP3    H251200   5.722   2.173   1.455 -0.3710  0.3563  0.0710
 9929TIP3   OH251201   1.750   5.493  13.237  0.0538 -0.7223 -0.2397
 9929TIP3    H151202   1.760   5.492  13.142 -0.0272 -2.0196 -0.2587
 9929TIP3    H251203   1.840   5.494  13.270  0.0823 -0.3006 -0.3314
 9930TIP3   OH251204   0.642   5.349  15.844 -0.4793  0.1583 -0.3949
 9930TIP3    H151205   0.665   5.415  15.909  1.9809 -1.6405  0.6767
 9930TIP3    H251206   0.602   5.278  15.894 -0.4264 -0.3972 -1.1150
 9931TIP3   OH251207   4.452   2.062  13.237 -0.2208 -0.7202  0.2356
 9931TIP3    H151208   4.513   1.992  13.217  2.0301  0.8949  1.0311
 9931TIP3    H251209   4.443   2.110  13.155 -1.2169 -1.4952 -0.1277
 9932TIP3   OH251210   3.599   5.233   4.552  0.3645  0.0685 -0.7176
 9932TIP3    H151211   3.689   5.232   4.583 -0.0864  0.7818  0.7461
 9932TIP3    H251212   3.547   5.247   4.632 -0.9595  0.8715 -1.6833
 9933TIP3   OH251213   3.722   4.699   0.908  0.5813  0.1027  0.2461
 9933TIP3    H151214   3.677   4.769   0.862 -2.8303 -0.6976  2.0304
 9933TIP3    H251215   3.727   4.628   0.844 -1.6122 -0.0637  0.1717
 9934TIP3   OH251216   2.388   0.250  13.594  0.3353  0.0884 -0.0521
 9934TIP3    H151217   2.379   0.186  13.664 -0.5917 -1.2371 -1.3197
 9934TIP3    H251218   2.382   0.335  13.638 -3.9469 -0.6254  1.1431
 9935TIP3   OH251219   6.414   6.751   5.403  0.0760 -0.3878 -0.3618
 9935TIP3    H151220   6.369   6.831   5.431 -1.6296 -1.8153  1.2214
 9935TIP3    H251221   6.374   6.730   5.319 -1.0310 -0.7039  0.2243
 9936TIP3   OH251222   3.305   1.052   1.033  0.5903  1.0374  0.6264
 9936TIP3    H151223   3.313   1.138   0.991  0.7976  1.1009  0.7995
 9936TIP3    H251224   3.331   0.990   0.965 -0.8178  1.0190  0.0659
 9937TIP3   OH251225   2.722   4.806  12.769  0.1174 -0.3700 -0.0966
 9937TIP3    H151226   2.654   4.800  12.702 -0.1887  1.8729 -0.0582
 9937TIP3    H251227   2.684   4.762  12.845 -0.3430 -1.1539 -0.7546
 9938TIP3   OH251228   3.493   5.518   2.039  0.1387 -0.7432  0.1819
 9938TIP3    H151229   3.403   5.514   2.071 -0.1613  0.6793 -0.3961
 9938TIP3    H251230   3.501   5.605   2.000  1.5724 -1.0816 -0.3619
 9939TIP3   OH251231   1.449   6.542   6.193 -0.5761 -0.1753  0.0998
 9939TIP3    H151232   1.450   6.634   6.220  0.9321 -0.2446  0.4168
 9939TIP3    H251233   1.451   6.493   6.275 -0.2430 -0.4593 -0.0726
 9940TIP3   OH251234   4.657   6.286  15.041  0.4430  0.1860 -0.6404
 9940TIP3    H151235   4.563   6.273  15.027  0.1185  0.4486  1.0329
 9940TIP3    H251236   4.675   6.373  15.005  0.5323 -0.6943 -2.8835
 9941TIP3   OH251237   4.871   4.133  15.835  0.2773  0.3816  0.1537
 9941TIP3    H151238   4.925   4.110  15.759  1.1089  0.9178  0.5632
 9941TIP3    H251239   4.829   4.050  15.860 -0.1417  0.2438 -0.9845
 9942TIP3   OH251240   0.129   5.153   0.495 -0.5459  0.3814  0.1654
 9942TIP3    H151241   0.159   5.239   0.466  0.6859 -0.2079 -0.3794
 9942TIP3    H251242   0.065   5.126   0.429  0.0068  0.3538 -0.3716
 9943TIP3   OH251243   5.870   0.527  12.949 -0.3355  0.1688  0.1930
 9943TIP3    H151244   5.895   0.594  13.013 -3.1633  0.2142  1.3687
 9943TIP3    H251245   5.804   0.570  12.894 -1.6189 -1.3608  0.4686
 9944TIP3   OH251246   4.489   6.591  17.021  0.1639  0.0673  0.1557
 9944TIP3    H151247   4.469   6.625  17.108  1.0164  1.9809 -0.3287
 9944TIP3    H251248   4.428   6.637  16.963  0.1963 -0.5157 -0.3524
 9945TIP3   OH251249   3.427   3.926  16.351 -0.3030 -0.1154 -0.0166
 9945TIP3    H151250   3.364   3.854  16.354  0.7712 -1.0586  1.6456
 9945TIP3    H251251   3.509   3.885  16.323  0.0274  0.7307 -0.3235
 9946TIP3   OH251252   2.227   3.643   0.378 -0.5724  0.0709  0.1361
 9946TIP3    H151253   2.248   3.665   0.287  0.3704  1.4405  0.6464
 9946TIP3    H251254   2.291   3.576   0.402  0.5908  1.2324  0.4029
 9947TIP3   OH251255   5.319   2.038   5.209 -0.4025  0.0826 -0.1960
 9947TIP3    H151256   5.275   2.122   5.197 -0.2814  0.1063 -0.4753
 9947TIP3    H251257   5.410   2.061   5.230 -0.5395  0.0371  0.4939
 9948TIP3   OH251258   0.583   5.053  16.472  0.4805  0.5478 -0.1231
 9948TIP3    H151259   0.553   4.970  16.510  0.2796  0.2411 -0.9128
 9948TIP3    H251260   0.675   5.058  16.496  0.5654 -0.0468 -0.2863
 9949TIP3   OH251261   3.665   1.797   2.396 -0.1555 -0.0530 -0.0057
 9949TIP3    H151262   3.752   1.833   2.376 -0.1667 -1.2631 -2.5565
 9949TIP3    H251263   3.652   1.817   2.489  0.8952  4.2176 -0.5681
 9950TIP3   OH251264   0.625   4.784   0.915 -0.3620  0.0907  0.0022
 9950TIP3    H151265   0.609   4.690   0.913  0.9539 -0.1592 -1.2566
 9950TIP3    H251266   0.711   4.793   0.956  0.9448  0.4079 -2.5433
 9951TIP3   OH251267   1.282   3.673  14.170  0.1982  0.1310  0.6451
 9951TIP3    H151268   1.318   3.630  14.093  0.2129  0.9076  0.2117
 9951TIP3    H251269   1.283   3.606  14.238 -1.9793 -1.2851 -0.6204
 9952TIP3   OH251270   6.191   1.898  14.425  0.1023  0.1489  0.1655
 9952TIP3    H151271   6.203   1.872  14.516 -0.5863 -0.8948 -0.0290
 9952TIP3    H251272   6.280   1.916  14.394  0.4738 -0.6592  0.7000
 9953TIP3   OH251273   1.447   0.051  15.691  0.9990 -0.1324  0.1762
 9953TIP3    H151274   1.481   0.076  15.605  0.1149  1.1527  0.1738
 9953TIP3    H251275   1.352   0.058  15.682  0.9022  0.1508  1.2900
 9954TIP3   OH251276   5.497   0.697  13.881  0.1134 -0.1120  0.2407
 9954TIP3    H151277   5.461   0.757  13.816  0.4602 -1.7278 -1.5375
 9954TIP3    H251278   5.589   0.688  13.856  0.0003 -1.5645  0.2952
 9955TIP3   OH251279   5.011   6.065   0.840 -0.3051 -0.1367  0.3473
 9955TIP3    H151280   5.072   6.017   0.896  0.3747  1.3638  0.9493
 9955TIP3    H251281   4.941   6.003   0.821  1.4798 -1.9846 -0.5282
 9956TIP3   OH251282   2.517   6.491  15.612  0.1115 -0.8778  0.6084
 9956TIP3    H151283   2.517   6.582  15.643 -0.5844 -1.4588  2.4752
 9956TIP3    H251284   2.601   6.481  15.568  0.8699  0.2628  1.7174
 9957TIP3   OH251285   4.870   1.215   1.067  0.2927 -0.7530  0.0299
 9957TIP3    H151286   4.841   1.141   1.120 -0.7904 -1.0001 -0.8815
 9957TIP3    H251287   4.818   1.289   1.099  0.4224 -0.6655  0.0395
 9958TIP3   OH251288   3.953   6.205   2.070  0.4382 -0.6481  0.1425
 9958TIP3    H151289   3.953   6.174   2.160 -1.2329 -1.2160 -0.0261
 9958TIP3    H251290   3.861   6.200   2.042  0.9672 -0.8193 -1.7056
 9959TIP3   OH251291   2.394   0.162   4.998  0.5180  0.5692 -0.4767
 9959TIP3    H151292   2.436   0.076   5.006  1.0296  0.9525  1.6872
 9959TIP3    H251293   2.420   0.208   5.078  0.7667  2.9860 -1.8800
 9960TIP3   OH251294   0.685   2.143   0.331  0.3877  0.5074 -0.0922
 9960TIP3    H151295   0.749   2.122   0.400  1.0659 -1.3661 -1.2067
 9960TIP3    H251296   0.733   2.198   0.270  1.4025 -1.7471 -1.4732
 9961TIP3   OH251297   4.444   1.979  12.384 -0.0834 -0.0905  0.1015
 9961TIP3    H151298   4.436   1.920  12.309  1.9515  0.1142 -0.3145
 9961TIP3    H251299   4.446   1.921  12.460  0.9071 -0.5181 -0.2370
 9962TIP3   OH251300   1.459   4.928   4.515  0.0178 -0.6034 -1.2691
 9962TIP3    H151301   1.428   4.846   4.476  2.1971 -1.5638 -1.1871
 9962TIP3    H251302   1.532   4.954   4.459  1.2661 -0.3733  0.3886
 9963TIP3   OH251303   3.861   1.870   2.128  0.6240  0.5075 -0.5623
 9963TIP3    H151304   3.945   1.900   2.094  0.2898  0.2340 -1.6765
 9963TIP3    H251305   3.884   1.804   2.194  1.2788  0.3705 -0.9210
 9964TIP3   OH251306   2.068   6.452   1.031  0.0439 -0.0957  0.5381
 9964TIP3    H151307   2.018   6.412   1.102  0.6263  1.5212  1.9069
 9964TIP3    H251308   2.002   6.489   0.972 -0.3957  0.2936  1.2764
 9965TIP3   OH251309   3.628   4.493   2.329  0.1686 -0.2731 -1.0267
 9965TIP3    H151310   3.707   4.447   2.299  1.3634  1.0065  0.0711
 9965TIP3    H251311   3.644   4.510   2.421  0.2616  3.2180 -1.5758
 9966TIP3   OH251312   0.366   2.410  12.429  0.4726 -0.0481 -0.5602
 9966TIP3    H151313   0.398   2.382  12.343 -2.0904 -0.6636 -1.4197
 9966TIP3    H251314   0.272   2.391  12.426  0.0738  1.1892  1.8971
 9967TIP3   OH251315   4.704   5.081   3.375  0.2885 -0.0091 -0.1786
 9967TIP3    H151316   4.716   5.098   3.468 -0.8919 -1.2432  0.2167
 9967TIP3    H251317   4.775   5.020   3.353 -0.3132 -0.8875  0.2681
 9968TIP3   OH251318   4.596   1.460  15.648  1.1409 -0.0354 -0.4304
 9968TIP3    H151319   4.629   1.491  15.564 -2.2307  2.2676 -1.1316
 9968TIP3    H251320   4.596   1.537  15.705 -0.9788 -0.3326  0.0852
 9969TIP3   OH251321   4.791   6.485   4.610 -0.1743  0.4993 -0.4610
 9969TIP3    H151322   4.748   6.568   4.590  1.6473  1.4103 -0.8310
 9969TIP3    H251323   4.862   6.480   4.546 -0.3985 -1.4939 -0.6129
 9970TIP3   OH251324   3.262   2.279  11.096  0.0484 -0.6188  0.6312
 9970TIP3    H151325   3.249   2.352  11.157  0.5768  0.1226 -0.1115
 9970TIP3    H251326   3.183   2.226  11.103  0.1078 -0.5584  1.9651
 9971TIP3   OH251327   0.000   5.501   6.056  0.3857  0.2610 -0.2719
 9971TIP3    H151328   0.046   5.568   6.107  0.4332  0.4190 -0.5235
 9971TIP3    H251329  -0.088   5.499   6.093 -0.0131  1.3774 -1.1020
 9972TIP3   OH251330   4.032   3.677  14.256 -0.5030 -0.1503 -0.1594
 9972TIP3    H151331   4.088   3.606  14.223  0.7535  0.2370  1.0204
 9972TIP3    H251332   3.958   3.632  14.297 -0.0122 -0.7597  0.0731
 9973TIP3   OH251333   0.115   3.116  11.979  0.2074 -0.3972 -0.4006
 9973TIP3    H151334   0.143   3.030  11.948 -0.3860 -0.4518 -0.8055
 9973TIP3    H251335   0.065   3.098  12.058  2.1564 -0.2190  0.9444
 9974TIP3   OH251336   5.475   3.982  15.615  0.4204 -0.4009  0.0612
 9974TIP3    H151337   5.464   3.992  15.520  2.6770  0.0334 -0.2140
 9974TIP3    H251338   5.424   4.054  15.653 -2.3769 -1.8758 -0.6071
 9975TIP3   OH251339   0.934   1.932   0.123 -0.1792 -0.1885  0.2038
 9975TIP3    H151340   0.996   1.999   0.153  1.1539 -0.8395 -0.9955
 9975TIP3    H251341   0.879   1.977   0.059 -0.4890  0.2032  0.7331
 9976TIP3   OH251342   1.249   0.344  12.181  0.7178 -0.0367  0.0463
 9976TIP3    H151343   1.300   0.311  12.255  1.7801 -3.6539 -2.0291
 9976TIP3    H251344   1.158   0.332  12.207  1.0723 -1.7233  0.6639
 9977TIP3   OH251345   2.256   3.378  16.414  0.1200  0.2777 -0.6195
 9977TIP3    H151346   2.233   3.419  16.331  0.2571  2.4004  0.3247
 9977TIP3    H251347   2.192   3.308  16.425 -0.9751  1.0757 -1.6999
 9978TIP3   OH251348   0.427   4.212  12.590 -0.1873  0.1169 -0.2958
 9978TIP3    H151349   0.510   4.168  12.568 -0.1329  0.5069 -0.8934
 9978TIP3    H251350   0.401   4.255  12.508 -1.7586 -1.2326 -0.5521
 9979TIP3   OH251351   2.986   4.598   4.741  0.2053 -0.3171 -0.2060
 9979TIP3    H151352   3.015   4.686   4.765 -1.7478 -0.1243  1.7965
 9979TIP3    H251353   2.995   4.548   4.822 -0.3050 -1.5213 -0.8829
 9980TIP3   OH251354   4.025   4.986  15.161 -0.0120 -0.2321 -0.2976
 9980TIP3    H151355   4.080   5.051  15.203  0.8737 -1.0619 -0.1422
 9980TIP3    H251356   3.955   5.037  15.119 -0.2826  0.6886  1.2011
 9981TIP3   OH251357   0.205   4.116  12.713  0.4696  0.3218  0.4173
 9981TIP3    H151358   0.283   4.165  12.687 -0.4179  1.5721  0.0076
 9981TIP3    H251359   0.188   4.144  12.803  0.6385 -0.1734  0.6113
 9982TIP3   OH251360   0.008   1.136  11.660 -0.6542  0.3557 -0.4026
 9982TIP3    H151361   0.086   1.188  11.643 -0.2980  0.5517  1.5845
 9982TIP3    H251362  -0.009   1.089  11.578  1.2166  0.7343 -1.0418
 9983TIP3   OH251363   4.687   6.065  15.499 -0.2455 -0.0918  0.1511
 9983TIP3    H151364   4.653   6.047  15.586 -1.7029  0.7505 -0.2222
 9983TIP3    H251365   4.775   6.026  15.499 -0.7986 -1.4199  1.4837
 9984TIP3   OH251366   1.466   1.483  14.210 -0.2743  0.5688 -0.3902
 9984TIP3    H151367   1.411   1.513  14.137 -0.5759  0.4450 -0.2160
 9984TIP3    H251368   1.411   1.421  14.257 -0.7317  1.9382  0.9578
 9985TIP3   OH251369   2.012   2.781   2.909  0.4592 -0.2219 -0.5390
 9985TIP3    H151370   2.011   2.821   2.996  2.2104 -1.5322  0.1382
 9985TIP3    H251371   2.099   2.744   2.901  0.5623  0.3832 -3.1348
 9986TIP3   OH251372   5.503   6.151   0.163  0.0857  0.4010 -0.2618
 9986TIP3    H151373   5.523   6.096   0.239  0.4661 -1.3149 -1.5544
 9986TIP3    H251374   5.526   6.098   0.087 -0.8228  1.8465 -1.6271
 9987TIP3   OH251375   3.753   0.071  13.384 -0.4119 -0.2204  0.3772
 9987TIP3    H151376   3.817   0.121  13.435 -1.3868 -0.9475  2.3903
 9987TIP3    H251377   3.783  -0.020  13.391 -0.8084 -0.3808  0.0221
 9988TIP3   OH251378   2.840   5.824  14.206  0.2052  0.0084  0.2283
 9988TIP3    H151379   2.847   5.731  14.230 -0.2391  0.1528  0.9344
 9988TIP3    H251380   2.750   5.834  14.176  0.9957 -0.3896 -2.5524
 9989TIP3   OH251381   1.836   5.126  13.191  0.0110 -0.3263  0.8086
 9989TIP3    H151382   1.799   5.156  13.274  0.1194 -0.4281  0.8940
 9989TIP3    H251383   1.762   5.129  13.129 -0.5396 -2.0239  1.3451
 9990TIP3   OH251384   1.281   1.639   3.341 -0.2179 -0.2832  0.7220
 9990TIP3    H151385   1.290   1.571   3.408 -0.3701 -0.8615  0.1662
 9990TIP3    H251386   1.256   1.718   3.390  1.2994 -0.2580  1.5433
 9991TIP3   OH251387   5.154   1.741   0.198 -0.3584  0.0436 -0.0575
 9991TIP3    H151388   5.216   1.777   0.262 -0.5538  0.2758  0.0056
 9991TIP3    H251389   5.156   1.804   0.126 -0.9821  0.3946  0.2144
 9992TIP3   OH251390   3.101   2.945  15.490 -1.1511  0.6507  0.2517
 9992TIP3    H151391   3.010   2.954  15.464 -1.2697  0.4847  0.6112
 9992TIP3    H251392   3.120   3.023  15.541 -1.2352  0.4459  0.5962
 9993TIP3   OH251393   5.753   5.660   1.872 -0.8831 -0.3920 -0.2866
 9993TIP3    H151394   5.815   5.730   1.854 -1.8854 -0.0304 -2.7708
 9993TIP3    H251395   5.802   5.598   1.925  1.5184  0.0292 -1.8330
 9994TIP3   OH251396   0.892   0.421   4.697 -0.1000 -0.3746 -0.5607
 9994TIP3    H151397   0.917   0.423   4.789 -2.1255 -0.0369  0.0332
 9994TIP3    H251398   0.843   0.502   4.683 -1.4946 -1.3152 -1.4011
 9995TIP3   OH251399   4.105   1.744   5.203 -0.0218 -0.4629 -0.4244
 9995TIP3    H151400   4.139   1.825   5.167 -0.5912 -0.5100 -1.0957
 9995TIP3    H251401   4.109   1.756   5.298 -0.0093  0.3087 -0.5165
 9996TIP3   OH251402   0.050   6.448  17.202  0.9084  0.0495 -0.3883
 9996TIP3    H151403   0.127   6.413  17.248  0.2656 -0.8208  0.0654
 9996TIP3    H251404  -0.008   6.373  17.192 -0.9016  1.0828  1.3661
 9997TIP3   OH251405   2.135   0.927  13.214 -0.4059 -0.2755 -0.1530
 9997TIP3    H151406   2.116   0.986  13.141 -1.0741 -0.8470 -0.4493
 9997TIP3    H251407   2.213   0.964  13.255 -1.4910  1.5175  0.4105
 9998TIP3   OH251408   6.026   5.187  10.821 -0.0166 -0.2750 -0.0092
 9998TIP3    H151409   5.945   5.232  10.846  0.0244 -0.5789  0.7059
 9998TIP3    H251410   6.004   5.094  10.828  0.5165 -0.3569  0.5872
 9999TIP3   OH251411   5.330   0.142  14.029 -0.4525  0.1155  0.1160
 9999TIP3    H151412   5.398   0.200  14.064 -0.7773  0.8646 -0.4482
 9999TIP3    H251413   5.256   0.201  14.011 -0.7795 -0.4720 -0.5047
10000TIP3   OH251414   2.098   2.275   4.452 -0.0315  1.1021 -0.6917
10000TIP3    H151415   2.057   2.354   4.416  0.9561  3.1785  2.3755
10000TIP3    H251416   2.048   2.255   4.530  0.0583 -1.0696 -1.1439
10001TIP3   OH251417   6.240   2.594  12.070  0.2830  0.2609  0.0442
10001TIP3    H151418   6.173   2.589  12.003  2.3815  0.6113 -2.2067
10001TIP3    H251419   6.267   2.685  12.070  0.0162  0.3746  1.7532
10002TIP3   OH251420   3.660   1.063   5.684 -0.5039 -0.6416  0.1738
10002TIP3    H151421   3.590   1.027   5.739 -0.2941 -0.0319  0.8527
10002TIP3    H251422   3.712   0.987   5.658 -1.5656 -1.1393 -0.5658
10003TIP3   OH251423   4.122   3.386  14.973  0.2364  0.0804 -0.4842
10003TIP3    H151424   4.173   3.385  15.054 -0.6633 -0.1828  0.0971
10003TIP3    H251425   4.073   3.304  14.975 -0.1363  0.2816 -1.0774
10004TIP3   OH251426   0.820   2.795  15.393  0.3617 -0.0352 -0.3023
10004TIP3    H151427   0.886   2.779  15.325  0.9073  0.3502  0.1233
10004TIP3    H251428   0.739   2.809  15.345  0.2346 -2.1046 -0.7944
10005TIP3   OH251429   1.618   2.608   4.686 -0.2598  0.6362  0.1161
10005TIP3    H151430   1.640   2.700   4.680  0.1193  0.4642 -2.6380
10005TIP3    H251431   1.613   2.579   4.594 -0.5331 -2.0230  0.8920
10006TIP3   OH251432   0.004   3.818   3.338  0.5363  0.3853  0.1256
10006TIP3    H151433  -0.040   3.763   3.402  0.6074  0.6354  0.3914
10006TIP3    H251434   0.044   3.757   3.277 -0.7752  0.1399 -0.5346
10007TIP3   OH251435   5.176   6.229  13.772 -0.7418 -0.2626  0.0290
10007TIP3    H151436   5.243   6.245  13.838 -0.2386 -2.2256  0.0546
10007TIP3    H251437   5.207   6.275  13.694 -0.0750 -0.0070  0.4404
10008TIP3   OH251438   3.694   6.370   2.208 -0.2825 -0.3493 -0.8187
10008TIP3    H151439   3.775   6.403   2.170  0.9000 -0.3435  1.5691
10008TIP3    H251440   3.662   6.306   2.144  2.8181 -2.0439 -0.8512
10009TIP3   OH251441   0.300   4.902   5.304  0.6658 -0.5120  0.1874
10009TIP3    H151442   0.348   4.972   5.348  0.6523 -0.9316  0.8910
10009TIP3    H251443   0.361   4.828   5.303  1.0874 -0.1807 -1.5392
10010TIP3   OH251444   0.341   0.835   3.871  0.1539  0.2803  0.1245
10010TIP3    H151445   0.271   0.884   3.827  0.2970  0.3600 -0.0147
10010TIP3    H251446   0.383   0.900   3.928 -0.6213 -0.0375  1.0840
10011TIP3   OH251447   5.921   0.582  16.416  0.1842 -0.0936 -0.3018
10011TIP3    H151448   5.986   0.620  16.357 -1.1162  1.4265 -0.8328
10011TIP3    H251449   5.839   0.584  16.365 -1.4828  3.2312  2.1307
10012TIP3   OH251450   2.914   4.517   1.313  0.3772  0.1378 -0.3203
10012TIP3    H151451   2.874   4.589   1.361 -1.0108 -0.3696 -0.6565
10012TIP3    H251452   2.857   4.505   1.237  2.1086  0.4319 -1.7122
10013TIP3   OH251453   0.653   0.209   3.703 -0.5122 -0.5414 -0.0420
10013TIP3    H151454   0.575   0.253   3.670 -1.2776 -1.0450  1.0598
10013TIP3    H251455   0.657   0.233   3.795 -0.6709 -2.3516  0.4659
10014TIP3   OH251456   4.371   4.838  11.057 -0.2281 -0.0442  0.2566
10014TIP3    H151457   4.443   4.860  10.998 -1.4544  0.4592 -1.1112
10014TIP3    H251458   4.307   4.793  11.002 -0.1324 -2.3314  1.8705
10015TIP3   OH251459   6.451   6.444   1.054  0.0672 -0.0727  0.6992
10015TIP3    H151460   6.359   6.463   1.073 -0.2975 -1.7636  0.7974
10015TIP3    H251461   6.487   6.418   1.138  0.3054 -0.6114  0.4349
10016TIP3   OH251462   4.073   5.767   3.946 -0.3410 -0.3301  0.1573
10016TIP3    H151463   4.026   5.795   3.868 -2.0526  0.2240  1.3417
10016TIP3    H251464   4.028   5.809   4.019  2.8326  1.3712  1.3483
10017TIP3   OH251465   3.303   5.468   2.988 -0.6210 -0.3538  0.4761
10017TIP3    H151466   3.313   5.377   3.014  0.5503 -0.1188  0.9172
10017TIP3    H251467   3.359   5.517   3.049 -2.7113  0.8770  1.5366
10018TIP3   OH251468   0.496   0.885   1.370 -0.6545  0.4648  0.0428
10018TIP3    H151469   0.546   0.885   1.289  0.8566 -3.0155  0.7883
10018TIP3    H251470   0.555   0.924   1.435 -0.6215  0.3943  0.0559
10019TIP3   OH251471   5.757   0.314  16.348 -0.1055  0.3351  0.6761
10019TIP3    H151472   5.783   0.357  16.266 -0.0716  0.4385  0.7414
10019TIP3    H251473   5.836   0.270  16.379 -0.1387  0.2273  0.6116
10020TIP3   OH251474   5.131   5.800  12.031 -0.3056  0.0555  0.3350
10020TIP3    H151475   5.061   5.797  11.966 -1.6534  3.2570  1.4554
10020TIP3    H251476   5.089   5.776  12.113  0.3544  0.2421  0.7359
10021TIP3   OH251477   6.469   3.835  14.980  0.1130  0.2776 -0.0123
10021TIP3    H151478   6.460   3.792  15.065  3.5567  1.2385  0.9738
10021TIP3    H251479   6.503   3.767  14.923 -2.2540 -0.3835 -0.7492
10022TIP3   OH251480   4.418   5.606   5.072 -0.2882 -0.2396  0.7601
10022TIP3    H151481   4.354   5.546   5.109  0.7539 -1.1723  1.0958
10022TIP3    H251482   4.481   5.550   5.026 -0.5358  0.7526 -0.9045
10023TIP3   OH251483   0.354   4.711   1.125 -1.2005  0.1315 -0.1883
10023TIP3    H151484   0.323   4.634   1.077  0.3276 -0.2175 -0.6517
10023TIP3    H251485   0.363   4.779   1.059 -0.4162  0.0520 -0.1679
10024TIP3   OH251486   6.729   1.618   0.261  0.7827 -0.5004 -0.0941
10024TIP3    H151487   6.739   1.581   0.173  1.2367  2.9983 -1.6702
10024TIP3    H251488   6.812   1.600   0.305  1.7077  0.2239 -1.4783
10025TIP3   OH251489   1.920   0.448   5.073  0.0560 -0.3715 -0.6483
10025TIP3    H151490   1.955   0.395   5.001  0.8379 -1.1676  0.2840
10025TIP3    H251491   1.885   0.384   5.134 -0.3523  0.2859 -0.1832
10026TIP3   OH251492   1.481   3.497   2.604  0.0289  0.2543 -0.4141
10026TIP3    H151493   1.477   3.409   2.568 -1.0884  0.2010 -0.2086
10026TIP3    H251494   1.445   3.553   2.535  1.3047  0.6522 -0.7891
10027TIP3   OH251495   5.097   0.327  16.364  0.2082 -0.1391  0.0133
10027TIP3    H151496   5.134   0.380  16.434  1.2753 -0.5858 -0.1825
10027TIP3    H251497   5.065   0.248  16.408  0.2102 -0.0987  0.0885
10028TIP3   OH251498   6.080   5.133  14.048 -0.3488  0.1097  0.2038
10028TIP3    H151499   6.085   5.129  13.953  3.3597  1.4143  0.1724
10028TIP3    H251500   6.040   5.218  14.067 -2.3331 -0.7215 -0.1203
10029TIP3   OH251501   0.953   3.178  13.288 -0.0396 -0.1605 -0.5305
10029TIP3    H151502   1.001   3.119  13.346 -0.6398  0.0086  0.1578
10029TIP3    H251503   0.869   3.134  13.274 -1.0722  1.1479  1.1596
10030TIP3   OH251504   4.828   2.062  12.655 -0.0263 -0.3092  0.3499
10030TIP3    H151505   4.817   2.155  12.671  0.9576 -0.4147  1.8939
10030TIP3    H251506   4.812   2.051  12.562  4.0093  2.1414 -0.8883
10031TIP3   OH251507   0.169   4.231   2.418  0.0370 -0.4364  0.0094
10031TIP3    H151508   0.151   4.192   2.504  1.9977 -0.2135  0.5690
10031TIP3    H251509   0.110   4.185   2.358 -1.3459 -0.6311  1.4475
10032TIP3   OH251510   2.633   1.269  11.920  0.3184  0.3348  0.4770
10032TIP3    H151511   2.639   1.236  12.010 -1.0567  1.3090  0.9471
10032TIP3    H251512   2.591   1.198  11.872  0.5358  0.0399  0.7124
10033TIP3   OH251513   1.107   3.027   2.482  0.3902 -0.2291  0.7759
10033TIP3    H151514   1.017   3.050   2.461  0.9294  0.2002 -1.2763
10033TIP3    H251515   1.110   2.932   2.474  0.2685 -0.1836  0.1207
10034TIP3   OH251516   1.173   1.366  13.995 -0.1631  0.5198 -0.0157
10034TIP3    H151517   1.107   1.310  13.954  0.2997  0.1668 -0.2940
10034TIP3    H251518   1.163   1.350  14.089 -0.1967  0.1555 -0.0806
10035TIP3   OH251519   0.790   2.834   3.533 -0.3054  0.3504  0.0527
10035TIP3    H151520   0.715   2.831   3.474  0.2785 -0.3426 -0.6740
10035TIP3    H251521   0.781   2.756   3.588 -0.2712  0.4203  0.1580
10036TIP3   OH251522   1.807   3.745   3.169 -0.7429  0.1480  0.6760
10036TIP3    H151523   1.895   3.741   3.206 -1.5605 -0.3145  2.7388
10036TIP3    H251524   1.819   3.726   3.076  1.3548  0.4505  0.8340
10037TIP3   OH251525   2.309   5.123  11.722  0.4734  1.1106 -0.3883
10037TIP3    H151526   2.392   5.092  11.687  0.1598  2.3882 -2.4349
10037TIP3    H251527   2.309   5.217  11.705 -1.9980  0.9334 -1.9016
10038TIP3   OH251528   5.667   6.651  11.993  0.0652 -0.5848 -0.6714
10038TIP3    H151529   5.619   6.587  11.939  0.2671 -1.0065 -0.3596
10038TIP3    H251530   5.749   6.607  12.014  0.2861 -0.1445 -0.6020
10039TIP3   OH251531   2.958   5.544  11.879 -0.0942  0.3379 -0.4574
10039TIP3    H151532   2.905   5.617  11.847 -0.3437  0.2387 -0.2722
10039TIP3    H251533   2.976   5.565  11.970  0.0642  0.2981 -0.4780
10040TIP3   OH251534   1.459   5.821  14.198  0.1371 -0.2239 -0.2644
10040TIP3    H151535   1.466   5.824  14.103 -2.1936 -2.6127 -0.6091
10040TIP3    H251536   1.524   5.755  14.224 -0.0097 -0.3927 -0.3240
10041TIP3   OH251537   1.700   4.189   3.257  0.2373  0.0606  0.2445
10041TIP3    H151538   1.675   4.280   3.242  1.8072  0.7708  1.6036
10041TIP3    H251539   1.747   4.164   3.177 -1.8272 -0.2432 -0.9456
10042TIP3   OH251540   5.392   0.140  16.429  0.3868 -0.0282 -0.1669
10042TIP3    H151541   5.470   0.105  16.386  0.0642  0.0959 -0.8647
10042TIP3    H251542   5.425   0.189  16.504  0.9721 -0.0286 -0.4240
10043TIP3   OH251543   0.197   2.473   1.727  0.1191 -0.1110 -0.0388
10043TIP3    H151544   0.202   2.519   1.643 -0.1290 -0.8339 -0.4613
10043TIP3    H251545   0.144   2.396   1.708 -2.0300  0.9442  1.3514
10044TIP3   OH251546   5.586   4.531   1.093 -0.4492 -0.1357 -0.2275
10044TIP3    H151547   5.494   4.516   1.070 -0.5111 -1.2961  0.7009
10044TIP3    H251548   5.630   4.449   1.071  0.6417  0.8282 -1.8718
10045TIP3   OH251549   0.744   1.314  15.320 -0.4583 -0.7129  0.3835
10045TIP3    H151550   0.810   1.245  15.310  0.9591  0.7902 -1.5667
10045TIP3    H251551   0.793   1.389  15.353 -1.7888 -0.3653  1.6240
10046TIP3   OH251552   5.676   0.596   4.736  0.1820  0.5450  0.1355
10046TIP3    H151553   5.647   0.671   4.787  0.5769  3.1889 -3.1485
10046TIP3    H251554   5.617   0.594   4.661  0.1191 -2.6234  0.1360
10047TIP3   OH251555   5.535   2.234   0.183 -0.1277  0.0796 -0.4914
10047TIP3    H151556   5.619   2.212   0.142 -0.3946 -1.0481 -0.4542
10047TIP3    H251557   5.535   2.330   0.186  0.8972  0.1158 -1.0321
10048TIP3   OH251558   2.088   3.775   4.966  0.0921 -0.8784 -0.2585
10048TIP3    H151559   2.027   3.780   5.039 -0.4393  0.0410 -0.7345
10048TIP3    H251560   2.082   3.861   4.924  0.4913 -1.3322 -1.2926
10049TIP3   OH251561   1.346   5.784  12.954  0.8531 -0.0126  0.0085
10049TIP3    H151562   1.274   5.795  12.892 -0.2877 -1.8912  0.9301
10049TIP3    H251563   1.388   5.702  12.928  2.6375  0.9684 -0.4199
10050TIP3   OH251564   3.474   5.421  15.127  0.0201  0.6877  0.3053
10050TIP3    H151565   3.423   5.497  15.102 -0.9322  0.1428  0.5163
10050TIP3    H251566   3.468   5.419  15.223  0.4642  0.6279  0.3357
10051TIP3   OH251567   6.622   6.574   4.853  0.4260  0.1037  0.1046
10051TIP3    H151568   6.711   6.579   4.818  0.5508 -0.9522  0.2324
10051TIP3    H251569   6.577   6.513   4.794  0.3661 -0.9311  1.1996
10052TIP3   OH251570   3.203   5.078  16.879  0.2124 -0.3289 -0.8299
10052TIP3    H151571   3.294   5.095  16.856  0.5321 -1.4402 -0.4605
10052TIP3    H251572   3.152   5.124  16.812  1.0309  0.5533 -0.8654
10053TIP3   OH251573   2.478   3.070  12.463  0.3708 -0.3422  0.1303
10053TIP3    H151574   2.505   3.076  12.371  2.9656  1.3543  0.8961
10053TIP3    H251575   2.386   3.098  12.462  0.1184 -1.0106 -2.0011
10054TIP3   OH251576   1.232   1.486  12.684  0.4903  0.4437 -0.6050
10054TIP3    H151577   1.142   1.454  12.691  0.4642  0.6958  0.3235
10054TIP3    H251578   1.268   1.438  12.610 -0.9882  1.7444 -2.2706
10055TIP3   OH251579   4.089   4.056  15.610 -0.4154 -0.1314  0.5411
10055TIP3    H151580   4.064   4.123  15.673 -1.5268 -1.2211  1.3059
10055TIP3    H251581   4.034   4.073  15.534 -0.4783  0.0096  0.6173
10056TIP3   OH251582   2.658   5.748   4.661 -0.1892 -0.1513 -0.3128
10056TIP3    H151583   2.567   5.743   4.688 -1.0403  0.5542 -2.7837
10056TIP3    H251584   2.668   5.838   4.627  0.4441 -1.1352 -3.0026
10057TIP3   OH251585   2.135   5.791  14.670  0.0757  0.4085 -0.1521
10057TIP3    H151586   2.040   5.794  14.682 -0.2781  2.5109 -2.6708
10057TIP3    H251587   2.156   5.697  14.669 -1.6221 -0.0842  2.3364
10058TIP3   OH251588   3.881   2.480  12.400  0.6673  0.0762 -1.1620
10058TIP3    H151589   3.955   2.420  12.396  0.4824 -0.1877 -0.6971
10058TIP3    H251590   3.869   2.509  12.309  2.6577  1.7699 -0.9605
10059TIP3   OH251591   6.733   4.979   3.655  0.4200 -0.0788  0.2482
10059TIP3    H151592   6.785   4.979   3.574 -0.3442 -0.1122 -0.2473
10059TIP3    H251593   6.703   4.888   3.664  0.1655  0.0159  0.3507
10060TIP3   OH251594   5.423   6.013  14.746  0.4361 -0.5813  0.2296
10060TIP3    H151595   5.497   6.062  14.783  0.8973 -0.7520 -0.4682
10060TIP3    H251596   5.353   6.024  14.811  1.0645 -0.4084  0.8871
10061TIP3   OH251597   5.223   5.827   3.310 -0.0517 -0.1536  0.1882
10061TIP3    H151598   5.240   5.844   3.403 -0.7284  0.5378  0.1947
10061TIP3    H251599   5.193   5.911   3.275  0.8278 -0.2372 -0.8173
10062TIP3   OH251600   3.578   5.386  14.093  0.2644 -0.1425  0.8234
10062TIP3    H151601   3.631   5.420  14.021  0.1582 -0.9587  0.3481
10062TIP3    H251602   3.503   5.345  14.051 -0.6191  0.7486  1.4811
10063TIP3   OH251603   6.065   1.872   0.453  0.3582  0.1790  0.7727
10063TIP3    H151604   5.971   1.872   0.471  0.2780  1.9176  0.5678
10063TIP3    H251605   6.095   1.785   0.477 -1.6227 -1.0321 -0.8212
10064TIP3   OH251606   2.820   4.389   6.563  0.2409 -0.2230  0.2826
10064TIP3    H151607   2.839   4.467   6.615 -0.9657  0.8410 -0.8023
10064TIP3    H251608   2.764   4.421   6.492  1.5094 -1.6682 -1.4636
10065TIP3   OH251609   6.497   3.231  12.834  0.2220 -0.5297 -0.1894
10065TIP3    H151610   6.589   3.229  12.806 -0.0227 -1.8422 -0.9818
10065TIP3    H251611   6.500   3.227  12.929  1.1352  5.0203  0.3419
10066TIP3   OH251612   6.424   2.887  14.058  0.5597  0.0561  0.0873
10066TIP3    H151613   6.438   2.968  14.108  1.5301 -0.3584  0.5098
10066TIP3    H251614   6.457   2.907  13.970  0.0312  0.3787 -0.0408
10067TIP3   OH251615   1.854   3.017   2.551 -0.1994  0.1044  0.7393
10067TIP3    H151616   1.883   2.969   2.473 -3.6124 -1.1254  0.0310
10067TIP3    H251617   1.838   3.107   2.519  0.2543  0.1022  0.5014
10068TIP3   OH251618   4.667   0.796   4.547 -0.4799 -0.5626  0.4024
10068TIP3    H151619   4.688   0.733   4.478 -0.0746  0.9818 -0.9550
10068TIP3    H251620   4.571   0.798   4.549 -0.4960 -1.1761  0.4257
10069TIP3   OH251621   6.493   0.877   3.136  0.1364 -0.3726 -0.2720
10069TIP3    H151622   6.538   0.816   3.194  0.0189 -1.4505 -1.2896
10069TIP3    H251623   6.549   0.885   3.059  0.8372  1.9024  0.3845
10070TIP3   OH251624   2.970   5.716   2.316 -0.1804 -0.1454 -0.4915
10070TIP3    H151625   2.973   5.634   2.266  0.3944 -0.4462  0.0309
10070TIP3    H251626   2.917   5.774   2.262  0.1030 -0.5928 -1.2765
10071TIP3   OH251627   2.429   4.459  14.373 -0.0975  0.1389  0.5725
10071TIP3    H151628   2.513   4.444  14.418  0.8356 -0.6562 -1.3108
10071TIP3    H251629   2.413   4.378  14.325  0.3016  1.7482 -2.5445
10072TIP3   OH251630   1.558   2.593   5.427 -0.1351 -1.0243  0.0392
10072TIP3    H151631   1.653   2.588   5.438 -0.3086 -3.0519  1.1996
10072TIP3    H251632   1.540   2.533   5.355 -0.6187 -1.4235  0.4894
10073TIP3   OH251633   6.537   2.424  17.218 -0.1660  0.4614 -0.2483
10073TIP3    H151634   6.550   2.329  17.216  0.6531  0.5665 -2.0670
10073TIP3    H251635   6.450   2.437  17.179 -0.6871  0.4183  0.8813
10074TIP3   OH251636   4.530   0.635   2.751 -0.1031  0.0456  0.0647
10074TIP3    H151637   4.483   0.664   2.673 -0.1928 -0.7955 -0.2112
10074TIP3    H251638   4.616   0.678   2.744  0.0594 -0.3890 -0.7559
10075TIP3   OH251639   3.593   3.458   4.891  0.4684  0.2863  0.3870
10075TIP3    H151640   3.622   3.498   4.809  1.0427  0.2997  0.5990
10075TIP3    H251641   3.500   3.441   4.876  0.6556 -0.0974 -0.4231
10076TIP3   OH251642   1.209   1.265  10.670  0.6191  0.1506  0.2765
10076TIP3    H151643   1.289   1.281  10.720  1.3151 -1.7169 -0.1691
10076TIP3    H251644   1.229   1.295  10.582  0.4520  0.6361  0.4000
10077TIP3   OH251645   1.547   1.984  12.809  0.3770  0.1289  0.8549
10077TIP3    H151646   1.620   1.980  12.747  0.0230  0.8978  0.3781
10077TIP3    H251647   1.584   2.026  12.886  0.1317  1.6928  0.1477
10078TIP3   OH251648   4.644   0.950   3.120  0.1715  0.3587  0.4464
10078TIP3    H151649   4.574   0.980   3.179 -0.9503 -0.3711 -0.4799
10078TIP3    H251650   4.724   0.960   3.172 -0.4211  2.5223  1.0668
10079TIP3   OH251651   1.603   1.093  13.713  0.3578 -0.7405  0.5056
10079TIP3    H151652   1.515   1.113  13.680  0.4458 -3.9047 -2.0757
10079TIP3    H251653   1.620   1.162  13.777 -2.6289  1.9394 -1.2819
10080TIP3   OH251654   0.847   0.700  12.902  0.3203  0.2575  0.2201
10080TIP3    H151655   0.877   0.612  12.875 -0.7632  0.1901 -0.8407
10080TIP3    H251656   0.777   0.683  12.965 -1.5527  0.2399 -1.7351
10081TIP3   OH251657   4.381   6.175   0.444 -0.3257  0.4836 -0.3263
10081TIP3    H151658   4.313   6.192   0.378 -1.2496  0.5836  0.6150
10081TIP3    H251659   4.354   6.092   0.484  0.2329  0.4194 -0.0832
10082TIP3   OH251660   3.487   6.407   4.205 -0.2225 -0.1613  0.2182
10082TIP3    H151661   3.542   6.360   4.269  1.1028  0.4777 -0.4104
10082TIP3    H251662   3.402   6.363   4.210  0.1132 -0.7182  1.7536
10083TIP3   OH251663   5.186   6.225  12.483 -0.4791 -0.2857  0.1912
10083TIP3    H151664   5.276   6.255  12.472 -0.7007 -0.2045 -1.7719
10083TIP3    H251665   5.190   6.131  12.469 -0.7619 -0.2111 -0.4192
10084TIP3   OH251666   3.545   4.798   4.741 -0.4033  0.1478 -0.0689
10084TIP3    H151667   3.618   4.741   4.719 -0.9045 -0.0406 -1.3238
10084TIP3    H251668   3.495   4.749   4.806 -0.2830 -0.4095 -0.3895
10085TIP3   OH251669   0.294   5.398   3.263  0.2055 -0.1074 -0.3620
10085TIP3    H151670   0.252   5.483   3.253  0.7688  0.5131  1.9693
10085TIP3    H251671   0.288   5.358   3.176 -0.7355  1.9788 -1.3290
10086TIP3   OH251672   1.484   5.022   0.026  0.0596  0.1161  0.2044
10086TIP3    H151673   1.514   5.037   0.116 -1.4191  0.5476  0.6662
10086TIP3    H251674   1.482   5.108  -0.014 -1.4004  0.2405  0.4913
10087TIP3   OH251675   5.933   2.541  15.566  0.1337 -0.2017 -0.1851
10087TIP3    H151676   5.916   2.543  15.472 -0.9886 -1.9709 -0.0691
10087TIP3    H251677   5.857   2.586  15.605 -0.6220 -1.5434 -0.0429
10088TIP3   OH251678   6.153   4.614   1.089 -0.2904 -0.5490  0.0616
10088TIP3    H151679   6.066   4.573   1.091  0.4918 -2.2514  0.3294
10088TIP3    H251680   6.204   4.559   1.029  0.8483 -0.0893  0.5791
10089TIP3   OH251681   2.471   0.915  13.935 -0.0904  0.0001  0.0733
10089TIP3    H151682   2.564   0.929  13.953 -0.1095  0.4509 -0.1772
10089TIP3    H251683   2.427   0.946  14.015 -0.1898  2.2150 -0.7577
10090TIP3   OH251684   4.393   3.463  14.425  0.8725  0.0028  0.8380
10090TIP3    H151685   4.338   3.531  14.463 -1.5847 -0.7019 -1.1967
10090TIP3    H251686   4.445   3.509  14.359  1.4731  0.3772  1.5576
10091TIP3   OH251687   5.870   1.423   0.802  0.0014  0.0871  0.2492
10091TIP3    H151688   5.868   1.510   0.841 -0.9699  0.0926  0.2225
10091TIP3    H251689   5.789   1.381   0.833 -0.1968 -0.3283 -0.7914
10092TIP3   OH251690   5.194   3.722   1.638 -0.4736  0.2495 -0.2055
10092TIP3    H151691   5.160   3.762   1.558  0.9467  2.8615  0.3698
10092TIP3    H251692   5.121   3.726   1.699 -0.8516  0.4910 -0.6660
10093TIP3   OH251693   3.963   1.911  15.921 -0.5420 -0.6881  0.6125
10093TIP3    H151694   3.881   1.896  15.874 -0.2829  0.2004 -0.1612
10093TIP3    H251695   3.988   1.825  15.953 -0.4264 -1.4633 -1.4119
10094TIP3   OH251696   4.298   3.433  13.173 -0.4457  0.3653  0.7973
10094TIP3    H151697   4.311   3.411  13.265  0.2352  0.7442  0.7969
10094TIP3    H251698   4.250   3.516  13.174 -0.6036  0.2759  0.8019
10095TIP3   OH251699   2.040   1.616   0.902 -0.0552  0.1975  0.5107
10095TIP3    H151700   2.128   1.632   0.867  0.5584  0.5522  2.1281
10095TIP3    H251701   1.982   1.667   0.844  0.9848  1.3588  0.4421
10096TIP3   OH251702   4.962   6.311  12.790  0.6410 -0.0923 -0.3554
10096TIP3    H151703   4.940   6.230  12.836  0.8460 -1.2793 -2.2417
10096TIP3    H251704   5.052   6.299  12.761  0.3389  0.3487 -1.5557
10097TIP3   OH251705   0.840   2.014  14.992 -0.3794 -0.0631 -0.1342
10097TIP3    H151706   0.802   2.071  15.058 -1.5478 -0.4068 -0.4789
10097TIP3    H251707   0.838   1.927  15.031  1.0183  0.0418  0.2305
10098TIP3   OH251708   1.710   4.681  15.046 -0.0860 -0.2148 -0.0553
10098TIP3    H151709   1.615   4.677  15.038  0.0090  0.2405 -1.7993
10098TIP3    H251710   1.743   4.643  14.965  1.1715  1.7338 -0.5297
10099TIP3   OH251711   1.574   2.471  12.330  0.3765 -0.3940 -0.5278
10099TIP3    H151712   1.569   2.458  12.425  0.8378 -4.2996 -0.8728
10099TIP3    H251713   1.655   2.427  12.304 -0.9792 -1.7174 -2.9401
10100TIP3   OH251714   4.931   5.998  15.437  0.7113  0.4401  0.1655
10100TIP3    H151715   4.926   5.987  15.342 -1.7539 -1.3889  0.4050
10100TIP3    H251716   4.960   5.912  15.469  1.2496  0.9573  1.0902
10101TIP3   OH251717   4.796   0.676   1.019  0.1658 -0.0031 -0.2282
10101TIP3    H151718   4.886   0.702   1.042 -0.2139  0.5634  0.6810
10101TIP3    H251719   4.793   0.683   0.924  0.6727  1.4219 -0.1726
10102TIP3   OH251720   1.398   6.500   0.330  0.1118 -0.2084 -0.3458
10102TIP3    H151721   1.351   6.422   0.301 -1.4286  0.2912  0.6943
10102TIP3    H251722   1.413   6.550   0.250 -1.1456 -0.3961 -0.7264
10103TIP3   OH251723   3.919   1.742  12.078  0.2943 -0.2501 -0.1404
10103TIP3    H151724   3.995   1.764  12.024 -0.9945  3.2074 -0.7795
10103TIP3    H251725   3.944   1.769  12.167  0.2030 -0.1661 -0.1406
10104TIP3   OH251726   2.611   4.561   3.493 -0.0938 -0.2054  0.1914
10104TIP3    H151727   2.704   4.551   3.473 -0.2032  1.3107 -1.2274
10104TIP3    H251728   2.578   4.471   3.499  1.1326 -0.7586 -0.9412
10105TIP3   OH251729   1.504   5.552   3.025  0.3432 -0.6079  0.2907
10105TIP3    H151730   1.559   5.535   2.948 -1.7782  1.4226 -1.8615
10105TIP3    H251731   1.463   5.467   3.043  1.5340 -1.3304 -0.2533
10106TIP3   OH251732   5.560   6.731  15.080  0.3500 -0.2268 -1.0088
10106TIP3    H151733   5.614   6.712  15.004 -2.1300 -1.4212 -2.6118
10106TIP3    H251734   5.486   6.781  15.046 -0.3001  0.1375  0.7987
10107TIP3   OH251735   6.707   2.369  16.121 -0.0735 -0.5740  0.2927
10107TIP3    H151736   6.662   2.309  16.061  0.4416 -0.2250 -0.4596
10107TIP3    H251737   6.793   2.384  16.080 -0.1836  0.6614  0.4721
10108TIP3   OH251738   3.283   5.942   5.687 -0.0519  0.0123  0.5460
10108TIP3    H151739   3.296   5.966   5.595  1.7659  0.8379  0.9686
10108TIP3    H251740   3.348   5.994   5.734 -0.4786 -0.9227  2.2387
10109TIP3   OH251741   2.022   6.502   2.212 -0.0505  0.2990 -0.2178
10109TIP3    H151742   1.933   6.536   2.207  0.3020  1.0200 -2.9409
10109TIP3    H251743   2.013   6.419   2.259 -2.1772  0.3072 -0.5184
10110TIP3   OH251744   5.854   0.843   5.810  0.6056 -0.1604 -0.0969
10110TIP3    H151745   5.766   0.815   5.835  0.4828 -0.7097 -1.0467
10110TIP3    H251746   5.889   0.886   5.887 -1.6811  3.0442 -0.6387
10111TIP3   OH251747   2.097   1.122   0.463  0.0216 -0.2663  0.5818
10111TIP3    H151748   2.072   1.146   0.552 -2.4065 -1.6175  0.3299
10111TIP3    H251749   2.112   1.028   0.467 -2.3641 -0.7731 -0.8377
10112TIP3   OH251750   0.531   2.220   5.076  0.0924 -0.4379 -0.3642
10112TIP3    H151751   0.580   2.185   5.150 -3.0574 -2.1472  1.1037
10112TIP3    H251752   0.496   2.304   5.108 -0.3429 -0.6363 -0.3155
10113TIP3   OH251753   2.136   3.093   5.435  0.0695 -0.0943  0.3286
10113TIP3    H151754   2.183   3.049   5.506  1.6785  0.8167 -0.1172
10113TIP3    H251755   2.116   3.180   5.471  1.8387  0.7667 -0.6167
10114TIP3   OH251756   0.231   2.984  17.134 -0.2265  0.1739  0.8751
10114TIP3    H151757   0.170   3.058  17.132 -1.6806 -0.9965 -0.5742
10114TIP3    H251758   0.236   2.955  17.043 -0.4035 -2.0729  1.5271
10115TIP3   OH251759   5.195   5.302  12.843  0.4538 -0.3473 -0.0471
10115TIP3    H151760   5.150   5.235  12.791  0.7018  0.2330 -1.0422
10115TIP3    H251761   5.232   5.254  12.917  0.7688 -1.3456 -0.8257
10116TIP3   OH251762   0.315   1.606   4.150  0.2688  0.1760  0.2770
10116TIP3    H151763   0.241   1.639   4.099 -0.9495 -0.4742  1.5641
10116TIP3    H251764   0.390   1.654   4.116 -0.5153 -0.0612 -1.9695
10117TIP3   OH251765   2.719   2.446  11.064  0.3588 -0.2639  0.5380
10117TIP3    H151766   2.809   2.417  11.079 -0.8553 -3.3910  3.0175
10117TIP3    H251767   2.719   2.539  11.083  3.3505  0.2587 -1.4005
10118TIP3   OH251768   4.326   1.224  11.152  0.6019  0.0758  0.2655
10118TIP3    H151769   4.285   1.307  11.129 -0.0159 -0.6218 -1.2344
10118TIP3    H251770   4.277   1.193  11.228  0.5352  0.8456  0.5449
10119TIP3   OH251771   6.042   5.354  14.523 -0.1148  0.4023  0.0396
10119TIP3    H151772   6.076   5.372  14.435  0.2455  1.7231  0.4234
10119TIP3    H251773   6.111   5.382  14.582 -1.1373  1.5020  0.7818
10120TIP3   OH251774   3.847   5.339   0.967  0.0913  0.2042  0.1423
10120TIP3    H151775   3.920   5.394   0.996  1.1122 -0.5628 -0.8448
10120TIP3    H251776   3.875   5.250   0.988  0.2011 -0.2416 -1.7204
10121TIP3   OH251777   2.048   4.647   4.354  0.1797  0.1979 -0.1914
10121TIP3    H151778   2.002   4.729   4.374 -0.1514 -0.5181  2.4345
10121TIP3    H251779   2.112   4.638   4.425  0.8100 -1.3890 -0.9199
10122TIP3   OH251780   3.307   4.856  15.406 -0.4423  0.3632 -0.0179
10122TIP3    H151781   3.260   4.925  15.452 -0.2239 -0.5476  1.6378
10122TIP3    H251782   3.357   4.902  15.338 -1.2710  1.6706  0.2167
10123TIP3   OH251783   5.121   1.253  12.142 -0.2666 -0.4692 -0.1032
10123TIP3    H151784   5.091   1.202  12.067  2.2859 -0.8750 -0.9695
10123TIP3    H251785   5.198   1.206  12.173 -0.6476  0.2807  2.1548
10124TIP3   OH251786   4.466   0.858  11.766 -0.5544 -0.1455 -0.3442
10124TIP3    H151787   4.461   0.799  11.841  1.8690  0.1935  0.1675
10124TIP3    H251788   4.533   0.922  11.791 -1.1316  1.1718 -2.0131
10125TIP3   OH251789   1.604   4.475   1.086  0.3529  0.3070  0.0509
10125TIP3    H151790   1.588   4.426   1.167  1.3046  1.6067  1.0717
10125TIP3    H251791   1.572   4.564   1.105  2.0033  1.0474 -0.4189
10126TIP3   OH251792   0.519   5.758  14.210  0.1554  0.3587 -0.0045
10126TIP3    H151793   0.559   5.707  14.140  0.3841  0.1236  0.2984
10126TIP3    H251794   0.567   5.734  14.289 -1.4469 -0.9445  0.6249
10127TIP3   OH251795   2.179   1.249  14.010  1.2221 -0.0278 -0.0560
10127TIP3    H151796   2.122   1.312  13.966  0.7927 -0.3667  0.0091
10127TIP3    H251797   2.146   1.163  13.982  0.7565 -0.2567  1.1204
10128TIP3   OH251798   2.768   3.955   1.713  0.2895  0.1174  0.5557
10128TIP3    H151799   2.693   3.911   1.675 -0.1028  0.4408  0.9401
10128TIP3    H251800   2.826   3.884   1.743  1.3793 -0.1848 -2.0323
10129TIP3   OH251801   4.443   4.907   3.457 -0.1062  0.5652  0.7710
10129TIP3    H151802   4.519   4.953   3.422  0.6339  0.6111  2.3670
10129TIP3    H251803   4.459   4.901   3.551 -1.0557 -1.3487  0.8684
10130TIP3   OH251804   5.869   2.972  14.499 -0.2316  0.1909 -0.6155
10130TIP3    H151805   5.921   2.932  14.428  0.9659  1.3510 -0.4254
10130TIP3    H251806   5.782   2.983  14.461  0.3825  0.7965 -1.9357
10131TIP3   OH251807   2.176   0.847   1.136 -0.0465  0.3319  0.5029
10131TIP3    H151808   2.227   0.796   1.073 -1.4075 -1.1465  0.5340
10131TIP3    H251809   2.211   0.822   1.221 -1.8245 -2.0040  0.6462
10132TIP3   OH251810   6.487   4.209   0.533 -0.2939 -0.4807 -0.2826
10132TIP3    H151811   6.420   4.151   0.496 -0.1659 -0.1217 -1.1008
10132TIP3    H251812   6.454   4.297   0.517 -1.1451 -0.2815  2.1751
10133TIP3   OH251813   5.001   3.441  14.933  0.1189 -0.3141 -0.5270
10133TIP3    H151814   5.081   3.387  14.928  2.1572  2.5394 -0.8931
10133TIP3    H251815   4.985   3.468  14.843 -0.2351  0.5500 -0.2101
10134TIP3   OH251816   1.552   3.878  14.695 -0.3682 -0.6462  0.3247
10134TIP3    H151817   1.598   3.795  14.683  0.0185 -0.2178 -1.3677
10134TIP3    H251818   1.564   3.925  14.613  0.6707  1.7410  1.7045
10135TIP3   OH251819   3.399   1.275  12.158 -0.3367 -0.0665  0.0664
10135TIP3    H151820   3.431   1.231  12.237 -0.2740  1.9135  1.2317
10135TIP3    H251821   3.341   1.344  12.192 -1.5295 -0.1158 -1.7254
10136TIP3   OH251822   4.455   1.443  16.716 -0.0347 -0.2890  0.7131
10136TIP3    H151823   4.419   1.429  16.628  1.3790 -2.0627  0.3543
10136TIP3    H251824   4.389   1.495  16.761 -0.3175  1.6504 -1.7185
10137TIP3   OH251825   3.951   2.994   3.474 -0.4770  0.0671  0.4646
10137TIP3    H151826   3.903   3.007   3.556 -0.7571 -0.2197  0.3500
10137TIP3    H251827   4.026   3.052   3.480 -1.0849  0.8724  0.4572
10138TIP3   OH251828   6.544   0.618  14.847 -0.1176 -0.0395  0.1472
10138TIP3    H151829   6.559   0.563  14.770 -0.5567 -0.2004  0.1733
10138TIP3    H251830   6.632   0.640  14.878  0.0664 -0.9049  0.2622
10139TIP3   OH251831   2.057   2.290  10.734  0.0634  0.1412 -0.4407
10139TIP3    H151832   2.138   2.243  10.756  0.2291  1.2080  1.3172
10139TIP3    H251833   1.989   2.223  10.738  0.5513 -0.3230  0.2339
10140TIP3   OH251834   3.163   2.714   4.654  0.4746  0.1023  0.3070
10140TIP3    H151835   3.134   2.747   4.738  0.9085  0.3175  0.3763
10140TIP3    H251836   3.100   2.646   4.631  0.6772 -0.3545  1.0767
10141TIP3   OH251837   4.567   2.570   0.534 -0.3851 -0.0266  0.4562
10141TIP3    H151838   4.575   2.524   0.450 -1.4703 -2.9230  1.7950
10141TIP3    H251839   4.473   2.587   0.543 -0.0053  2.7023 -0.0342
10142TIP3   OH251840   3.098   2.413  12.878 -0.0747  0.1535  0.3526
10142TIP3    H151841   3.149   2.340  12.912 -2.1430 -1.8235 -0.5428
10142TIP3    H251842   3.157   2.488  12.885  2.4832 -1.7152  0.4915
10143TIP3   OH251843   1.405   0.914  12.585 -0.1192 -0.4159 -0.3133
10143TIP3    H151844   1.311   0.903  12.601 -0.2629 -0.0792 -0.8927
10143TIP3    H251845   1.435   0.970  12.657 -0.6693  0.7268 -0.9463
10144TIP3   OH251846   0.657   3.705  13.792  0.3589  0.5619  0.0840
10144TIP3    H151847   0.710   3.648  13.736  0.1513 -1.6210  1.9860
10144TIP3    H251848   0.720   3.771  13.823  0.5059  1.7628 -2.4775
10145TIP3   OH251849   1.081   0.883   3.683 -0.2279  0.2428 -0.3030
10145TIP3    H151850   1.135   0.899   3.605 -1.3336  1.6962 -0.8132
10145TIP3    H251851   1.134   0.824   3.736  1.1226  0.2501 -1.5566
10146TIP3   OH251852   4.456   5.234  12.914  0.2374  0.1497 -0.0922
10146TIP3    H151853   4.516   5.190  12.974  0.9345  1.0927 -0.0900
10146TIP3    H251854   4.397   5.284  12.971 -0.2392 -0.3582 -0.1220
10147TIP3   OH251855   3.902   6.261  13.362 -0.1755 -0.5694  0.0422
10147TIP3    H151856   3.923   6.252  13.455  0.1766 -0.8268 -0.0633
10147TIP3    H251857   3.813   6.227  13.354 -1.5532  2.4754  0.8809
10148TIP3   OH251858   3.762   4.790   2.521  0.0289  0.3918 -0.0796
10148TIP3    H151859   3.796   4.875   2.549 -0.3061 -0.3177  2.9279
10148TIP3    H251860   3.758   4.739   2.602 -2.6001 -1.5089 -1.2666
10149TIP3   OH251861   0.191   6.518   2.762 -0.6275 -0.9087  0.0416
10149TIP3    H151862   0.136   6.497   2.686  1.1037 -1.2481 -1.1635
10149TIP3    H251863   0.268   6.462   2.753  0.6161  0.5790  0.8880
10150TIP3   OH251864   6.166   5.122  17.037  0.1570  0.6735 -0.9384
10150TIP3    H151865   6.126   5.042  17.071  2.2118  0.2030  0.5452
10150TIP3    H251866   6.127   5.192  17.091 -1.1647  0.6588 -1.8174
10151TIP3   OH251867   6.742   4.212  17.166 -0.2611  0.8672  0.3540
10151TIP3    H151868   6.701   4.298  17.159 -1.3029  0.3528 -0.2141
10151TIP3    H251869   6.715   4.179  17.251  0.6649  1.3427  0.8501
10152TIP3   OH251870   2.864   3.403  11.802 -0.7261  0.5078 -0.1494
10152TIP3    H151871   2.926   3.476  11.811  1.1634 -0.9650 -0.4700
10152TIP3    H251872   2.808   3.428  11.728 -1.3178  2.4032  0.8789
10153TIP3   OH251873   6.388   1.221   3.181 -0.6426 -0.4368 -0.1050
10153TIP3    H151874   6.445   1.157   3.137  0.6361  0.8974 -0.4519
10153TIP3    H251875   6.372   1.183   3.267  1.9496 -0.2553  0.5283
10154TIP3   OH251876   6.241   2.131   4.679  0.2238  0.1009 -0.9345
10154TIP3    H151877   6.327   2.167   4.658  0.6038 -0.2498 -0.0271
10154TIP3    H251878   6.244   2.116   4.774 -0.2643 -1.3752 -1.1282
10155TIP3   OH251879   1.262   3.728  15.887 -0.2159  0.3333 -0.4934
10155TIP3    H151880   1.349   3.766  15.895  0.1140 -0.3798 -0.6428
10155TIP3    H251881   1.202   3.801  15.903  0.4064  0.6654  0.3686
10156TIP3   OH251882   3.854   3.555   0.131  0.1903 -0.2669  0.1584
10156TIP3    H151883   3.786   3.569   0.064  0.7099 -1.3642 -0.6189
10156TIP3    H251884   3.859   3.460   0.141  0.2913 -0.1270  1.6007
10157TIP3   OH251885   1.775   0.161  11.854 -1.0122 -0.7340 -0.0756
10157TIP3    H151886   1.737   0.094  11.798 -1.3602  0.1378 -0.9146
10157TIP3    H251887   1.824   0.218  11.794  0.4261 -0.9962  0.7833
10158TIP3   OH251888   2.748   5.229   2.549  0.1415  0.5045  0.1539
10158TIP3    H151889   2.667   5.255   2.506 -0.6246 -0.8389  0.7236
10158TIP3    H251890   2.760   5.138   2.524  1.4449  0.6585  0.1486
10159TIP3   OH251891   3.722   3.254   3.518  0.2725 -0.3340 -1.3806
10159TIP3    H151892   3.662   3.201   3.465 -0.5746  1.9030 -2.7952
10159TIP3    H251893   3.671   3.277   3.596 -0.2206  0.3192 -1.8801
10160TIP3   OH251894   4.276   6.488   5.419 -0.5322  0.3752 -0.3295
10160TIP3    H151895   4.207   6.423   5.427 -0.3374  0.3317  1.7377
10160TIP3    H251896   4.244   6.563   5.470  1.2103  0.0582  1.3578
10161TIP3   OH251897   2.398   4.759  11.856  0.1966  0.0630  0.3865
10161TIP3    H151898   2.444   4.691  11.807  0.5983 -0.0406  0.8942
10161TIP3    H251899   2.441   4.841  11.829  1.6663 -0.1610  1.9088
10162TIP3   OH251900   1.819   6.480   3.959  0.0125 -0.0696 -0.3084
10162TIP3    H151901   1.792   6.490   4.050 -1.0891 -0.7630 -0.5420
10162TIP3    H251902   1.879   6.405   3.961 -1.4728 -1.3183 -0.3930
10163TIP3   OH251903   1.144   1.667  16.290  0.4724  0.1246 -0.3769
10163TIP3    H151904   1.184   1.631  16.369  0.2443  0.8123  0.0590
10163TIP3    H251905   1.127   1.591  16.234  2.7464 -0.1681 -0.7595
10164TIP3   OH251906   1.349   2.714   1.874  0.1863  0.1524 -0.7722
10164TIP3    H151907   1.274   2.690   1.820  1.1045  0.4875 -2.2649
10164TIP3    H251908   1.421   2.659   1.842  0.5118 -0.4640  0.9015
10165TIP3   OH251909   2.533   1.893  12.093  0.4931 -0.1470  0.3530
10165TIP3    H151910   2.540   1.812  12.043  3.2092  1.4127 -2.0561
10165TIP3    H251911   2.553   1.867  12.183  1.8350 -2.0605 -0.4414
10166TIP3   OH251912   6.468   4.296  12.502  0.0455 -0.2361  0.0691
10166TIP3    H151913   6.554   4.309  12.541 -0.1705  1.0812  0.1625
10166TIP3    H251914   6.450   4.378  12.455 -2.4752  0.8921  2.6337
10167TIP3   OH251915   4.387   3.544  13.651  0.0520 -0.1598  0.3906
10167TIP3    H151916   4.298   3.536  13.618  0.2303 -2.2771  0.2698
10167TIP3    H251917   4.397   3.636  13.673 -0.3565  1.4405 -4.7473
10168TIP3   OH251918   0.993   6.301  12.656  0.5230 -0.1343 -0.1166
10168TIP3    H151919   1.083   6.310  12.688  0.2899 -0.2953  0.5967
10168TIP3    H251920   0.992   6.353  12.575  0.9740  0.7493  0.4258
10169TIP3   OH251921   5.562   5.992   0.406  0.0527 -0.9254 -0.0879
10169TIP3    H151922   5.639   6.048   0.393  0.2961 -0.9920  1.0004
10169TIP3    H251923   5.591   5.906   0.378  0.4858 -1.0132  0.5965
10170TIP3   OH251924   1.212   0.268  15.535 -0.1864 -0.1063  0.1419
10170TIP3    H151925   1.178   0.186  15.570 -0.5806  0.2989  0.7306
10170TIP3    H251926   1.278   0.296  15.599  0.5794 -0.4039 -0.5060
10171TIP3   OH251927   2.573   0.518   0.598 -0.0600  0.4146  0.0868
10171TIP3    H151928   2.512   0.475   0.539 -1.1717  3.3600 -1.1214
10171TIP3    H251929   2.632   0.567   0.540  0.2095  1.6596  1.3342
10172TIP3   OH251930   6.553   3.549   0.009  0.5778 -0.2367 -0.0365
10172TIP3    H151931   6.621   3.612   0.034  1.5114 -2.3576  3.6254
10172TIP3    H251932   6.601   3.470  -0.017 -0.4751 -0.9396  0.0835
10173TIP3   OH251933   2.811   0.031   4.077  0.4866 -0.3911 -0.3168
10173TIP3    H151934   2.860  -0.043   4.041  0.3596 -1.6341  1.9046
10173TIP3    H251935   2.873   0.075   4.135  0.0706  0.3011 -0.3852
10174TIP3   OH251936   0.395   3.665   1.095 -0.1734  0.1990 -0.3379
10174TIP3    H151937   0.460   3.630   1.034 -1.3742 -1.7740 -0.5677
10174TIP3    H251938   0.383   3.596   1.160 -2.1257  0.4419 -0.3825
10175TIP3   OH251939   0.628   3.901  11.897  0.2746  0.0048  0.0921
10175TIP3    H151940   0.672   3.818  11.881  1.3798  0.3668  1.1291
10175TIP3    H251941   0.539   3.876  11.923  1.1354 -1.0232  2.3630
10176TIP3   OH251942   6.434   0.639   0.362  0.5472 -0.9127  0.1735
10176TIP3    H151943   6.420   0.595   0.446 -0.3065 -0.9790  0.0075
10176TIP3    H251944   6.407   0.729   0.377  0.4181 -0.9180 -0.0201
10177TIP3   OH251945   4.664   2.041   2.476 -0.3916  0.7359  0.5730
10177TIP3    H151946   4.683   1.948   2.486  1.8968  1.1696  0.7383
10177TIP3    H251947   4.687   2.062   2.386  2.8020  1.8076  1.4763
10178TIP3   OH251948   1.114   1.646  13.944  0.6460 -0.5862  0.1480
10178TIP3    H151949   1.139   1.555  13.961 -2.3927 -1.4476  0.6141
10178TIP3    H251950   1.095   1.649  13.851  1.7350 -0.1340 -0.0674
10179TIP3   OH251951   2.222   4.585   2.219 -0.1900 -0.0275 -0.2235
10179TIP3    H151952   2.222   4.531   2.140  0.8300  1.1815 -1.0909
10179TIP3    H251953   2.246   4.525   2.289 -0.8944 -1.0790 -0.8510
10180TIP3   OH251954   2.081   0.127  11.396 -0.1219 -0.7169  0.6344
10180TIP3    H151955   2.148   0.060  11.381 -0.0345 -0.4238 -0.3429
10180TIP3    H251956   2.000   0.077  11.408  0.6494 -1.3211  5.1709
10181TIP3   OH251957   1.241   1.712  17.316 -0.1136 -0.0097  0.1071
10181TIP3    H151958   1.277   1.727  17.229 -0.9910 -0.4660 -0.3458
10181TIP3    H251959   1.147   1.727  17.307 -0.4276 -1.4663  0.6275
10182TIP3   OH251960   5.679   0.477   6.067  0.0765 -0.6740 -0.0541
10182TIP3    H151961   5.602   0.527   6.095  0.2167  0.3268 -1.3411
10182TIP3    H251962   5.679   0.399   6.123 -1.3706 -0.2704  0.5587
10183TIP3   OH251963   4.865   3.669   4.280  0.0304  0.0227  0.0513
10183TIP3    H151964   4.823   3.664   4.366  1.1332 -2.4408  0.5278
10183TIP3    H251965   4.890   3.761   4.271 -0.8211  0.4961  1.9996
10184TIP3   OH251966   4.349   4.616   2.251  0.5946 -0.1225  0.0650
10184TIP3    H151967   4.437   4.585   2.230  0.5589  0.8949 -1.7354
10184TIP3    H251968   4.345   4.704   2.215 -1.1612 -0.1345  0.1542
10185TIP3   OH251969   2.945   5.314  15.767  0.0250 -0.0024 -0.3170
10185TIP3    H151970   2.959   5.284  15.856  0.0787 -0.0393 -0.3380
10185TIP3    H251971   3.029   5.300  15.723  0.4570  1.3847  0.0117
10186TIP3   OH251972   3.325   2.307   6.178  0.3334 -0.3667 -0.0899
10186TIP3    H151973   3.397   2.369   6.175  0.0380  0.0360  0.6184
10186TIP3    H251974   3.313   2.290   6.272 -0.8022 -0.0378 -0.1603
10187TIP3   OH251975   5.332   2.653  15.704  0.3923  0.3166  0.4521
10187TIP3    H151976   5.376   2.709  15.639  1.3406 -0.8965  0.0193
10187TIP3    H251977   5.357   2.564  15.680  0.6658 -0.1792  2.4238
10188TIP3   OH251978   3.001   4.487  16.960  0.1879 -0.3667 -0.4685
10188TIP3    H151979   3.072   4.500  17.022  1.0406  0.8471 -1.6414
10188TIP3    H251980   2.966   4.400  16.981  0.3863  0.0226  1.7189
10189TIP3   OH251981   3.640   5.941  13.110 -0.5272 -0.1411 -0.4279
10189TIP3    H151982   3.547   5.926  13.130 -0.2718 -2.1764 -0.5846
10189TIP3    H251983   3.663   5.871  13.048  1.4662 -0.5519  0.7024
10190TIP3   OH251984   6.725   3.899  11.756 -0.6297  0.2396  0.0602
10190TIP3    H151985   6.790   3.947  11.704 -0.9473  1.7095  0.9588
10190TIP3    H251986   6.717   3.815  11.712 -0.4617  1.2045 -1.9299
10191TIP3   OH251987   2.478   4.892  13.494 -0.2628 -0.1571 -0.0438
10191TIP3    H151988   2.554   4.866  13.547  0.2870  0.8383 -0.3141
10191TIP3    H251989   2.422   4.815  13.493  0.7111 -0.8892  0.2363
10192TIP3   OH251990   3.214   0.595  14.518  0.4056 -0.5885  0.1203
10192TIP3    H151991   3.159   0.661  14.560  2.9494  1.6912  0.2070
10192TIP3    H251992   3.218   0.622  14.426 -0.6391 -2.2606 -0.4614
10193TIP3   OH251993   4.152   2.796   4.953  0.4127  0.2519  0.5115
10193TIP3    H151994   4.087   2.725   4.953 -0.9360  1.4316 -0.4314
10193TIP3    H251995   4.165   2.816   5.046  0.0973 -0.5999  0.7517
10194TIP3   OH251996   3.795   4.250  13.733 -0.4465  0.0581  0.1959
10194TIP3    H151997   3.702   4.243  13.756 -0.5310  2.8767  1.1150
10194TIP3    H251998   3.795   4.308  13.657  0.5839  0.3158  0.3862
10195TIP3   OH251999   4.955   0.307   0.402 -0.1879 -0.1224  0.0273
10195TIP3    H152000   5.039   0.341   0.431 -0.5210  0.2702  0.5429
10195TIP3    H252001   4.891   0.373   0.430 -0.6182 -0.1855 -0.7649
10196TIP3   OH252002   1.214   5.275   0.582 -0.1712  0.4540  0.2446
10196TIP3    H152003   1.249   5.196   0.623  0.3609  0.7670  0.4032
10196TIP3    H252004   1.235   5.265   0.489 -1.0276 -0.0720  0.0997
10197TIP3   OH252005   1.004   3.350   0.013  0.1685  0.2895  0.8790
10197TIP3    H152006   0.947   3.416   0.052 -1.2784 -0.2546 -0.2467
10197TIP3    H252007   0.944   3.285  -0.023  1.4822 -0.0308 -0.8293
10198TIP3   OH252008   5.945   1.656   6.269 -0.2339 -1.2610  0.3063
10198TIP3    H152009   5.879   1.587   6.274 -0.5650 -1.0411 -0.7386
10198TIP3    H252010   6.024   1.616   6.306 -0.9181 -1.5370  1.5525
10199TIP3   OH252011   2.634   4.003  11.376 -0.1913  0.3427  0.1697
10199TIP3    H152012   2.550   3.981  11.337  0.2194  1.1711 -1.2292
10199TIP3    H252013   2.688   3.925  11.363 -0.0898  0.5777 -0.8459
10200TIP3   OH252014   2.237   6.157  12.489  0.2089 -0.1236 -0.3794
10200TIP3    H152015   2.264   6.142  12.399  0.4117  1.2489 -0.5584
10200TIP3    H252016   2.142   6.140  12.488  0.3153 -0.7372 -0.6934
10201TIP3   OH252017   5.253   6.454   4.341  0.4951 -0.3155  0.1261
10201TIP3    H152018   5.314   6.521   4.373 -0.2848 -0.7113  2.6244
10201TIP3    H252019   5.299   6.415   4.266  2.5917  0.5264  0.8748
10202TIP3   OH252020   6.194   5.234   4.422  0.2622  0.4517  0.1169
10202TIP3    H152021   6.145   5.152   4.422  0.2876  0.4294 -0.5300
10202TIP3    H252022   6.187   5.267   4.511  1.9263 -1.2666  0.9373
10203TIP3   OH252023   3.448   5.106   5.004 -0.9962 -0.0229 -0.0445
10203TIP3    H152024   3.366   5.154   5.018 -2.5098 -2.2457 -0.7294
10203TIP3    H252025   3.432   5.020   5.043  1.5084 -0.1495  0.8801
10204TIP3   OH252026   5.782   6.207   5.991 -0.2178  0.2566  0.3339
10204TIP3    H152027   5.692   6.223   6.019 -0.5883 -0.9778 -0.0645
10204TIP3    H252028   5.788   6.247   5.904  0.2000  1.9482  1.0994
10205TIP3   OH252029   2.702   2.178  16.758 -0.6900 -0.9463  0.4565
10205TIP3    H152030   2.628   2.118  16.761  0.1717 -2.1596 -1.3416
10205TIP3    H252031   2.776   2.128  16.791 -0.2404 -0.4245  0.2693
10206TIP3   OH252032   4.410   4.954   5.492 -0.5436 -0.2888  0.1365
10206TIP3    H152033   4.341   5.006   5.451 -0.0130  0.2924 -0.0361
10206TIP3    H252034   4.370   4.918   5.570 -1.1219 -0.1666 -0.1004
10207TIP3   OH252035   3.459   0.009   2.743  0.1065 -0.4580  0.4474
10207TIP3    H152036   3.450   0.056   2.660  1.8995 -0.0077  0.4671
10207TIP3    H252037   3.378  -0.042   2.751  0.1737 -1.0586 -1.9187
10208TIP3   OH252038   1.137   3.601  13.273 -0.1850  0.4081 -0.0332
10208TIP3    H152039   1.066   3.651  13.312  0.1121  1.4578 -0.7951
10208TIP3    H252040   1.214   3.622  13.326 -0.2834 -0.1327  0.3298
10209TIP3   OH252041   6.212   3.016  12.259 -0.2508 -0.2189  0.2854
10209TIP3    H152042   6.139   3.055  12.308 -0.3460 -2.6961  2.3190
10209TIP3    H252043   6.290   3.062  12.292 -0.6512  0.7947 -0.1395
10210TIP3   OH252044   0.570   2.528  16.672 -0.4085  0.0832 -0.4355
10210TIP3    H152045   0.602   2.509  16.583 -0.3685 -1.5257 -0.1158
10210TIP3    H252046   0.500   2.592  16.659  0.1200  0.4642 -1.5503
10211TIP3   OH252047   4.295   5.831  16.393  0.1827 -0.6808 -0.1121
10211TIP3    H152048   4.323   5.883  16.468  1.4221 -0.8181 -0.4485
10211TIP3    H252049   4.210   5.795  16.418  0.7928 -1.1323  1.4211
10212TIP3   OH252050   0.686   6.646  11.965  0.5876  0.4017  0.4102
10212TIP3    H152051   0.739   6.577  11.926 -1.4134 -1.2204  0.3444
10212TIP3    H252052   0.710   6.725  11.918  1.3472 -0.6939 -1.1103
10213TIP3   OH252053   1.912   4.023   0.412  0.2659  0.3069 -0.4188
10213TIP3    H152054   1.885   4.059   0.496  0.4302  0.8316 -0.5911
10213TIP3    H252055   1.888   4.090   0.348 -0.3438 -0.3087 -0.8544
10214TIP3   OH252056   0.258   6.623  16.228 -0.1238  0.1832  0.4811
10214TIP3    H152057   0.312   6.603  16.152 -1.4808 -0.0251 -0.4723
10214TIP3    H252058   0.311   6.596  16.304  0.3858 -1.6929 -0.4882
10215TIP3   OH252059   1.496   5.637  11.117 -0.4757  0.6408 -0.2703
10215TIP3    H152060   1.471   5.725  11.088 -1.0441  0.5198 -0.1476
10215TIP3    H252061   1.592   5.641  11.123 -0.5854  1.7939  1.4220
10216TIP3   OH252062   6.337   4.860   5.638 -0.1282 -0.0950 -0.1821
10216TIP3    H152063   6.261   4.823   5.592  0.0128  0.7217 -1.1019
10216TIP3    H252064   6.412   4.836   5.584  0.5597 -2.4631  1.6324
10217TIP3   OH252065   6.349   1.526  10.485 -0.1723  0.2516 -0.5044
10217TIP3    H152066   6.417   1.537  10.418  0.3557  1.0319  0.1560
10217TIP3    H252067   6.288   1.597  10.468  0.0578  0.5590 -0.0415
10218TIP3   OH252068   0.878   2.404   1.646 -0.4425 -0.2985  0.1483
10218TIP3    H152069   0.892   2.488   1.603 -0.0103 -0.7260 -0.5639
10218TIP3    H252070   0.930   2.342   1.595 -1.0214 -1.0587  0.4687
10219TIP3   OH252071   4.803   5.605  14.074 -0.0772 -0.4929  0.2670
10219TIP3    H152072   4.785   5.641  14.161  0.2826  0.3537  0.0051
10219TIP3    H252073   4.896   5.622  14.060 -0.0249 -1.0689 -0.0835
10220TIP3   OH252074   3.258   1.042  13.277 -0.0020 -0.4365  0.3495
10220TIP3    H152075   3.205   1.118  13.254  0.2215 -0.2384  0.4788
10220TIP3    H252076   3.218   1.008  13.357 -0.5576 -0.9078 -0.1237
10221TIP3   OH252077   3.905   5.626   4.324  0.3706 -0.0519 -0.3268
10221TIP3    H152078   3.929   5.716   4.303  2.4658 -0.6450 -0.7018
10221TIP3    H252079   3.841   5.602   4.256 -2.2580  1.9042  1.2794
10222TIP3   OH252080   3.545   2.291  12.706 -0.8530 -0.5202 -0.1558
10222TIP3    H152081   3.463   2.324  12.669 -0.1763 -0.1705 -1.3833
10222TIP3    H252082   3.584   2.368  12.749 -0.3783 -0.2723 -1.0187
10223TIP3   OH252083   5.899   2.407   5.720  0.2288  0.2229 -0.0336
10223TIP3    H152084   5.813   2.425   5.682  1.0016 -0.4837 -2.2903
10223TIP3    H252085   5.946   2.490   5.714  0.9863 -0.3254 -2.5513
10224TIP3   OH252086   1.363   6.058   0.155 -0.4694  0.0363  0.3712
10224TIP3    H152087   1.458   6.051   0.164 -0.2831  2.2820  0.6106
10224TIP3    H252088   1.339   5.988   0.094  1.3771 -0.2684 -0.0462
10225TIP3   OH252089   5.107   4.876   0.411  0.3931  0.0269  0.3978
10225TIP3    H152090   5.179   4.830   0.368  1.7519 -0.2785  2.7892
10225TIP3    H252091   5.142   4.964   0.426 -0.8346  0.7725 -0.8925
10226TIP3   OH252092   3.026   6.367   2.265  0.0940  0.0437  0.0179
10226TIP3    H152093   3.032   6.429   2.192  1.8907 -1.0461 -0.8475
10226TIP3    H252094   3.117   6.351   2.290 -0.3168 -2.0452  0.3616
10227TIP3   OH252095   6.184   6.271   4.241  0.6029 -0.5713  0.3532
10227TIP3    H152096   6.246   6.323   4.291 -1.8137  1.4122  1.5354
10227TIP3    H252097   6.170   6.192   4.293 -0.7726  0.8039  2.2257
10228TIP3   OH252098   6.369   2.389  11.390  0.3590 -0.0801 -0.3201
10228TIP3    H152099   6.315   2.466  11.404  0.6112  0.1508 -0.5973
10228TIP3    H252100   6.308   2.320  11.365  0.0552 -0.1522  0.6140
10229TIP3   OH252101   2.798   4.656  16.592  0.4935  0.5477 -0.3293
10229TIP3    H152102   2.753   4.574  16.576  2.0218 -0.3671 -0.1389
10229TIP3    H252103   2.734   4.710  16.638  0.2879 -1.5343  2.0352
10230TIP3   OH252104   4.912   4.956  14.127  0.2564  0.2940  0.4512
10230TIP3    H152105   4.874   4.932  14.042 -1.0023  1.0414  0.7712
10230TIP3    H252106   4.837   4.955  14.187  0.8352  1.3656  1.2166
10231TIP3   OH252107   4.501   0.315  14.214  0.2548  0.2928  0.0345
10231TIP3    H152108   4.530   0.271  14.134 -0.2626 -0.9029  0.4813
10231TIP3    H252109   4.582   0.327  14.265  0.3976 -0.1875 -0.0755
10232TIP3   OH252110   0.141   6.404  13.892  0.0989 -0.3508 -0.4710
10232TIP3    H152111   0.201   6.330  13.883 -0.3501 -1.0738  1.8798
10232TIP3    H252112   0.104   6.394  13.979 -1.2595  1.7255 -0.7539
10233TIP3   OH252113   0.525   0.342  16.204 -0.1947 -0.1121  0.0550
10233TIP3    H152114   0.521   0.247  16.197  0.0636 -0.1508  0.3726
10233TIP3    H252115   0.466   0.364  16.277 -0.8917  0.0486 -0.5449
10234TIP3   OH252116   3.994   0.051   0.230 -0.2317  0.2142  0.4027
10234TIP3    H152117   3.918   0.038   0.286 -0.7655 -1.8912 -0.6815
10234TIP3    H252118   3.963   0.029   0.142  1.2242  0.9109 -0.3279
10235TIP3   OH252119   2.052   5.405  14.094  0.6898  0.4395 -0.0230
10235TIP3    H152120   2.098   5.349  14.156  4.2042  0.6751 -2.1704
10235TIP3    H252121   2.104   5.401  14.014 -0.2000  4.7984 -1.0997
10236TIP3   OH252122   5.228   1.302   0.618 -0.0633 -0.7380  0.0559
10236TIP3    H152123   5.211   1.365   0.688 -0.9085  1.1982 -1.8036
10236TIP3    H252124   5.300   1.248   0.653  3.4178  3.5421  0.4565
10237TIP3   OH252125   0.553   2.353  13.854 -0.3040  0.3700 -0.4217
10237TIP3    H152126   0.520   2.442  13.867  0.1645  0.5628 -0.5676
10237TIP3    H252127   0.637   2.351  13.900 -0.2850  0.0182 -0.4657
10238TIP3   OH252128   1.755   1.147   1.067  0.1224  0.6619 -0.7651
10238TIP3    H152129   1.822   1.103   1.016  0.5834  1.0379 -0.4972
10238TIP3    H252130   1.772   1.241   1.053  1.2271  0.8184  1.2549
10239TIP3   OH252131   4.435   5.259   0.377 -0.2187 -0.3817  0.0812
10239TIP3    H152132   4.339   5.258   0.375 -0.2084 -2.3193 -1.5161
10239TIP3    H252133   4.457   5.350   0.398 -2.3846 -0.4056  2.9614
10240TIP3   OH252134   3.698   5.477  16.662  0.0733 -0.1993 -0.3237
10240TIP3    H152135   3.606   5.502  16.653  0.0110  0.0417  0.8043
10240TIP3    H252136   3.741   5.512  16.584 -0.7383 -0.0709 -0.7198
10241TIP3   OH252137   4.489   1.616  11.873 -0.0626 -0.2493 -0.2030
10241TIP3    H152138   4.525   1.543  11.822  1.2274 -0.5225  1.0403
10241TIP3    H252139   4.461   1.577  11.955 -1.9243  0.2250 -0.5612
10242TIP3   OH252140   5.527   2.185  15.430  0.2073 -0.0144 -0.8472
10242TIP3    H152141   5.605   2.133  15.447 -0.0635 -1.3725 -3.3294
10242TIP3    H252142   5.554   2.249  15.364 -0.1073  1.4405  0.3634
10243TIP3   OH252143   0.701   6.699  13.340 -0.4864  0.0805 -0.3419
10243TIP3    H152144   0.698   6.634  13.410  1.3043 -0.9819 -1.1826
10243TIP3    H252145   0.612   6.701  13.305 -0.2373 -3.3271 -1.4846
10244TIP3   OH252146   6.244   5.402  14.710 -0.0301  0.5975 -0.1554
10244TIP3    H152147   6.331   5.365  14.697  0.4057  0.9544  1.5934
10244TIP3    H252148   6.234   5.409  14.804 -1.8195  0.9169 -0.3330
10245TIP3   OH252149   6.506   4.834   3.520  0.4545  0.4882 -0.0978
10245TIP3    H152150   6.499   4.925   3.491  1.3867  0.8527  0.7742
10245TIP3    H252151   6.593   4.806   3.490  0.5046  0.1451  0.3638
10246TIP3   OH252152   2.097   1.932   6.021 -0.2982  0.3223 -0.0362
10246TIP3    H152153   2.046   1.929   6.102 -1.5278  0.0878 -0.8052
10246TIP3    H252154   2.169   1.870   6.037  0.6642  1.7659  1.6175
10247TIP3   OH252155   2.672   0.441  15.663  0.4395  0.0489  0.2509
10247TIP3    H152156   2.659   0.369  15.600  0.8448  0.0532  0.1539
10247TIP3    H252157   2.610   0.423  15.734  1.4525 -1.1527  0.8737
10248TIP3   OH252158   1.570   2.892   0.107 -0.5039  0.4314  0.0770
10248TIP3    H152159   1.559   2.976   0.063 -3.1011  0.2148  0.2028
10248TIP3    H252160   1.567   2.827   0.036  0.9496  0.3570  0.0414
10249TIP3   OH252161   1.123   1.363   6.379  0.0644  0.0435  0.2513
10249TIP3    H152162   1.043   1.316   6.358 -0.5102  1.4898 -0.9776
10249TIP3    H252163   1.170   1.369   6.296  1.3189 -0.5031  0.8926
10250TIP3   OH252164   5.555   2.560   6.969 -0.0816 -0.2974  0.2152
10250TIP3    H152165   5.464   2.532   6.980 -0.3168  0.6793  0.8989
10250TIP3    H252166   5.548   2.653   6.948  0.7747 -0.1936  0.3899
10251TIP3   OH252167   6.268   5.381  11.567 -0.0300 -0.2065 -0.1793
10251TIP3    H152168   6.218   5.309  11.605  0.6517 -0.7779 -0.3633
10251TIP3    H252169   6.347   5.387  11.619 -1.0718  1.9222  1.3075
10252TIP3   OH252170   1.319   1.089   6.122  0.2556 -0.0100 -0.2527
10252TIP3    H152171   1.378   1.114   6.051  1.5840 -1.0603  0.4344
10252TIP3    H252172   1.304   1.169   6.171 -0.3678  0.6452 -1.4679
10253TIP3   OH252173   2.592   4.052  15.930 -0.3160  0.4307  0.1173
10253TIP3    H152174   2.630   4.138  15.912  2.8193 -0.5713  1.3042
10253TIP3    H252175   2.514   4.071  15.982 -0.6746  2.5842 -1.0850
10254TIP3   OH252176   0.737   0.748   1.871 -0.0778  0.0569 -0.1468
10254TIP3    H152177   0.748   0.721   1.962 -0.4285 -0.5945 -0.2915
10254TIP3    H252178   0.718   0.842   1.876 -0.5128 -0.0585  0.4794
10255TIP3   OH252179   1.636   2.407   3.646  0.6511  0.3436  0.1407
10255TIP3    H152180   1.558   2.444   3.605 -0.4627 -1.2689  0.7059
10255TIP3    H252181   1.700   2.401   3.575 -0.9991 -1.7217 -1.2775
10256TIP3   OH252182   6.520   5.002  15.290 -0.2380  0.3248 -0.2179
10256TIP3    H152183   6.443   4.988  15.345  0.5584 -0.9540  0.6252
10256TIP3    H252184   6.515   5.094  15.265 -2.2190  0.1802 -0.4821
10257TIP3   OH252185   3.326   5.379  17.072  0.1410  0.5040 -0.3853
10257TIP3    H152186   3.345   5.291  17.103  0.1363  0.3261 -0.8789
10257TIP3    H252187   3.251   5.407  17.124 -0.0227  0.1139 -0.4096
10258TIP3   OH252188   2.473   6.459   4.403  0.0545  0.2120  0.1051
10258TIP3    H152189   2.487   6.554   4.411 -2.7590  0.9031 -1.7596
10258TIP3    H252190   2.393   6.442   4.453 -1.2151 -0.5302 -2.0175
10259TIP3   OH252191   5.966   2.282  15.675 -0.2332  0.5638 -0.0157
10259TIP3    H152192   5.983   2.300  15.768 -2.2849 -0.6741  0.6645
10259TIP3    H252193   5.901   2.348  15.650 -0.9908 -0.1862 -0.0580
10260TIP3   OH252194   4.288   5.174   4.425 -0.3443 -0.1595  0.1582
10260TIP3    H152195   4.215   5.191   4.365 -1.4933  0.4292  1.6777
10260TIP3    H252196   4.346   5.116   4.375 -1.3392  0.1634 -1.4526
10261TIP3   OH252197   6.233   4.706  15.220  0.1143  0.2724 -0.2063
10261TIP3    H152198   6.204   4.682  15.132 -0.1272  1.3273 -0.4209
10261TIP3    H252199   6.292   4.634  15.245  0.8345  0.3527 -1.5523
10262TIP3   OH252200   6.336   0.887  11.338 -0.4645 -0.1388 -0.3605
10262TIP3    H152201   6.396   0.823  11.377 -1.5268 -1.0731 -0.2322
10262TIP3    H252202   6.270   0.902  11.405 -0.2683  1.0670 -0.4109
10263TIP3   OH252203   5.079   2.830   0.768  0.1697 -0.0816  0.0601
10263TIP3    H152204   5.003   2.860   0.819 -0.2410 -1.5481  0.3607
10263TIP3    H252205   5.061   2.859   0.679  0.1712  1.2062  0.4519
10264TIP3   OH252206   6.062   3.841   0.546  0.0048  0.6670 -0.3607
10264TIP3    H152207   6.032   3.834   0.637  0.2421  0.4385 -0.2979
10264TIP3    H252208   6.101   3.928   0.540 -0.1202  0.7296 -0.2778
10265TIP3   OH252209   0.602   2.115   1.685  0.1365  0.1083  0.0683
10265TIP3    H152210   0.593   2.039   1.742 -0.2938  0.3314  0.2979
10265TIP3    H252211   0.644   2.181   1.740  1.9903 -0.4512 -0.5751
10266TIP3   OH252212   3.298   3.962   4.180  0.0062  0.4052  0.2424
10266TIP3    H152213   3.386   3.990   4.155 -0.3244  2.7926  1.4576
10266TIP3    H252214   3.299   3.961   4.276 -0.8403 -1.2172  0.2762
10267TIP3   OH252215   6.121   6.045  14.209  0.0498  0.2620 -0.0268
10267TIP3    H152216   6.138   5.953  14.230  1.7189  0.9862  2.1058
10267TIP3    H252217   6.030   6.045  14.177 -0.0772 -2.0711  0.1362
10268TIP3   OH252218   1.661   5.188  14.561  0.1164 -0.4263 -0.1346
10268TIP3    H152219   1.669   5.227  14.648  0.0488 -0.1444 -0.2547
10268TIP3    H252220   1.571   5.205  14.535  0.4549  0.4972 -0.7321
10269TIP3   OH252221   1.218   4.370   1.754  0.1698 -0.9282 -0.3851
10269TIP3    H152222   1.262   4.431   1.695  0.6007 -2.4107 -1.6796
10269TIP3    H252223   1.138   4.415   1.780 -0.0277 -0.1953 -2.0953
10270TIP3   OH252224   4.494   4.548   4.427 -0.0528 -0.0478  0.0775
10270TIP3    H152225   4.490   4.566   4.333  2.0659  0.7143  0.0881
10270TIP3    H252226   4.502   4.635   4.468 -0.3804 -0.4074  0.9353
10271TIP3   OH252227   1.193   5.824  13.521  0.0638  0.1173 -0.4465
10271TIP3    H152228   1.164   5.752  13.578 -0.0498  0.7621  0.3299
10271TIP3    H252229   1.262   5.785  13.467 -0.8091 -0.8967 -0.8861
10272TIP3   OH252230   1.069   0.416   3.192  0.2793  0.2239  0.4497
10272TIP3    H152231   1.079   0.451   3.104  1.0485  1.2676  0.9244
10272TIP3    H252232   1.099   0.326   3.186  0.6117  0.3784 -0.2970
10273TIP3   OH252233   1.436   6.608   5.690  0.6942 -0.6880 -0.0811
10273TIP3    H152234   1.481   6.639   5.769 -0.4814  0.4399  0.1619
10273TIP3    H252235   1.496   6.629   5.619 -0.2435  2.7148  0.0036
10274TIP3   OH252236   2.301   0.282  12.279 -0.1926 -0.0985 -0.0127
10274TIP3    H152237   2.275   0.214  12.216  0.6877 -0.5258  0.0751
10274TIP3    H252238   2.221   0.301  12.328 -0.7576 -0.1492 -0.8944
10275TIP3   OH252239   1.697   5.622   5.267 -0.2375 -0.1403 -0.2292
10275TIP3    H152240   1.769   5.562   5.247 -0.5735 -0.1080 -1.6206
10275TIP3    H252241   1.712   5.697   5.209  0.0688  1.0797  1.3437
10276TIP3   OH252242   0.878   5.006   6.957  0.1888 -0.1095  0.3313
10276TIP3    H152243   0.892   4.975   6.867 -1.6339  1.3631 -0.5426
10276TIP3    H252244   0.805   4.954   6.989 -0.8616  1.0797 -0.0310
10277TIP3   OH252245   2.399   2.773   0.475  0.1177  0.3840  0.1622
10277TIP3    H152246   2.467   2.839   0.482  0.0389  0.4317  0.4549
10277TIP3    H252247   2.342   2.788   0.550  0.0778  0.0104  0.2074
10278TIP3   OH252248   3.852   3.247   3.043  0.8030 -0.6550  0.1140
10278TIP3    H152249   3.933   3.242   2.992  1.3602  1.6878  0.6714
10278TIP3    H252250   3.881   3.240   3.134  0.1054 -1.9237  0.2689
10279TIP3   OH252251   2.103   1.946   1.901  0.0252 -0.6836  0.1744
10279TIP3    H152252   2.123   1.911   1.814  1.9215 -0.3170  0.4405
10279TIP3    H252253   2.119   2.040   1.894  1.2798 -0.8056  1.2038
10280TIP3   OH252254   0.666   3.951   3.981 -0.5851  0.3148 -0.0579
10280TIP3    H152255   0.710   3.963   4.065 -1.7759 -1.5893  0.9136
10280TIP3    H252256   0.647   4.039   3.950  2.8830  1.1843 -0.0294
10281TIP3   OH252257   1.135   2.499  13.543  0.8453 -0.1320 -0.7115
10281TIP3    H152258   1.224   2.496  13.579  1.6310  1.8268 -2.2985
10281TIP3    H252259   1.147   2.486  13.449 -0.3644  1.4986 -1.1323
10282TIP3   OH252260   5.953   0.563  16.882 -0.1497  0.2815 -0.4131
10282TIP3    H152261   5.901   0.536  16.807  2.6652 -1.2896 -1.9532
10282TIP3    H252262   5.930   0.501  16.951 -1.7708  0.9275 -0.3125
10283TIP3   OH252263   1.654   6.293   5.109  0.1851 -0.3143 -0.1859
10283TIP3    H152264   1.620   6.218   5.158 -2.2598  0.5023 -0.4877
10283TIP3    H252265   1.590   6.307   5.039  2.3750 -0.0135 -2.2360
10284TIP3   OH252266   1.363   6.642  16.165 -0.3072  0.1418  0.1110
10284TIP3    H152267   1.370   6.680  16.253  0.4412  2.1087 -0.7205
10284TIP3    H252268   1.443   6.590  16.155  0.4454  1.2593  0.0420
10285TIP3   OH252269   2.117   0.709  17.286 -0.6447 -0.3289 -0.3364
10285TIP3    H152270   2.097   0.640  17.349 -2.0024 -0.1215 -0.5106
10285TIP3    H252271   2.038   0.763  17.283  0.4131  1.2969 -0.1610
10286TIP3   OH252272   3.759   5.287   4.281  0.1121 -0.5473 -0.1415
10286TIP3    H152273   3.673   5.259   4.313  0.3067 -4.5022 -2.4748
10286TIP3    H252274   3.743   5.371   4.239 -2.6339 -1.1391 -0.4615
10287TIP3   OH252275   3.066   3.478  15.858 -0.2515  0.1858 -0.0651
10287TIP3    H152276   3.074   3.559  15.908 -1.1644  0.9029 -1.0289
10287TIP3    H252277   3.156   3.449  15.845  0.2011  1.8238 -0.9035
10288TIP3   OH252278   4.338   0.016   0.515 -0.5958 -0.7679 -0.3934
10288TIP3    H152279   4.394   0.093   0.509 -0.2330 -0.8940  0.9320
10288TIP3    H252280   4.249   0.052   0.521 -0.4195 -0.4332  0.3517
10289TIP3   OH252281   5.229   2.516  16.866 -0.6516 -0.2089  0.0273
10289TIP3    H152282   5.223   2.611  16.871  0.3141 -0.1724  0.8107
10289TIP3    H252283   5.155   2.490  16.811 -1.4580  0.9152  0.5416
10290TIP3   OH252284   5.507   1.859   2.807 -0.1406 -0.3138  0.5264
10290TIP3    H152285   5.428   1.902   2.777  0.3301  0.5062  0.4194
10290TIP3    H252286   5.485   1.827   2.895 -0.0404  1.5400  1.2703
10291TIP3   OH252287   6.612   2.229   3.448 -0.5798 -0.2704 -0.2447
10291TIP3    H152288   6.523   2.261   3.430  0.3613  1.7914 -1.6509
10291TIP3    H252289   6.611   2.139   3.417 -2.1434 -0.2485 -0.3688
10292TIP3   OH252290   3.140   0.328   3.414 -0.1486  0.2655  0.3551
10292TIP3    H152291   3.171   0.410   3.375 -0.1992 -0.9945 -2.5697
10292TIP3    H252292   3.050   0.319   3.383 -1.0845  0.3266  2.8278
10293TIP3   OH252293   0.361   5.841  13.724 -0.5660 -0.2975 -0.5061
10293TIP3    H152294   0.349   5.900  13.798  1.0971 -0.7924  0.1930
10293TIP3    H252295   0.411   5.892  13.660  0.6043 -0.8085 -0.0283
10294TIP3   OH252296   2.435   3.512  10.706  0.3955  0.0005 -0.1572
10294TIP3    H152297   2.410   3.598  10.740  0.5317  1.2091 -2.8863
10294TIP3    H252298   2.476   3.530  10.622  0.1761 -2.7761 -0.9671
10295TIP3   OH252299   0.829   1.474   3.827  0.0912 -0.4142 -0.8906
10295TIP3    H152300   0.780   1.392   3.824 -0.8602  0.0736  0.2833
10295TIP3    H252301   0.857   1.482   3.918 -1.3527  1.3784 -0.5454
10296TIP3   OH252302   4.033   6.075  11.256 -0.0798 -0.0005 -0.2257
10296TIP3    H152303   4.123   6.068  11.288 -0.6524 -2.2880  1.1092
10296TIP3    H252304   4.041   6.069  11.161  1.1334 -1.3532 -0.0756
10297TIP3   OH252305   5.587   6.451   0.146  0.2428  0.1914 -0.2468
10297TIP3    H152306   5.539   6.485   0.222 -1.0104  2.2275 -1.8392
10297TIP3    H252307   5.600   6.358   0.165 -0.1969  0.5824  2.3339
10298TIP3   OH252308   4.215   5.823  16.005 -0.0317 -0.1828  0.0798
10298TIP3    H152309   4.137   5.845  16.055 -0.5354 -1.5146 -0.0566
10298TIP3    H252310   4.181   5.782  15.925  0.7894  0.2002 -0.4844
10299TIP3   OH252311   5.029   5.803  12.584  0.3252  0.0421  0.3232
10299TIP3    H152312   5.088   5.732  12.559 -0.0720 -0.0996 -0.2187
10299TIP3    H252313   5.039   5.810  12.679 -0.2662 -1.3040  0.4993
10300TIP3   OH252314   0.140   5.446   2.348  0.1695  0.7399 -0.6434
10300TIP3    H152315   0.145   5.445   2.253  1.9778  4.4909 -0.7548
10300TIP3    H252316   0.051   5.477   2.367 -0.9084 -1.9045 -0.9068
10301TIP3   OH252317   3.356   3.851  10.810  0.6053 -0.3541 -0.4453
10301TIP3    H152318   3.296   3.779  10.827  0.3401 -0.0436 -0.0327
10301TIP3    H252319   3.347   3.908  10.887  2.5294 -1.0556  0.3719
10302TIP3   OH252320   2.658   2.142   3.365  0.0501  0.0933 -0.1055
10302TIP3    H152321   2.741   2.176   3.396 -0.4987  0.6407  0.7875
10302TIP3    H252322   2.630   2.080   3.433 -0.6563  0.5120 -0.0069
10303TIP3   OH252323   2.348   2.844   2.826  0.3394 -0.0558 -0.1950
10303TIP3    H152324   2.353   2.916   2.889 -1.5354  2.1613 -2.3722
10303TIP3    H252325   2.304   2.774   2.874 -0.5200  1.3387  1.1605
10304TIP3   OH252326   2.562   5.428   4.657 -0.9801 -0.2195 -0.6506
10304TIP3    H152327   2.600   5.414   4.744  0.7333  1.6376 -1.0380
10304TIP3    H252328   2.622   5.488   4.614 -2.9027  0.5728 -2.3764
10305TIP3   OH252329   4.705   1.445   2.747 -0.9655 -0.3234  0.5486
10305TIP3    H152330   4.785   1.445   2.694 -1.2305  1.9413  0.0273
10305TIP3    H252331   4.729   1.496   2.824 -1.2690 -1.6215  1.5285
10306TIP3   OH252332   5.287   3.285   5.779  0.0642  0.0498 -0.2873
10306TIP3    H152333   5.348   3.244   5.717  0.5833 -0.0630  0.2936
10306TIP3    H252334   5.222   3.217   5.796  0.7481 -0.4445  0.4282
10307TIP3   OH252335   4.664   5.212  12.486  0.8711  0.1818 -0.3229
10307TIP3    H152336   4.626   5.156  12.554  2.4033 -0.1317  0.3037
10307TIP3    H252337   4.662   5.157  12.407  1.7995 -0.5714  0.1523
10308TIP3   OH252338   2.192   4.073   4.241 -0.1176 -0.5439 -0.4439
10308TIP3    H152339   2.241   4.116   4.311 -0.9952 -0.0008 -0.1456
10308TIP3    H252340   2.205   4.129   4.164 -1.1843  0.2424 -0.0788
10309TIP3   OH252341   1.310   3.994   2.333 -0.7931  0.1016  0.4934
10309TIP3    H152342   1.347   4.022   2.249  0.1688 -1.0714  0.4996
10309TIP3    H252343   1.295   4.076   2.381 -0.5786  0.7398 -0.4930
10310TIP3   OH252344   1.415   4.302  14.080  0.4524 -0.4150  0.6264
10310TIP3    H152345   1.478   4.244  14.122 -1.1922 -0.9776  2.4973
10310TIP3    H252346   1.371   4.247  14.016  0.3230 -0.6594  0.9224
10311TIP3   OH252347   2.332   5.025  13.268 -0.1976  0.0574 -0.5698
10311TIP3    H152348   2.379   4.958  13.317  0.1767  0.5173 -0.2918
10311TIP3    H252349   2.328   4.991  13.179  2.9080  1.0800 -1.2403
10312TIP3   OH252350   3.104   6.213   4.713  0.2604 -0.6125  0.3032
10312TIP3    H152351   3.170   6.204   4.782 -0.0294  1.0084  0.8525
10312TIP3    H252352   3.066   6.300   4.728 -2.3377 -1.6585  0.3106
10313TIP3   OH252353   3.518   5.300   0.351  0.0261  0.1063 -0.2031
10313TIP3    H152354   3.566   5.329   0.428 -0.6555  2.2067 -0.5068
10313TIP3    H252355   3.502   5.380   0.301 -1.7244 -0.8509 -1.2751
10314TIP3   OH252356   0.336   2.763   5.039  0.5543  0.1241 -0.1846
10314TIP3    H152357   0.396   2.803   5.102 -0.0821  2.0222 -0.7391
10314TIP3    H252358   0.249   2.793   5.067  0.3432  1.9916 -2.6096
10315TIP3   OH252359   6.415   4.899   3.194 -0.3750  0.3812 -0.2156
10315TIP3    H152360   6.433   4.951   3.273 -0.2846 -0.8557  0.6106
10315TIP3    H252361   6.448   4.952   3.122 -0.8686  1.7545  0.5239
10316TIP3   OH252362   1.289   1.331   0.362 -0.3743 -0.1184 -0.1312
10316TIP3    H152363   1.298   1.384   0.283 -1.7418 -0.6572 -0.6850
10316TIP3    H252364   1.195   1.332   0.380 -0.0308  0.4309  1.8121
10317TIP3   OH252365   0.792   2.656   4.664 -0.6200  0.2979  0.2055
10317TIP3    H152366   0.857   2.636   4.597 -3.2819 -1.4048 -2.0786
10317TIP3    H252367   0.754   2.740   4.638 -0.4606  0.5108  0.6360
10318TIP3   OH252368   4.121   0.246   3.973 -0.1605  0.0009  0.1058
10318TIP3    H152369   4.099   0.337   3.992  0.2663  0.7743 -2.6765
10318TIP3    H252370   4.041   0.208   3.937  0.1533 -0.2049 -0.3848
10319TIP3   OH252371   0.110   0.586   2.515  0.2449 -0.3937 -0.1343
10319TIP3    H152372   0.166   0.545   2.580  0.2285 -0.9935 -0.4907
10319TIP3    H252373   0.149   0.672   2.500  0.3716 -0.3373  0.5000
10320TIP3   OH252374   3.404   4.871   5.113 -0.1263  0.3620 -0.1780
10320TIP3    H152375   3.450   4.797   5.074  2.1161  0.9856  1.1006
10320TIP3    H252376   3.349   4.832   5.181 -1.6745 -0.3940 -1.7531
10321TIP3   OH252377   3.198   1.594  12.508  0.1590  0.2475  0.0017
10321TIP3    H152378   3.238   1.656  12.446  0.0864 -0.4168 -0.7236
10321TIP3    H252379   3.162   1.525  12.453 -3.1392  1.3896  0.4822
10322TIP3   OH252380   0.031   4.920  10.610  0.0857 -0.3263  0.0005
10322TIP3    H152381   0.023   4.970  10.692  0.4015 -0.7713  0.3060
10322TIP3    H252382  -0.003   4.833  10.631 -1.9651  0.1811 -0.9623
10323TIP3   OH252383   6.035   1.911   3.996  0.1115 -0.0500  0.1299
10323TIP3    H152384   6.128   1.892   4.000  0.2904 -0.2596 -2.6664
10323TIP3    H252385   6.027   2.000   4.030  1.7006  0.7824 -1.4954
10324TIP3   OH252386   4.614   6.442  12.556  0.2054 -0.3736  0.4159
10324TIP3    H152387   4.630   6.350  12.538 -0.8311 -0.3937 -0.5401
10324TIP3    H252388   4.600   6.481  12.470  0.2516  0.6015  0.8377
10325TIP3   OH252389   3.466   2.983  15.481 -0.2744  0.1030  0.2160
10325TIP3    H152390   3.465   3.078  15.482 -1.2601  0.1327 -1.1754
10325TIP3    H252391   3.558   2.960  15.469 -0.0880  0.8818  0.1230
10326TIP3   OH252392   0.711   4.495  17.057  0.2357 -0.9191  0.1985
10326TIP3    H152393   0.650   4.549  17.006  0.0993  0.8545  2.0828
10326TIP3    H252394   0.792   4.545  17.056 -0.2789  0.1970  3.1531
10327TIP3   OH252395   6.186   1.836   5.007 -0.1577  0.2154  0.2782
10327TIP3    H152396   6.155   1.796   5.088  1.2559  1.5848  1.5543
10327TIP3    H252397   6.209   1.761   4.951  0.0950 -0.7713  1.6507
10328TIP3   OH252398   2.585   4.319   2.258  0.5780  0.1339 -0.2885
10328TIP3    H152399   2.680   4.316   2.266  0.7528 -0.3257 -2.0639
10328TIP3    H252400   2.552   4.278   2.338  1.8215  1.3081  0.8746
10329TIP3   OH252401   0.769   3.905   6.398  0.0069 -0.8821 -0.5488
10329TIP3    H152402   0.843   3.851   6.424  0.5520  0.6959  1.3934
10329TIP3    H252403   0.692   3.851   6.418  0.5719 -1.8028 -0.8029
10330TIP3   OH252404   0.401   5.705   3.557  0.0657 -0.0063  0.0279
10330TIP3    H152405   0.404   5.783   3.612  1.4440  0.7023 -0.9800
10330TIP3    H252406   0.466   5.645   3.595  2.8789  1.4495 -2.0568
10331TIP3   OH252407   3.819   3.620  14.861  0.3140 -0.2328 -0.1933
10331TIP3    H152408   3.766   3.632  14.782 -0.1145  1.5124  0.3193
10331TIP3    H252409   3.896   3.572  14.830  0.3485  0.7507 -1.7834
10332TIP3   OH252410   2.343   3.321   4.275  0.2727  0.1023 -0.4159
10332TIP3    H152411   2.258   3.364   4.261  0.4524  0.0920 -1.6046
10332TIP3    H252412   2.361   3.276   4.193  0.8687 -0.9056  0.2475
10333TIP3   OH252413   6.563   5.698  11.290  0.2854 -0.1686 -0.4900
10333TIP3    H152414   6.651   5.727  11.265  0.2075 -0.6849 -1.4276
10333TIP3    H252415   6.571   5.603  11.299 -0.2624 -0.2646 -0.9707
10334TIP3   OH252416   6.040   0.808   1.345 -0.1302 -0.3913 -0.0680
10334TIP3    H152417   6.102   0.749   1.302  1.4736  0.2514  1.2725
10334TIP3    H252418   6.025   0.877   1.282 -0.5559 -1.2394 -0.9238
10335TIP3   OH252419   0.444   3.968   0.864 -0.0362  0.0464 -0.3336
10335TIP3    H152420   0.417   3.928   0.947  0.4388  0.0539 -0.1711
10335TIP3    H252421   0.372   3.950   0.804  0.1842 -1.0844 -0.2755
10336TIP3   OH252422   5.801   1.606  16.859  0.4107 -0.1729  0.3766
10336TIP3    H152423   5.796   1.536  16.924 -0.2661 -0.1769  0.3272
10336TIP3    H252424   5.722   1.595  16.806  0.8594 -0.0610 -0.3389
10337TIP3   OH252425   5.826   4.846   0.780  0.8590 -0.1481  0.4628
10337TIP3    H152426   5.889   4.905   0.823  0.6600 -0.1405  0.7438
10337TIP3    H252427   5.741   4.877   0.809  0.5855  1.2471 -1.6658
10338TIP3   OH252428   2.656   0.913  14.165 -0.0374 -1.0536 -0.5252
10338TIP3    H152429   2.735   0.963  14.145 -0.4083 -0.3608 -0.2984
10338TIP3    H252430   2.600   0.975  14.211 -0.2655 -1.8486  0.3104
10339TIP3   OH252431   0.580   3.874  12.647 -0.4726  0.2856 -0.1787
10339TIP3    H152432   0.546   3.880  12.736  0.2200 -1.5982  0.2516
10339TIP3    H252433   0.626   3.790  12.644 -1.0315 -0.0103 -2.5014
10340TIP3   OH252434   4.715   2.356  17.161 -0.3468  0.2653 -0.1235
10340TIP3    H152435   4.730   2.344  17.067 -0.4861  0.9769 -0.2363
10340TIP3    H252436   4.752   2.442  17.181 -0.6947  0.2994  0.3887
10341TIP3   OH252437   6.328   1.011  12.872  0.5368 -0.4349 -0.0013
10341TIP3    H152438   6.403   0.972  12.829  1.0478 -0.7560  1.1270
10341TIP3    H252439   6.264   1.025  12.803  1.3834 -0.7731 -0.8643
10342TIP3   OH252440   5.241   1.950   2.408  0.0436  0.1642  0.0958
10342TIP3    H152441   5.217   2.027   2.460 -0.1152 -0.3040  0.7257
10342TIP3    H252442   5.274   1.987   2.326 -0.9540  0.8702 -0.0082
10343TIP3   OH252443   2.496   5.632  17.028  0.3787  0.0222  0.9649
10343TIP3    H152444   2.504   5.572  16.955  2.0071  1.0543  0.2488
10343TIP3    H252445   2.542   5.588  17.100  0.2214 -0.2618  0.8944
10344TIP3   OH252446   5.616   3.036   2.217  0.0481  0.3672 -0.2306
10344TIP3    H152447   5.639   3.047   2.309  0.9075 -0.5465 -0.3184
10344TIP3    H252448   5.685   2.981   2.181 -1.3318 -1.0098 -0.9292
10345TIP3   OH252449   5.439   3.894  11.540  0.0171 -0.3341  0.0515
10345TIP3    H152450   5.373   3.936  11.484 -1.9720 -1.2160  1.5734
10345TIP3    H252451   5.488   3.836  11.482  0.8118  1.7728 -1.5065
10346TIP3   OH252452   4.354   4.760  15.820  0.0737 -0.0947 -0.7284
10346TIP3    H152453   4.408   4.690  15.859 -0.8897 -0.6860 -0.4386
10346TIP3    H252454   4.325   4.812  15.895 -0.7741 -0.5115 -0.7600
10347TIP3   OH252455   2.114   4.318   4.155  0.3060 -0.5868 -0.1628
10347TIP3    H152456   2.138   4.406   4.129 -2.1127 -0.2017 -1.3837
10347TIP3    H252457   2.160   4.303   4.238 -0.5866  2.4987  1.0125
10348TIP3   OH252458   2.720   6.571   1.995 -0.2759  0.3454  0.2523
10348TIP3    H152459   2.795   6.608   1.948 -0.3143 -0.3369 -0.3595
10348TIP3    H252460   2.704   6.633   2.066  2.1008 -0.4412  1.6085
10349TIP3   OH252461   1.793   3.340  17.025  0.2652  0.4339  0.3498
10349TIP3    H152462   1.854   3.406  17.056  1.0974 -1.0093  2.0145
10349TIP3    H252463   1.736   3.323  17.101 -1.0083  0.4358 -0.5791
10350TIP3   OH252464   2.887   1.938  12.743 -0.6453  0.6867 -0.2057
10350TIP3    H152465   2.904   1.930  12.837  2.0167 -3.2015 -0.7830
10350TIP3    H252466   2.845   1.855  12.720 -0.7833  1.3517 -2.5106
10351TIP3   OH252467   1.480   4.808  16.912 -0.1488  0.3057 -0.0812
10351TIP3    H152468   1.430   4.845  16.986 -0.4357 -0.9821  0.3945
10351TIP3    H252469   1.483   4.879  16.848 -0.0185  1.4222  1.0998
10352TIP3   OH252470   1.714   0.395  11.201 -0.2199  0.0801  0.1199
10352TIP3    H152471   1.665   0.313  11.201 -0.0413 -0.0254 -0.1727
10352TIP3    H252472   1.806   0.369  11.201 -0.1612  0.2771 -0.0929
10353TIP3   OH252473   6.494   5.681   1.437 -0.3204  0.1508 -0.5693
10353TIP3    H152474   6.464   5.766   1.405 -3.5670 -0.5436  0.3713
10353TIP3    H252475   6.558   5.702   1.505 -0.4091  1.7838 -0.9485
10354TIP3   OH252476   2.002   5.830   3.437  0.2287 -0.0418 -0.4763
10354TIP3    H152477   2.091   5.816   3.405  0.8234  0.2068  0.9589
10354TIP3    H252478   2.006   5.914   3.484 -1.4598  1.4198 -2.7233
10355TIP3   OH252479   6.339   6.018   3.676  0.1427 -0.0284 -0.2725
10355TIP3    H152480   6.286   6.096   3.660  0.7267  0.0229 -2.1360
10355TIP3    H252481   6.361   6.023   3.770 -1.6468  0.8634  0.1347
10356TIP3   OH252482   4.156   0.656  14.677 -0.2723 -0.1631 -0.4124
10356TIP3    H152483   4.107   0.584  14.635  0.4997 -1.4736  0.8382
10356TIP3    H252484   4.149   0.729  14.615 -1.4249 -1.1845 -1.5521
10357TIP3   OH252485   4.013   0.918  14.597  0.3094 -0.1721 -0.8186
10357TIP3    H152486   4.068   0.971  14.540  1.0179 -0.9136 -0.8399
10357TIP3    H252487   3.934   0.899  14.545  0.3035  0.3739 -1.0105
10358TIP3   OH252488   4.913   3.977  16.469  0.4904 -0.5211 -0.3544
10358TIP3    H152489   4.856   3.946  16.539  0.5692  0.8460  0.3419
10358TIP3    H252490   4.891   3.921  16.394  0.2592 -1.8724  0.6810
10359TIP3   OH252491   1.251   0.000   5.204  0.4631  0.0714 -0.0677
10359TIP3    H152492   1.311   0.065   5.167  1.9483 -1.0271  0.3337
10359TIP3    H252493   1.274  -0.081   5.159 -0.9329 -0.3171 -0.1022
10360TIP3   OH252494   0.050   6.433   1.204 -0.4323 -0.6947  0.4685
10360TIP3    H152495   0.033   6.519   1.167  0.5670 -0.9106 -0.5706
10360TIP3    H252496  -0.034   6.387   1.200 -1.2540  0.5624  2.0663
10361TIP3   OH252497   6.716   6.551  12.394  0.7855 -0.4393  0.2823
10361TIP3    H152498   6.667   6.512  12.466  1.5843 -2.6655 -0.3152
10361TIP3    H252499   6.655   6.614  12.356 -0.6593 -1.2420  1.1562
10362TIP3   OH252500   1.366   4.534  13.392 -0.1737  1.0854 -0.2764
10362TIP3    H152501   1.372   4.629  13.389  1.0846  1.0943  1.3559
10362TIP3    H252502   1.395   4.511  13.480 -0.4840 -0.8097 -0.6359
10363TIP3   OH252503   1.141   3.349  13.692 -0.2500  0.7425  0.4035
10363TIP3    H152504   1.233   3.366  13.673 -0.0942 -1.0483 -0.5775
10363TIP3    H252505   1.097   3.355  13.607 -0.5402 -1.3023  0.3641
10364TIP3   OH252506   0.446   1.927   6.172 -0.1751 -0.3516  0.3306
10364TIP3    H152507   0.440   2.023   6.172  0.2344 -0.2930 -1.6472
10364TIP3    H252508   0.482   1.906   6.259 -0.5047  1.2571  0.8921
10365TIP3   OH252509   3.943   0.182  13.945  0.3668 -0.3267  0.0622
10365TIP3    H152510   3.924   0.126  13.870  0.7192  0.0705 -0.3310
10365TIP3    H252511   3.879   0.253  13.939 -0.6022 -1.0887  1.0119
10366TIP3   OH252512   2.473   4.890   5.535  0.5451  0.0562 -0.1186
10366TIP3    H152513   2.505   4.977   5.559  1.9741 -0.6312  0.6390
10366TIP3    H252514   2.526   4.865   5.459 -1.2470  0.6152 -1.6407
10367TIP3   OH252515   5.900   6.138  14.710 -0.1736 -0.1731  0.5208
10367TIP3    H152516   5.914   6.070  14.644 -0.6479  0.4828 -0.2640
10367TIP3    H252517   5.980   6.137  14.762  0.0820 -0.9089  0.1354
10368TIP3   OH252518   0.049   1.519   2.840 -0.0961  0.0721  0.7383
10368TIP3    H152519   0.004   1.603   2.833 -1.0292 -0.3170  1.7989
10368TIP3    H252520  -0.001   1.470   2.905  1.6382 -0.5291  1.6858
10369TIP3   OH252521   1.670   1.654   1.086 -0.2655 -0.6455 -0.6391
10369TIP3    H152522   1.709   1.735   1.120 -0.5975 -0.2204 -1.2605
10369TIP3    H252523   1.605   1.629   1.152 -0.4613 -0.1730 -0.6483
10370TIP3   OH252524   3.626   1.541  12.471 -0.4536 -0.0400 -0.3894
10370TIP3    H152525   3.562   1.556  12.401 -0.6915 -1.7199 -0.5889
10370TIP3    H252526   3.576   1.502  12.542  0.1769 -0.4757 -0.1714
10371TIP3   OH252527   2.943   5.319   5.924 -0.0970  0.2720 -0.2636
10371TIP3    H152528   2.906   5.402   5.894 -1.9493 -0.9248 -1.4780
10371TIP3    H252529   2.868   5.268   5.954  1.0779 -0.7416  1.1571
10372TIP3   OH252530   5.191   2.586   0.904  0.3282 -0.0006  0.0854
10372TIP3    H152531   5.154   2.661   0.857  1.7708  1.8288  1.6618
10372TIP3    H252532   5.199   2.617   0.994  1.0832 -2.0522  0.7719
10373TIP3   OH252533   4.350   3.904   5.496 -0.0424  0.2084 -0.1029
10373TIP3    H152534   4.411   3.849   5.546  1.8654  1.4324 -0.9503
10373TIP3    H252535   4.302   3.843   5.441 -0.1137 -0.8621  1.0890
10374TIP3   OH252536   0.086   4.141   1.847  0.1707  0.4886 -0.4762
10374TIP3    H152537   0.088   4.095   1.763  0.7640 -2.3494  0.9775
10374TIP3    H252538   0.177   4.145   1.875 -0.0514  1.1314  0.2020
10375TIP3   OH252539   1.875   0.842  17.267 -0.3477 -0.2608  0.4412
10375TIP3    H152540   1.800   0.790  17.238 -0.5022 -1.0357  2.1348
10375TIP3    H252541   1.853   0.931  17.241 -0.9188 -0.7537 -0.8776
10376TIP3   OH252542   2.890   1.083  16.421  1.2319  0.0382 -0.2612
10376TIP3    H152543   2.846   0.999  16.415  0.6653  0.3936 -1.4650
10376TIP3    H252544   2.828   1.140  16.467  0.2712  0.5975 -2.1461
10377TIP3   OH252545   0.776   1.515   2.513  0.6994 -0.0682  0.4503
10377TIP3    H152546   0.795   1.576   2.585 -2.1067  2.2953 -0.5968
10377TIP3    H252547   0.708   1.457   2.548  1.8334 -1.2407  0.7606
10378TIP3   OH252548   0.528   2.858  13.345  0.2227 -0.1365 -0.4483
10378TIP3    H152549   0.539   2.768  13.315 -0.4848 -0.8059  1.2344
10378TIP3    H252550   0.500   2.851  13.436  0.3434  1.7948 -0.2111
10379TIP3   OH252551   0.110   0.344   1.777  0.4587  0.0951  0.1190
10379TIP3    H152552   0.188   0.288   1.773  0.4649  0.1000 -4.3785
10379TIP3    H252553   0.055   0.303   1.844  2.0266 -3.1861 -0.3903
10380TIP3   OH252554   5.410   3.820   0.328 -0.0325  0.5884 -0.4384
10380TIP3    H152555   5.319   3.792   0.321  0.2881 -0.6049 -0.0617
10380TIP3    H252556   5.422   3.836   0.422 -0.0694  1.5453 -0.5876
10381TIP3   OH252557   0.103   1.962  15.411 -0.1308 -0.3378  0.2990
10381TIP3    H152558   0.157   2.018  15.356  0.0162  0.4378  1.2071
10381TIP3    H252559   0.069   1.895  15.352 -1.3654  1.4445 -1.0806
10382TIP3   OH252560   0.400   5.001  12.309 -0.7747 -0.0608 -0.2482
10382TIP3    H152561   0.475   5.034  12.358 -0.6236  0.6921 -0.9647
10382TIP3    H252562   0.401   4.907  12.325 -0.5638  0.1314  0.9452
10383TIP3   OH252563   1.420   4.361  15.378 -0.1100 -0.0802 -0.5892
10383TIP3    H152564   1.414   4.447  15.337 -3.3044 -0.7326 -1.7893
10383TIP3    H252565   1.453   4.304  15.309  0.7937 -0.0662 -0.1794
10384TIP3   OH252566   5.918   4.570  13.801 -0.8405 -0.1228 -0.1377
10384TIP3    H152567   5.943   4.577  13.893 -0.9864 -0.9247 -0.0244
10384TIP3    H252568   5.962   4.491  13.771  0.8373  1.1872 -1.3142
10385TIP3   OH252569   4.312   1.520  14.656  0.0202  0.1145  0.3395
10385TIP3    H152570   4.238   1.541  14.600 -0.6551  0.1590  1.2243
10385TIP3    H252571   4.277   1.525  14.745  1.1213  0.2750  0.7795
10386TIP3   OH252572   2.556   0.796   5.345 -0.6404 -0.1022 -0.2454
10386TIP3    H152573   2.474   0.781   5.297 -1.2512  1.5202  0.2173
10386TIP3    H252574   2.613   0.840   5.282 -2.0049  3.5158  0.7999
10387TIP3   OH252575   5.885   2.941  13.004  0.2579  0.6733 -0.1019
10387TIP3    H152576   5.980   2.929  13.015  0.3832 -1.2864 -2.3460
10387TIP3    H252577   5.870   2.923  12.911 -2.5147 -0.6459  0.4954
10388TIP3   OH252578   4.294   4.588  12.649 -0.1270 -0.3830 -0.0099
10388TIP3    H152579   4.253   4.530  12.585  0.6849 -0.9231 -0.0454
10388TIP3    H252580   4.376   4.546  12.672 -0.1857  0.0269  1.0539
10389TIP3   OH252581   0.488   5.514  17.171 -0.2927 -0.0862 -0.1999
10389TIP3    H152582   0.558   5.469  17.125  0.0033 -1.0240  1.1068
10389TIP3    H252583   0.519   5.603  17.181 -0.8848  0.5047 -2.8329
10390TIP3   OH252584   0.380   4.717   3.949  0.3218  0.1765  0.2708
10390TIP3    H152585   0.411   4.636   3.989 -0.2473  0.2075  0.7901
10390TIP3    H252586   0.409   4.786   4.009 -0.7941  0.1985  0.8034
10391TIP3   OH252587   3.061   6.035  12.258 -0.6773 -0.3010 -0.2511
10391TIP3    H152588   3.108   6.110  12.222  0.6304 -1.3172 -0.6994
10391TIP3    H252589   2.990   6.074  12.308 -0.5031  1.2227 -1.1273
10392TIP3   OH252590   1.188   4.554   3.217  0.4019 -0.1939  0.1910
10392TIP3    H152591   1.258   4.493   3.193  0.7030 -0.6669  2.1047
10392TIP3    H252592   1.217   4.593   3.300  0.8550  3.6229 -1.5577
10393TIP3   OH252593   1.885   6.151   0.265  0.1660  0.1211  0.0879
10393TIP3    H152594   1.868   6.070   0.217 -0.6423  0.5423 -0.3576
10393TIP3    H252595   1.979   6.149   0.281  0.4114 -0.2099 -1.2062
10394TIP3   OH252596   3.055   4.758  13.681  0.2926  0.3065 -0.0463
10394TIP3    H152597   3.037   4.842  13.638  1.2984 -0.5290 -2.2421
10394TIP3    H252598   2.979   4.703  13.660 -1.0823  1.0163  2.6297
10395TIP3   OH252599   2.784   5.098  16.735 -0.4496  0.0953  0.3601
10395TIP3    H152600   2.806   5.153  16.810 -0.0162  2.2842 -1.2461
10395TIP3    H252601   2.861   5.044  16.720 -0.2631  0.1665  1.0570
10396TIP3   OH252602   4.215   4.367   0.662 -0.0544 -0.4910  0.1106
10396TIP3    H152603   4.221   4.291   0.604 -0.3762 -1.9664  1.9108
10396TIP3    H252604   4.299   4.370   0.707 -0.1756  0.0105  0.3099
10397TIP3   OH252605   1.089   2.750  12.530 -0.1217 -0.5342  0.2125
10397TIP3    H152606   1.085   2.835  12.486  0.5466 -0.7021 -0.1872
10397TIP3    H252607   1.145   2.766  12.607  0.3078 -0.6942 -0.0637
10398TIP3   OH252608   0.944   1.781   0.383  0.0997  0.4836 -0.3009
10398TIP3    H152609   0.860   1.783   0.428 -0.8754  1.2656 -2.0267
10398TIP3    H252610   0.923   1.808   0.293  1.9609 -0.6767 -1.1545
10399TIP3   OH252611   5.206   3.813  13.653  0.0146  0.0248 -1.1373
10399TIP3    H152612   5.118   3.778  13.638 -0.4773  0.1468  1.1665
10399TIP3    H252613   5.208   3.895  13.603 -2.2271  1.4653  0.9136
10400TIP3   OH252614   3.707   5.844   2.009  0.5242  0.6022  0.2713
10400TIP3    H152615   3.680   5.783   2.078  1.6458  0.3626  0.5199
10400TIP3    H252616   3.639   5.836   1.942 -0.0471  0.0752  0.8965
10401TIP3   OH252617   6.223   1.473  12.353  0.5619 -0.2223 -0.2534
10401TIP3    H152618   6.167   1.499  12.279  1.2284  1.0055 -0.3551
10401TIP3    H252619   6.255   1.386  12.329  0.9554  0.2479 -1.5474
10402TIP3   OH252620   5.564   6.557   3.258 -0.1932 -0.1132  0.5141
10402TIP3    H152621   5.603   6.608   3.187 -1.1993  1.0059  0.7487
10402TIP3    H252622   5.637   6.541   3.318 -0.0087  1.7737  0.8462
10403TIP3   OH252623   5.406   0.833   2.086 -0.6308  0.2423  0.2872
10403TIP3    H152624   5.447   0.747   2.078 -2.3556 -1.0331  3.4368
10403TIP3    H252625   5.314   0.818   2.063 -1.2167  0.8796  2.0314
10404TIP3   OH252626   1.459   3.642   4.321 -0.3609  0.2335  0.1031
10404TIP3    H152627   1.411   3.645   4.239  0.4341  1.0919 -0.3503
10404TIP3    H252628   1.551   3.642   4.295 -0.1025  0.2038  0.9846
10405TIP3   OH252629   4.710   0.175  16.408  0.0216  0.4743  0.0454
10405TIP3    H152630   4.783   0.225  16.444  0.1307  0.0169  0.4773
10405TIP3    H252631   4.637   0.195  16.467  0.7697 -2.1070  2.0268
10406TIP3   OH252632   1.846   5.091   2.074  0.5347  0.2475  0.1548
10406TIP3    H152633   1.829   5.180   2.103  2.2874  0.5282  0.4842
10406TIP3    H252634   1.760   5.053   2.059 -0.3438  1.2953  2.1417
10407TIP3   OH252635   4.838   5.310  17.127  0.4070 -0.2581  0.1171
10407TIP3    H152636   4.761   5.364  17.143  0.9092  0.8735 -1.0448
10407TIP3    H252637   4.847   5.308  17.032  1.6323 -0.5926  0.2161
10408TIP3   OH252638   5.469   2.105  12.557  0.0428 -0.3092  0.1901
10408TIP3    H152639   5.476   2.188  12.511 -1.0457 -0.3245 -0.0130
10408TIP3    H252640   5.417   2.049  12.500 -0.3846 -0.6883  0.9327
10409TIP3   OH252641   6.211   0.602  16.282 -0.0456  0.2572 -0.2416
10409TIP3    H152642   6.295   0.600  16.236  0.2782 -1.4625  0.3690
10409TIP3    H252643   6.229   0.645  16.365  0.6938 -1.6650  0.6559
10410TIP3   OH252644   0.305   3.001  12.878 -0.2441  0.0967  0.3443
10410TIP3    H152645   0.346   2.918  12.853 -0.2476 -0.0596  0.8335
10410TIP3    H252646   0.365   3.038  12.944 -0.0595  0.6565 -0.1196
10411TIP3   OH252647   5.210   2.302  13.719 -0.1603  0.2736  0.2604
10411TIP3    H152648   5.134   2.359  13.728  0.1385  0.8232 -0.5606
10411TIP3    H252649   5.278   2.345  13.772 -0.3061 -0.0232  0.6964
10412TIP3   OH252650   4.382   4.128   4.134 -0.1530 -0.2413 -0.0776
10412TIP3    H152651   4.397   4.055   4.074  0.6372  0.3543 -0.6238
10412TIP3    H252652   4.329   4.190   4.084 -0.6191 -0.3251  0.3015
10413TIP3   OH252653   0.247   2.379   2.555  0.1549 -0.5663  0.4213
10413TIP3    H152654   0.175   2.412   2.608 -1.7166 -1.2384 -1.5517
10413TIP3    H252655   0.265   2.292   2.590 -0.8976 -0.9070  0.1445
10414TIP3   OH252656   2.733   4.772  12.055 -0.6316 -0.4106 -0.2105
10414TIP3    H152657   2.819   4.792  12.018  0.4793 -2.1884  1.1952
10414TIP3    H252658   2.724   4.831  12.130 -0.1505 -0.8994  0.2427
10415TIP3   OH252659   4.283   3.096  11.593 -0.4250 -0.1471  0.1218
10415TIP3    H152660   4.370   3.085  11.554 -0.2914  2.0820 -0.3623
10415TIP3    H252661   4.223   3.086  11.519 -0.3065  1.8009 -0.3073
10416TIP3   OH252662   0.742   4.174   5.062 -0.0292  0.0433 -0.1389
10416TIP3    H152663   0.759   4.263   5.096  1.2791 -0.3195  0.2103
10416TIP3    H252664   0.824   4.127   5.078 -0.6277 -1.1601 -0.5633
10417TIP3   OH252665   2.703   0.779   4.651 -0.2616  0.2348 -0.0006
10417TIP3    H152666   2.708   0.874   4.641 -1.4844  0.2566 -0.6459
10417TIP3    H252667   2.748   0.761   4.734  0.7470  1.2711 -0.3039
10418TIP3   OH252668   2.320   4.291   1.034  0.5637  0.4707 -0.1773
10418TIP3    H152669   2.359   4.204   1.025  1.4497  0.5990  1.9405
10418TIP3    H252670   2.228   4.278   1.010  1.0032 -0.7076 -1.3375
10419TIP3   OH252671   5.558   1.051  12.478  0.6571  0.3194  0.2892
10419TIP3    H152672   5.464   1.050  12.460  0.8592  0.9810 -0.8936
10419TIP3    H252673   5.564   1.047  12.574 -0.6331  2.2199  0.5009
10420TIP3   OH252674   0.538   2.049  12.913 -0.4326  0.2401  0.0955
10420TIP3    H152675   0.610   2.020  12.969  0.0482  0.8364 -0.1999
10420TIP3    H252676   0.459   2.017  12.956  0.0358 -0.8991  0.1396
10421TIP3   OH252677   0.224   0.852   1.908 -0.5533 -0.1152  0.4271
10421TIP3    H152678   0.231   0.789   1.837 -3.3643 -1.6625  1.3364
10421TIP3    H252679   0.279   0.816   1.978  0.5898  0.3266 -0.2288
10422TIP3   OH252680   2.844   5.627   0.167 -0.2671  0.1307 -0.2126
10422TIP3    H152681   2.801   5.712   0.179  1.0940  1.5503 -3.8346
10422TIP3    H252682   2.773   5.565   0.153 -1.2493  0.9524  0.9112
10423TIP3   OH252683   0.521   4.933   0.289 -0.3527 -0.1877  0.4716
10423TIP3    H152684   0.498   4.990   0.215  1.4658  1.2996  0.9777
10423TIP3    H252685   0.440   4.885   0.307 -0.6021 -1.4302 -3.0964
10424TIP3   OH252686   1.567   5.371   1.979  0.1648  0.0366  0.3115
10424TIP3    H152687   1.517   5.422   1.915  0.9617 -0.6952 -0.9587
10424TIP3    H252688   1.501   5.322   2.027 -0.4236 -0.0620 -0.5729
10425TIP3   OH252689   0.309   3.814  10.725 -0.0156 -0.0197 -0.0788
10425TIP3    H152690   0.299   3.898  10.680 -1.3090 -1.2308 -2.1736
10425TIP3    H252691   0.404   3.801  10.732  0.2269  0.5499 -1.8653
10426TIP3   OH252692   5.505   5.071   1.174 -0.5078  0.9078  0.3305
10426TIP3    H152693   5.530   5.002   1.112 -3.0453  0.4331 -0.2822
10426TIP3    H252694   5.570   5.140   1.161  0.9344 -0.5240 -0.4696
10427TIP3   OH252695   5.692   2.557   5.636  0.0411 -0.2730  0.3170
10427TIP3    H152696   5.626   2.616   5.672  0.6043  0.5725 -0.0068
10427TIP3    H252697   5.691   2.574   5.541  0.9897  0.0363  0.3523
10428TIP3   OH252698   5.712   1.822   4.678 -0.5060 -0.4086 -0.0779
10428TIP3    H152699   5.627   1.860   4.703  0.7554  2.3566  0.3502
10428TIP3    H252700   5.750   1.793   4.760 -0.0932  0.5023  0.0654
10429TIP3   OH252701   4.581   0.241   3.438 -0.1312  0.3072 -0.2809
10429TIP3    H152702   4.536   0.319   3.472  0.8413  1.1083 -0.7757
10429TIP3    H252703   4.531   0.218   3.360  1.0011  1.9775 -1.5739
10430TIP3   OH252704   4.805   6.650   1.417  0.5434 -0.4849  0.2727
10430TIP3    H152705   4.843   6.649   1.329  1.3151 -0.1710  0.5871
10430TIP3    H252706   4.711   6.643   1.404  0.4664  1.7184 -0.7026
10431TIP3   OH252707   1.896   4.067   4.312 -0.1406  0.6472  0.2557
10431TIP3    H152708   1.937   4.103   4.390  2.1048  1.0405 -1.0325
10431TIP3    H252709   1.969   4.045   4.254 -1.6099 -1.7493 -0.8673
10432TIP3   OH252710   5.092   1.410  12.406 -0.7370 -0.2106  0.2742
10432TIP3    H152711   5.004   1.419  12.369 -1.8263 -4.6558  1.2646
10432TIP3    H252712   5.143   1.370  12.336  0.7012  2.4820 -0.3470
10433TIP3   OH252713   2.931   1.675   1.116  0.4102 -0.3969  0.4383
10433TIP3    H152714   2.982   1.733   1.058 -0.1744  0.0854  0.3965
10433TIP3    H252715   2.907   1.601   1.060  0.4521 -0.2757  0.2575
10434TIP3   OH252716   6.010   1.389  13.297  1.0941  0.4335 -0.3812
10434TIP3    H152717   6.064   1.339  13.357 -0.6198 -2.4889 -1.0942
10434TIP3    H252718   6.067   1.407  13.222  1.6999 -0.6680 -0.1986
10435TIP3   OH252719   5.663   1.823   1.681  0.1931 -0.6210  0.1710
10435TIP3    H152720   5.704   1.842   1.765 -0.6730  1.7778  0.1476
10435TIP3    H252721   5.669   1.905   1.633 -1.6132 -1.1608 -1.1011
10436TIP3   OH252722   3.409   4.342   0.301 -1.1832  0.9152  0.4185
10436TIP3    H152723   3.325   4.342   0.255  0.3541  1.0452 -2.6473
10436TIP3    H252724   3.444   4.430   0.287 -0.4985  0.8645  1.6436
10437TIP3   OH252725   5.047   2.451   3.891 -0.0791  0.1287  0.1731
10437TIP3    H152726   5.103   2.475   3.965  2.2121 -0.2319 -1.3275
10437TIP3    H252727   5.091   2.488   3.814 -1.6330 -0.6538 -1.1703
10438TIP3   OH252728   5.596   4.541  15.083 -0.4120 -0.4320  0.0541
10438TIP3    H152729   5.647   4.543  15.164 -0.4495  1.6090  0.0706
10438TIP3    H252730   5.581   4.448  15.067  1.8588 -1.0087  0.9401
10439TIP3   OH252731   1.329   1.506   2.215 -0.2492  0.4570  0.0160
10439TIP3    H152732   1.281   1.516   2.297 -1.5940  1.0593 -0.8132
10439TIP3    H252733   1.411   1.554   2.229 -0.6622  0.9355  0.8462
10440TIP3   OH252734   3.546   6.118  15.433  0.1929  0.0650 -0.5491
10440TIP3    H152735   3.498   6.177  15.376 -0.1371  0.5178  0.1879
10440TIP3    H252736   3.594   6.175  15.493 -1.6927 -0.3552  1.5005
10441TIP3   OH252737   1.063   5.967  16.353 -0.1008  0.9105 -0.3490
10441TIP3    H152738   0.994   6.031  16.332 -0.1065  0.6903 -1.0315
10441TIP3    H252739   1.041   5.890  16.300 -0.0975  0.3317  0.4743
10442TIP3   OH252740   0.495   0.541  17.174  0.0185 -0.0881 -0.0687
10442TIP3    H152741   0.425   0.562  17.112  0.3778 -0.0197 -0.4600
10442TIP3    H252742   0.450   0.503  17.249 -0.3741 -0.7886 -0.6434
10443TIP3   OH252743   2.650   1.923   4.461 -0.7400  0.5965 -0.2292
10443TIP3    H152744   2.647   1.841   4.413  0.4593  0.1258  0.4487
10443TIP3    H252745   2.592   1.982   4.413 -2.0518 -0.7975 -0.4081
10444TIP3   OH252746   3.548   2.985  16.927  0.1514 -0.9719  0.4379
10444TIP3    H152747   3.620   2.993  16.864 -0.6126 -0.8414 -0.4249
10444TIP3    H252748   3.482   2.933  16.883 -0.3987 -0.8909  1.1382
10445TIP3   OH252749   6.667   3.812  11.148  0.2923  0.4856  0.3653
10445TIP3    H152750   6.693   3.755  11.220 -0.8396  0.0685  0.4548
10445TIP3    H252751   6.573   3.827  11.161  0.4493  1.9348  0.0397
10446TIP3   OH252752   4.733   4.025   5.753 -0.4094  0.0491 -0.0019
10446TIP3    H152753   4.759   3.984   5.671  2.2931  3.3247 -1.0220
10446TIP3    H252754   4.755   3.961   5.820  0.3248 -1.4855 -1.6390
10447TIP3   OH252755   5.713   3.387  15.979  0.2187  0.2416 -0.4911
10447TIP3    H152756   5.788   3.414  15.926  1.3462  0.4613  1.1286
10447TIP3    H252757   5.709   3.453  16.049 -0.3891 -0.7445  0.4294
10448TIP3   OH252758   2.439   5.157   6.092  0.3241  0.7087  0.0336
10448TIP3    H152759   2.509   5.120   6.145 -0.6650  0.2923  1.1013
10448TIP3    H252760   2.484   5.211   6.026  1.6789 -0.5969 -0.1545
10449TIP3   OH252761   5.458   1.361   1.847 -0.3026  0.1709 -0.4400
10449TIP3    H152762   5.478   1.431   1.909 -1.1941 -0.4067  0.5398
10449TIP3    H252763   5.373   1.384   1.811  0.1091  0.3836 -1.2988
10450TIP3   OH252764   2.936   1.861   6.410 -0.6032  0.1841 -0.0779
10450TIP3    H152765   2.916   1.896   6.497  1.0067 -1.0551  0.8405
10450TIP3    H252766   2.946   1.767   6.424 -2.2301 -0.3275 -1.9950
10451TIP3   OH252767   4.328   0.050   2.626 -0.4516  0.2507  0.2342
10451TIP3    H152768   4.325   0.068   2.720 -1.8352 -2.3894  0.8141
10451TIP3    H252769   4.349  -0.043   2.621 -0.8048  0.2495 -2.0756
10452TIP3   OH252770   1.299   1.106   4.714 -0.4847  0.0121 -0.8495
10452TIP3    H152771   1.336   1.174   4.769 -1.4018  2.1451 -2.7224
10452TIP3    H252772   1.205   1.121   4.717 -0.7847 -1.6255 -0.8076
10453TIP3   OH252773   4.896   1.682  13.511  0.2589 -0.5758  0.0343
10453TIP3    H152774   4.910   1.636  13.427 -0.9530  0.6813 -0.9027
10453TIP3    H252775   4.834   1.752  13.490  1.8425  1.3516  1.4668
10454TIP3   OH252776   3.245   6.325  14.113 -0.3856  0.5805  0.6744
10454TIP3    H152777   3.304   6.399  14.100 -0.5328  0.5244 -0.3853
10454TIP3    H252778   3.167   6.363  14.153  0.6800  0.5184  2.9730
10455TIP3   OH252779   2.361   3.092  15.916 -0.3817  0.2556  0.1154
10455TIP3    H152780   2.334   3.183  15.926  0.1724  0.2012  2.8632
10455TIP3    H252781   2.451   3.090  15.950 -0.9005 -1.5463  1.5235
10456TIP3   OH252782   0.626   0.712  16.728  0.6228 -0.4101 -0.0546
10456TIP3    H152783   0.698   0.736  16.785  1.9533  1.5300 -2.3604
10456TIP3    H252784   0.551   0.699  16.786  1.9830  1.0114  2.1063
10457TIP3   OH252785   4.448   2.829   3.422  0.2135 -0.0003 -0.7283
10457TIP3    H152786   4.472   2.795   3.336 -1.2385  0.0189 -1.1679
10457TIP3    H252787   4.389   2.763   3.459  0.6493  0.0969  0.1705
10458TIP3   OH252788   0.799   1.038   1.894  0.1126  0.0183 -0.6250
10458TIP3    H152789   0.888   1.007   1.912  0.1183  0.0172 -0.6552
10458TIP3    H252790   0.801   1.130   1.920  0.3912  0.2752 -1.5097
10459TIP3   OH252791   5.679   3.202  15.039 -0.3236 -0.8544  0.1326
10459TIP3    H152792   5.720   3.230  15.121  2.7211 -0.4070 -1.3824
10459TIP3    H252793   5.610   3.266  15.023  0.4682  0.3311  1.2754
10460TIP3   OH252794   1.074   4.904  11.607  0.1625  0.4737  0.2956
10460TIP3    H152795   1.004   4.969  11.616  1.0778  1.5569 -0.2497
10460TIP3    H252796   1.154   4.951  11.630  1.0350 -0.0141 -1.5673
10461TIP3   OH252797   5.025   6.253  14.759  0.3089 -0.5180 -0.2167
10461TIP3    H152798   4.948   6.218  14.805 -0.6012 -1.9956 -2.6835
10461TIP3    H252799   5.010   6.347  14.755 -0.8015 -0.6561  0.3530
10462TIP3   OH252800   1.100   5.714  16.540  0.0844 -0.0953 -0.2073
10462TIP3    H152801   1.126   5.790  16.488  2.1268 -0.8948 -0.4213
10462TIP3    H252802   1.005   5.725  16.551 -0.1391  1.0538 -2.5238
10463TIP3   OH252803   4.622   4.159  12.496  0.6868  0.0449  0.2556
10463TIP3    H152804   4.681   4.093  12.534  0.9325  0.6047  0.8575
10463TIP3    H252805   4.592   4.119  12.414  0.0781 -1.2293  1.0648
10464TIP3   OH252806   1.060   2.448  17.040  0.5099  0.4866 -0.3539
10464TIP3    H152807   1.068   2.391  17.117  1.7035 -1.7336 -1.9983
10464TIP3    H252808   0.987   2.410  16.990  1.1097  0.5662 -1.3187
10465TIP3   OH252809   0.812   1.928   4.051  0.6654 -0.4267 -0.6270
10465TIP3    H152810   0.724   1.928   4.088  0.6550 -1.2840 -0.6264
10465TIP3    H252811   0.869   1.955   4.123  0.4040  0.1326 -0.6291
10466TIP3   OH252812   2.963   0.821  16.601  0.6253 -0.2264  0.1506
10466TIP3    H152813   3.011   0.865  16.671 -0.2877  2.4743 -0.7715
10466TIP3    H252814   3.014   0.840  16.522  0.5468 -1.4342 -0.2016
10467TIP3   OH252815   2.905   1.774   0.418 -0.2936 -0.5638  0.1268
10467TIP3    H152816   2.924   1.768   0.511 -3.2916 -1.0524  0.8315
10467TIP3    H252817   2.847   1.699   0.401 -0.4918 -0.0005 -1.9447
10468TIP3   OH252818   0.394   5.897  11.332  0.4259 -0.5494 -0.0946
10468TIP3    H152819   0.370   5.805  11.333  0.7149 -0.6221  0.3838
10468TIP3    H252820   0.313   5.942  11.306  0.6056 -1.0115 -1.5099
10469TIP3   OH252821   5.364   5.455  13.127  0.5964  0.6949  0.2539
10469TIP3    H152822   5.299   5.513  13.087 -0.5887 -0.0279  1.0743
10469TIP3    H252823   5.445   5.475  13.081  0.1005  2.5934  0.1136
10470TIP3   OH252824   3.387   2.261  12.993  0.6921 -0.1858  0.0768
10470TIP3    H152825   3.370   2.344  13.037  0.9098 -0.1952  0.1815
10470TIP3    H252826   3.481   2.247  13.004  0.4916 -0.9696  0.9817
10471TIP3   OH252827   1.293   2.021   0.438  0.0882 -0.3132  0.2619
10471TIP3    H152828   1.290   1.928   0.464 -0.9831  0.1289  1.9060
10471TIP3    H252829   1.377   2.052   0.472  0.0541 -0.4741  0.4976
10472TIP3   OH252830   1.170   1.149   5.370  0.9293  0.0926 -1.0324
10472TIP3    H152831   1.202   1.210   5.303 -0.6919  1.6738 -0.4481
10472TIP3    H252832   1.078   1.136   5.348  0.9198 -1.1264 -0.3612
10473TIP3   OH252833   6.576   2.326  16.357  0.4903 -0.0191 -0.3254
10473TIP3    H152834   6.481   2.320  16.347  0.3328 -0.5580  1.2229
10473TIP3    H252835   6.610   2.315  16.268 -0.9191  1.2590 -1.0653
10474TIP3   OH252836   6.552   2.853   0.657 -0.4447  0.3023  0.1487
10474TIP3    H152837   6.567   2.846   0.562  0.4382  3.7396 -0.0840
10474TIP3    H252838   6.604   2.783   0.694 -0.6981 -1.0532 -1.8615
10475TIP3   OH252839   4.786   6.563   5.813  0.0105 -0.0620  0.2073
10475TIP3    H152840   4.761   6.472   5.829 -0.2039 -0.2242 -0.9646
10475TIP3    H252841   4.862   6.557   5.755 -1.5627  0.4960 -2.0374
10476TIP3   OH252842   5.102   6.239  15.947 -0.7359 -0.2966 -0.1954
10476TIP3    H152843   5.018   6.284  15.937 -1.3760 -1.7715 -1.8446
10476TIP3    H252844   5.084   6.168  16.009 -0.7954 -0.8089 -0.7952
10477TIP3   OH252845   0.270   1.862  14.767 -0.0629 -0.2912  0.3241
10477TIP3    H152846   0.281   1.796  14.698  2.8045  0.2852  0.0795
10477TIP3    H252847   0.248   1.943  14.720  0.0527 -0.2946  0.2641
10478TIP3   OH252848   1.907   3.499   0.737  0.9191  0.4173 -0.0625
10478TIP3    H152849   1.923   3.554   0.661 -1.8011 -0.5945 -1.5125
10478TIP3    H252850   1.914   3.409   0.705  0.6735 -0.0475  1.0979
10479TIP3   OH252851   1.448   3.597  17.011 -0.1029 -0.2436 -0.5950
10479TIP3    H152852   1.527   3.647  17.031 -1.1779  0.9230  0.9662
10479TIP3    H252853   1.411   3.639  16.933 -0.1137  0.3526 -0.2734
10480TIP3   OH252854   3.702   3.569   5.217  0.1930  0.6247 -0.0560
10480TIP3    H152855   3.672   3.560   5.308  0.1210  1.1171 -0.0283
10480TIP3    H252856   3.750   3.488   5.200 -0.2590  0.2832  0.2424
10481TIP3   OH252857   3.189   0.875  11.099  0.1736  0.2623 -0.4757
10481TIP3    H152858   3.229   0.958  11.123 -1.0622  1.1331 -1.2881
10481TIP3    H252859   3.250   0.808  11.130  1.5491  1.4909 -0.4626
10482TIP3   OH252860   2.416   2.607  11.158 -0.4214  0.0542 -0.2191
10482TIP3    H152861   2.441   2.682  11.211 -0.5474  0.9318 -1.3555
10482TIP3    H252862   2.495   2.552  11.157 -0.0528  0.5697 -0.0314
10483TIP3   OH252863   0.112   1.306   2.323 -0.0989 -0.5083  0.1473
10483TIP3    H152864   0.072   1.368   2.263  0.4697 -0.0343  0.2504
10483TIP3    H252865   0.183   1.355   2.365 -1.4953 -0.2780  2.4533
10484TIP3   OH252866   2.628   2.747  17.197 -0.1116 -0.6042 -0.0468
10484TIP3    H152867   2.614   2.788  17.282 -1.7725  2.1377 -1.5280
10484TIP3    H252868   2.551   2.692  17.184  1.0843 -2.6758  0.9713
10485TIP3   OH252869   1.525   1.957   1.479  0.4390  0.0876 -0.3158
10485TIP3    H152870   1.607   1.968   1.527 -1.6028 -0.2543  3.5989
10485TIP3    H252871   1.479   1.887   1.525 -2.0333  0.0969 -2.5036
10486TIP3   OH252872   2.473   2.381  14.733 -0.4435 -0.1879 -0.1367
10486TIP3    H152873   2.527   2.392  14.655 -1.4103  1.1254 -0.6453
10486TIP3    H252874   2.452   2.470  14.761 -2.1029 -0.6584  0.2031
10487TIP3   OH252875   0.306   3.774  11.456 -0.2340 -0.6159 -0.4189
10487TIP3    H152876   0.328   3.695  11.507 -1.5206  1.0771  3.0715
10487TIP3    H252877   0.218   3.757  11.422 -0.0469 -1.1022 -0.6812
10488TIP3   OH252878   0.909   6.599  14.231 -0.0687  0.2917  0.6560
10488TIP3    H152879   0.931   6.563  14.145 -0.8158 -1.8250  1.2798
10488TIP3    H252880   0.845   6.538  14.267 -2.1111  2.7347  1.5200
10489TIP3   OH252881   2.015   4.688  14.341 -0.1194  0.3188 -0.3552
10489TIP3    H152882   2.067   4.764  14.367  0.8436 -0.0155 -1.2202
10489TIP3    H252883   1.944   4.724  14.287  0.2772  0.6181 -0.6865
10490TIP3   OH252884   4.832   1.988  11.888 -0.3142  0.6220  0.0920
10490TIP3    H152885   4.843   2.076  11.854 -1.7755  0.6180 -0.4740
10490TIP3    H252886   4.860   1.931  11.816 -2.8413  0.6207 -0.9802
10491TIP3   OH252887   6.544   6.507   0.797  0.0351  0.1187 -0.2282
10491TIP3    H152888   6.514   6.515   0.887 -1.2247 -0.7013 -0.5507
10491TIP3    H252889   6.470   6.468   0.750  0.7873  0.2177 -1.5475
10492TIP3   OH252890   0.871   5.910  16.699  0.2331 -0.1147  0.2632
10492TIP3    H152891   0.926   5.910  16.777  0.5026 -1.2186  0.0943
10492TIP3    H252892   0.790   5.868  16.726 -0.1146  0.5214  0.2291
10493TIP3   OH252893   5.609   5.098  12.452 -0.3409  0.1485 -0.4023
10493TIP3    H152894   5.619   5.037  12.378 -2.4219  1.3475 -1.7798
10493TIP3    H252895   5.695   5.138  12.462  0.8214 -2.2655 -0.0838
10494TIP3   OH252896   5.392   4.227   6.014  0.5289  0.6070  0.2238
10494TIP3    H152897   5.343   4.306   5.992 -1.3275 -0.4619  0.2437
10494TIP3    H252898   5.410   4.235   6.108  1.4382  1.5374 -0.0164
10495TIP3   OH252899   1.517   4.561   0.105  0.0384 -0.0574 -0.0111
10495TIP3    H152900   1.433   4.592   0.138 -0.4087 -0.9212 -0.3310
10495TIP3    H252901   1.495   4.488   0.047  0.8469  0.8728 -1.5869
10496TIP3   OH252902   5.303   6.558  14.571  0.7632 -0.1255 -0.1116
10496TIP3    H152903   5.384   6.510  14.584 -1.3221 -3.8164  0.6723
10496TIP3    H252904   5.288   6.604  14.654  1.1727 -0.8882  0.3893
10497TIP3   OH252905   6.672   5.096  13.299  1.4109  0.0659 -0.2517
10497TIP3    H152906   6.731   5.079  13.372  1.3075  0.6062 -0.0374
10497TIP3    H252907   6.587   5.061  13.327  0.7904  2.3052  0.8663
10498TIP3   OH252908   0.657   5.605   4.858  0.6197  0.0612 -0.5698
10498TIP3    H152909   0.749   5.579   4.862  0.4797 -0.2526  2.1748
10498TIP3    H252910   0.609   5.522   4.862  0.2344  0.3467  2.1024
10499TIP3   OH252911   0.537   1.866  17.354  0.2716 -0.0615  0.1497
10499TIP3    H152912   0.595   1.839  17.425  0.0646  1.4929  0.9588
10499TIP3    H252913   0.578   1.945  17.319 -0.1664 -0.2421 -0.8003
10500TIP3   OH252914   0.162   3.574   5.800  0.0642  0.2279  0.1125
10500TIP3    H152915   0.105   3.650   5.809 -0.5775 -0.2750  0.4648
10500TIP3    H252916   0.155   3.549   5.707 -2.3065 -1.2994  0.5980
10501TIP3   OH252917   4.482   4.878   3.992 -0.3177 -0.3644 -0.2867
10501TIP3    H152918   4.527   4.864   4.076 -1.3515  1.4014  0.6168
10501TIP3    H252919   4.410   4.815   3.993  0.5221 -1.3663 -0.5505
10502TIP3   OH252920   0.689   0.944   5.112 -0.0717  0.1980 -0.1968
10502TIP3    H152921   0.618   0.891   5.146  0.2948 -0.2077 -0.0560
10502TIP3    H252922   0.728   0.890   5.043  0.3695  0.2368  0.0181
10503TIP3   OH252923   0.917   0.373   5.302  0.5662  0.4043  0.1062
10503TIP3    H152924   0.924   0.394   5.395  0.2473  0.9335  0.0168
10503TIP3    H252925   1.005   0.347   5.276  1.4896  3.5015 -0.2146
10504TIP3   OH252926   0.370   1.808   2.516  0.5750 -0.1723 -0.4825
10504TIP3    H152927   0.395   1.884   2.464 -0.6066 -0.1320 -1.0286
10504TIP3    H252928   0.438   1.743   2.496  1.6970  0.7698  0.1359
10505TIP3   OH252929   3.022   1.008  11.536  0.2784  0.7517  0.3441
10505TIP3    H152930   2.945   1.027  11.482 -0.8240  0.2131  1.6882
10505TIP3    H252931   3.086   1.073  11.508  0.0489  0.0218 -2.1520
10506TIP3   OH252932   4.066   6.711  16.390  0.6906  0.2009  0.7059
10506TIP3    H152933   4.020   6.792  16.370  0.2336 -0.1831  0.1829
10506TIP3    H252934   4.055   6.700  16.484 -0.8914 -0.2329  0.5010
10507TIP3   OH252935   5.279   4.160  15.905 -0.2080  0.0239 -0.1219
10507TIP3    H152936   5.375   4.162  15.915 -0.2651  0.7659  0.4222
10507TIP3    H252937   5.264   4.181  15.813  0.1286  1.1726  0.0625
10508TIP3   OH252938   6.667   4.077  16.471  0.4440  0.2393 -0.1688
10508TIP3    H152939   6.676   4.038  16.558  1.3109 -1.0474 -0.8105
10508TIP3    H252940   6.741   4.043  16.421  0.0348  1.0552 -1.3866
10509TIP3   OH252941   6.259   0.899   0.058  0.1637  0.4530  0.1159
10509TIP3    H152942   6.319   0.900  -0.016 -0.7293 -0.2637 -0.6488
10509TIP3    H252943   6.189   0.960   0.033  0.2879  0.8718  0.7581
10510TIP3   OH252944   2.195   2.535  17.033  0.1356 -0.0086  0.1048
10510TIP3    H152945   2.247   2.609  17.003  1.0543 -0.3584  0.7840
10510TIP3    H252946   2.116   2.573  17.071 -0.2704  0.5172 -1.2175
10511TIP3   OH252947   6.162   1.506   5.915 -0.2021 -0.5882  0.2327
10511TIP3    H152948   6.166   1.445   5.988 -0.1357  0.7291  1.3735
10511TIP3    H252949   6.250   1.545   5.911 -0.6903  0.5936  0.5809
10512TIP3   OH252950   1.668   0.181   3.258 -0.2354  0.1322  0.3763
10512TIP3    H152951   1.627   0.178   3.345  1.7870 -0.8754  1.3557
10512TIP3    H252952   1.728   0.107   3.257  0.1453  0.3960 -1.7382
10513TIP3   OH252953   4.332   1.646   1.435 -0.3618  0.5607 -0.1571
10513TIP3    H152954   4.253   1.699   1.441 -0.3686  0.4163  1.6374
10513TIP3    H252955   4.401   1.703   1.469 -0.6107 -0.9475  3.2142
10514TIP3   OH252956   4.639   1.841   6.386 -0.1553 -0.1036  0.0099
10514TIP3    H152957   4.726   1.811   6.411  0.3461  0.4299 -1.0276
10514TIP3    H252958   4.639   1.934   6.407  0.3373  0.4062 -1.9896
10515TIP3   OH252959   5.773   4.950   0.402  0.1112  0.0688  1.1558
10515TIP3    H152960   5.860   4.971   0.436  0.1564  0.1842  0.9712
10515TIP3    H252961   5.735   5.035   0.379  1.0360 -0.1500 -1.4319
10516TIP3   OH252962   0.718   3.521   0.079 -0.3368  0.4438  0.3492
10516TIP3    H152963   0.632   3.488   0.103  0.1783  0.3781  2.2421
10516TIP3    H252964   0.702   3.608   0.043 -1.1761  0.5375  0.9340
10517TIP3   OH252965   3.880   2.912   2.866 -0.0924  0.5650 -0.2703
10517TIP3    H152966   3.928   2.995   2.865 -0.4181  0.8435  1.9932
10517TIP3    H252967   3.948   2.845   2.861  0.1451  0.8963 -2.7169
10518TIP3   OH252968   0.776   3.357  14.462 -0.4820 -0.0243  0.5127
10518TIP3    H152969   0.753   3.284  14.518 -0.5642 -0.0297  0.4724
10518TIP3    H252970   0.812   3.423  14.521  1.2294 -0.7608  0.3525
10519TIP3   OH252971   6.157   2.154  13.116  0.2193 -0.4094  0.4713
10519TIP3    H152972   6.118   2.095  13.181 -0.0188 -1.3579 -0.5080
10519TIP3    H252973   6.195   2.225  13.168  1.3504 -1.8822  1.7735
10520TIP3   OH252974   5.964   0.916  12.886 -0.5050  0.0914  0.4818
10520TIP3    H152975   6.021   0.879  12.954 -1.6847  0.2880  1.6188
10520TIP3    H252976   5.972   1.010  12.898 -1.8372  0.1294  1.3783
10521TIP3   OH252977   3.592   0.595  11.195  0.4782 -0.5128  0.0835
10521TIP3    H152978   3.672   0.563  11.236  0.0644  0.2328  1.5522
10521TIP3    H252979   3.622   0.643  11.117  1.3371 -1.4073 -0.1534
10522TIP3   OH252980   0.937   5.502  10.624 -0.2083 -0.0436 -0.0138
10522TIP3    H152981   0.947   5.597  10.613 -2.1431  0.0912 -1.0900
10522TIP3    H252982   0.929   5.490  10.719  0.1571  0.8611  0.1451
10523TIP3   OH252983   6.109   1.483   5.115 -0.1383  0.7919  0.3785
10523TIP3    H152984   6.100   1.558   5.174  0.1164  1.0806  0.0495
10523TIP3    H252985   6.027   1.434   5.126 -2.1553  3.1902 -2.3264
10524TIP3   OH252986   3.380   1.287   0.906  0.0301 -0.6380  0.1017
10524TIP3    H152987   3.438   1.318   0.976 -0.6679 -0.0310  0.4237
10524TIP3    H252988   3.419   1.322   0.826  0.1183 -0.2378  0.3142
10525TIP3   OH252989   0.780   4.401   2.398 -0.2417  0.3487 -0.2024
10525TIP3    H152990   0.710   4.461   2.422 -0.1297  0.5474 -0.3702
10525TIP3    H252991   0.833   4.449   2.334  2.3349  1.7289  2.7084
10526TIP3   OH252992   1.835   1.443  12.214  0.2659 -0.4384 -0.1995
10526TIP3    H152993   1.904   1.391  12.173  2.0211  2.7583 -1.6461
10526TIP3    H252994   1.868   1.464  12.301  0.0410 -0.7733 -0.0279
10527TIP3   OH252995   3.239   0.394  13.370 -0.2943  0.0044  0.3445
10527TIP3    H152996   3.233   0.363  13.461  0.1334 -2.0018 -0.2657
10527TIP3    H252997   3.150   0.422  13.348 -0.8034 -1.1484  0.8496
10528TIP3   OH252998   2.405   1.073   0.860  0.1885 -0.3190 -0.5662
10528TIP3    H152999   2.417   1.106   0.771  0.2122 -0.5736 -0.6570
10528TIP3    H253000   2.310   1.063   0.869  0.1668 -0.0269 -0.4667
10529TIP3   OH253001   6.578   3.025  13.074  0.4071 -0.0406 -0.1978
10529TIP3    H153002   6.514   2.954  13.083 -0.8100  0.8478 -1.4849
10529TIP3    H253003   6.619   3.010  12.989 -0.2975  1.1067 -0.7618
10530TIP3   OH253004   5.037   5.736  14.854  0.2681 -0.4067 -0.1034
10530TIP3    H153005   5.117   5.685  14.864  0.3001 -0.4359 -0.4979
10530TIP3    H253006   5.062   5.811  14.802 -0.5240 -1.8427 -2.7208
10531TIP3   OH253007   4.099   1.290  14.142 -0.2138 -0.5686 -0.3579
10531TIP3    H153008   4.177   1.344  14.138  0.0657 -1.0080 -1.0148
10531TIP3    H253009   4.092   1.265  14.234 -0.1765  0.3222 -0.1043
10532TIP3   OH253010   1.927   5.726   0.105  0.5099 -0.5388  0.4427
10532TIP3    H153011   1.900   5.668   0.034  1.4173 -0.8041  0.2972
10532TIP3    H253012   2.017   5.751   0.083 -0.1373  1.6193  0.0518
10533TIP3   OH253013   5.112   0.241   4.357  0.3251 -0.4515  0.3099
10533TIP3    H153014   5.138   0.155   4.325 -0.1530 -0.1642 -0.8949
10533TIP3    H253015   5.016   0.242   4.350  0.2092 -0.3268  1.6459
10534TIP3   OH253016   2.368   1.967   4.618 -0.0033  0.3746 -0.2475
10534TIP3    H153017   2.407   2.048   4.650  0.0469  0.0261  0.6087
10534TIP3    H253018   2.424   1.898   4.655 -0.9768 -0.1047  0.3708
10535TIP3   OH253019   3.196   6.694  13.652 -0.7639  0.1641  0.2212
10535TIP3    H153020   3.285   6.727  13.645 -0.5813 -0.1423  1.0615
10535TIP3    H253021   3.143   6.772  13.668 -0.6063  0.3000  0.0821
10536TIP3   OH253022   2.839   0.982  14.467 -0.4610 -0.4732 -0.1662
10536TIP3    H153023   2.875   1.037  14.398  0.7484 -1.2529 -0.1716
10536TIP3    H253024   2.780   1.040  14.515  2.3415  1.5128  1.1501
10537TIP3   OH253025   2.323   3.354   6.382  0.3216 -0.1420 -0.6850
10537TIP3    H153026   2.272   3.326   6.458 -1.7172 -1.2580 -2.3705
10537TIP3    H253027   2.333   3.275   6.329  1.4013  0.6762 -1.7553
10538TIP3   OH253028   3.225   1.756  15.005  0.4471 -0.4869 -0.1603
10538TIP3    H153029   3.189   1.749  15.094  0.4950  1.6665  0.0933
10538TIP3    H253030   3.218   1.849  14.984  1.1620 -0.8289 -2.1287
10539TIP3   OH253031   6.568   0.901  10.790 -0.0321 -0.1238 -0.1316
10539TIP3    H153032   6.517   0.863  10.862 -0.1667 -0.5085 -0.4295
10539TIP3    H253033   6.646   0.936  10.833 -0.4479  0.3060  0.3029
10540TIP3   OH253034   3.726   1.241  10.752  0.3365  0.0589 -0.5212
10540TIP3    H153035   3.746   1.207  10.665  2.3988 -2.3942  0.7744
10540TIP3    H253036   3.704   1.333  10.738 -2.1349 -0.8512 -3.9081
10541TIP3   OH253037   4.874   5.444  11.426 -0.2902 -0.7856 -0.6098
10541TIP3    H153038   4.945   5.469  11.485  0.1239  2.8816 -2.4204
10541TIP3    H253039   4.917   5.423  11.343 -1.1786  0.0607 -1.3167
10542TIP3   OH253040   4.565   0.937   4.308 -0.7532 -0.4055  0.7060
10542TIP3    H153041   4.584   1.012   4.252  0.4048  0.3709  2.1112
10542TIP3    H253042   4.613   0.864   4.268 -2.7940 -0.7776 -1.3328
10543TIP3   OH253043   0.073   3.842   0.762 -0.0814  0.4345  0.2323
10543TIP3    H153044   0.160   3.855   0.726  0.6946  2.9815  2.6673
10543TIP3    H253045   0.086   3.785   0.838 -1.1789 -2.0821 -1.3233
10544TIP3   OH253046   0.408   3.486   4.615 -0.1433 -0.1170  0.3143
10544TIP3    H153047   0.345   3.553   4.644 -0.7042  0.2430 -1.5876
10544TIP3    H253048   0.432   3.513   4.526  0.1637 -2.0511 -0.2395
10545TIP3   OH253049   5.692   3.645  16.213  0.1692  1.1541 -0.0906
10545TIP3    H153050   5.670   3.688  16.295  0.4959  0.4355  0.3890
10545TIP3    H253051   5.787   3.657  16.204  0.2497  0.6307  0.0062
10546TIP3   OH253052   2.525   5.494   4.371  0.4518 -0.2446  0.4365
10546TIP3    H153053   2.534   5.580   4.411  1.9407 -0.4186  0.5038
10546TIP3    H253054   2.450   5.454   4.416 -0.3282  1.0289  0.3208
10547TIP3   OH253055   4.690   5.818   5.099  0.0689 -0.9563  0.4706
10547TIP3    H153056   4.772   5.826   5.147  0.6427 -2.2725 -0.2522
10547TIP3    H253057   4.700   5.878   5.024  0.7187 -1.7301 -0.0708
10548TIP3   OH253058   4.995   4.555   2.550 -0.0952  0.2663 -0.3980
10548TIP3    H153059   4.955   4.515   2.474 -0.0279  0.0715 -0.3302
10548TIP3    H253060   5.086   4.526   2.548 -0.1504  0.0702 -0.1131
10549TIP3   OH253061   5.811   3.084  13.856  0.3935  0.3457  0.0754
10549TIP3    H153062   5.767   3.086  13.941  0.7564  0.6095  0.2603
10549TIP3    H253063   5.741   3.099  13.792  0.2740  1.2014  0.3908
10550TIP3   OH253064   6.289   2.240   1.296 -0.2745 -0.3976 -0.4384
10550TIP3    H153065   6.280   2.206   1.385  0.5408 -1.0134 -0.5671
10550TIP3    H253066   6.229   2.187   1.244 -0.2532 -0.5045 -0.3557
10551TIP3   OH253067   2.460   3.653   4.563  0.3051 -1.1571 -0.1054
10551TIP3    H153068   2.396   3.630   4.630 -0.0784 -4.4811 -1.4098
10551TIP3    H253069   2.543   3.615   4.594  0.7081 -0.4999 -0.3498
10552TIP3   OH253070   1.978   0.323   3.901  0.2197 -0.3109 -0.8238
10552TIP3    H153071   2.062   0.334   3.946  0.6980  3.9240 -2.2887
10552TIP3    H253072   1.956   0.231   3.913  3.1518 -0.7590  2.8852
10553TIP3   OH253073   4.598   4.121  14.598 -0.1277 -0.9381  0.1338
10553TIP3    H153074   4.610   4.216  14.590 -0.4460 -0.9986 -1.4219
10553TIP3    H253075   4.687   4.086  14.595 -0.0778 -0.7647 -0.9459
10554TIP3   OH253076   5.154   1.624   3.395  0.2787 -0.4131  0.1407
10554TIP3    H153077   5.071   1.652   3.357 -0.3996  0.2034  1.9921
10554TIP3    H253078   5.161   1.532   3.373 -0.4126 -0.2396 -0.8536
10555TIP3   OH253079   2.571   5.368  15.900  0.1239  0.0122 -0.2505
10555TIP3    H153080   2.509   5.437  15.924  1.6741  0.7594  1.9326
10555TIP3    H253081   2.532   5.288  15.937  0.1619  0.3922  0.6502
10556TIP3   OH253082   4.016   1.962  13.483 -0.4529  0.3997 -0.5908
10556TIP3    H153083   3.974   1.915  13.410  0.2373 -0.0676 -0.6902
10556TIP3    H253084   3.943   2.007  13.526 -1.1240 -0.6677 -0.5619
10557TIP3   OH253085   3.010   2.439  15.996 -0.0679 -0.3010  0.6119
10557TIP3    H153086   2.937   2.463  16.052 -1.9576  0.6970 -2.0728
10557TIP3    H253087   3.085   2.431  16.055 -1.7286  1.4039  3.1061
10558TIP3   OH253088   3.840   4.558   4.038 -0.1251 -0.4899  0.0037
10558TIP3    H153089   3.755   4.516   4.030 -0.8966  1.3536 -2.8195
10558TIP3    H253090   3.820   4.644   4.077  0.3080  0.2144 -1.2861
10559TIP3   OH253091   5.183   0.087  14.694 -0.3573  0.1708  0.3781
10559TIP3    H153092   5.277   0.102  14.683 -0.1345 -0.8697  0.7394
10559TIP3    H253093   5.149   0.170  14.727  0.7528  0.0266  2.0097
10560TIP3   OH253094   5.001   3.589  11.793 -0.7621  1.0202 -0.4152
10560TIP3    H153095   4.926   3.588  11.734 -1.0899  1.8020 -0.0223
10560TIP3    H253096   5.063   3.650  11.753 -0.8279  1.2670 -0.1420
10561TIP3   OH253097   0.744   4.304  16.037 -0.1818  0.0768 -0.4125
10561TIP3    H153098   0.746   4.275  15.946  0.5504 -0.2951 -0.2892
10561TIP3    H253099   0.742   4.400  16.033 -2.0225  0.0490 -0.8230
10562TIP3   OH253100   0.867   2.971  12.193 -0.1294 -0.0856 -0.8382
10562TIP3    H153101   0.778   2.979  12.159  0.0440 -0.4674 -1.3773
10562TIP3    H253102   0.897   3.062  12.203 -0.9576  0.0892  0.3801
10563TIP3   OH253103   5.783   0.101  10.822  0.6014  0.1437 -0.2744
10563TIP3    H153104   5.733   0.028  10.787 -0.1662  0.4904  0.0619
10563TIP3    H253105   5.758   0.176  10.767 -1.1425  0.8485  1.3440
10564TIP3   OH253106   4.700   3.189   1.630 -0.4427  0.5418 -0.3586
10564TIP3    H153107   4.758   3.116   1.651  0.0398  0.9974 -0.0802
10564TIP3    H253108   4.664   3.216   1.715 -0.3686  0.8328 -0.4187
10565TIP3   OH253109   4.289   3.436   1.780  0.3004 -0.0988  0.1909
10565TIP3    H153110   4.217   3.373   1.783  1.8120 -1.9150  1.4117
10565TIP3    H253111   4.324   3.429   1.692 -0.0843 -0.3397  0.0567
10566TIP3   OH253112   0.845   3.408  13.225 -0.9671 -0.4121  0.1754
10566TIP3    H153113   0.892   3.326  13.240 -0.3773  0.1825  1.6941
10566TIP3    H253114   0.907   3.463  13.177 -0.3374  0.0953  1.5150
10567TIP3   OH253115   2.997   1.301   4.193 -0.1169  0.1932  0.6172
10567TIP3    H153116   3.060   1.263   4.254 -0.3734 -0.5414  0.4300
10567TIP3    H253117   2.923   1.328   4.247  0.0694  0.4294  0.7518
10568TIP3   OH253118   3.414   1.208  14.418 -0.1217  0.0473 -0.0312
10568TIP3    H153119   3.488   1.181  14.472 -0.1962 -2.3467 -1.0073
10568TIP3    H253120   3.339   1.209  14.478 -0.0729 -1.8624  0.0993
10569TIP3   OH253121   3.120   4.681  15.060  0.0261  0.3104  0.2109
10569TIP3    H153122   3.090   4.770  15.079 -0.9995 -0.1664  0.8724
10569TIP3    H253123   3.216   4.688  15.061 -0.0375  1.3388  0.5485
10570TIP3   OH253124   1.694   1.086   2.492  0.4226  0.0524  0.1040
10570TIP3    H153125   1.695   1.156   2.557 -0.4224 -0.3986  0.6179
10570TIP3    H253126   1.608   1.091   2.451  0.5826 -0.2946 -0.2873
10571TIP3   OH253127   3.614   3.027  13.785 -0.2680 -0.1817 -0.5910
10571TIP3    H153128   3.659   2.966  13.726  1.5693  1.2469 -0.7459
10571TIP3    H253129   3.651   3.007  13.871 -1.9549 -1.3348 -0.0722
10572TIP3   OH253130   2.370   5.914   0.881  0.0530  0.2300 -0.1125
10572TIP3    H153131   2.367   5.819   0.882 -2.8492  0.2119 -0.3598
10572TIP3    H253132   2.443   5.936   0.823  1.0610 -1.7980  0.2959
10573TIP3   OH253133   4.118   6.539  15.291  0.1299  0.2931 -0.5074
10573TIP3    H153134   4.087   6.622  15.327  2.0439  0.5919  0.5998
10573TIP3    H253135   4.195   6.517  15.344  0.4907 -1.4883 -1.6729
10574TIP3   OH253136   1.347   1.794  17.089  0.5868 -0.3370 -0.4927
10574TIP3    H153137   1.361   1.822  16.999 -0.1713  0.7561 -0.3053
10574TIP3    H253138   1.350   1.875  17.140 -0.5261 -0.7362  0.2530
10575TIP3   OH253139   3.887   6.366   3.347  0.3857 -0.0774  0.3277
10575TIP3    H153140   3.818   6.386   3.409  0.3530 -2.5633  1.1974
10575TIP3    H253141   3.954   6.321   3.398  0.8327 -1.2636 -1.2050
10576TIP3   OH253142   4.461   2.679  12.479  0.5902 -0.0270 -0.0706
10576TIP3    H153143   4.474   2.637  12.394 -0.8818 -1.3416  0.2913
10576TIP3    H253144   4.370   2.706  12.479  0.4455 -0.4144  1.2203
10577TIP3   OH253145   3.040   5.123   0.832  0.3437 -0.2773  0.5399
10577TIP3    H153146   2.988   5.192   0.873 -1.0556  0.1469 -1.7558
10577TIP3    H253147   3.118   5.167   0.799  0.3152 -0.1495  0.6447
10578TIP3   OH253148   2.490   2.247   5.010 -0.3064  0.4427 -0.0801
10578TIP3    H153149   2.498   2.222   5.102  3.6037 -1.2856 -0.6503
10578TIP3    H253150   2.471   2.165   4.964  0.0991  0.8204 -0.9565
10579TIP3   OH253151   6.217   6.506   6.127 -0.5277  0.7994 -0.3214
10579TIP3    H153152   6.161   6.429   6.141 -1.1018  1.2676 -0.0053
10579TIP3    H253153   6.287   6.474   6.070 -0.9530  0.1250 -0.4845
10580TIP3   OH253154   5.418   1.066  11.632  0.2475 -0.5055 -0.0202
10580TIP3    H153155   5.493   1.086  11.577 -0.4222 -0.5402 -0.9859
10580TIP3    H253156   5.444   1.092  11.720  0.4952  1.8207 -0.7236
10581TIP3   OH253157   5.092   2.912  15.068 -0.4617  0.0002 -0.0844
10581TIP3    H153158   4.999   2.933  15.056 -0.7077 -0.3075  1.1363
10581TIP3    H253159   5.110   2.845  15.002 -0.9200  0.5666 -0.7952
10582TIP3   OH253160   4.355   2.667  15.120 -0.0414  0.3266 -0.1528
10582TIP3    H153161   4.394   2.660  15.033 -0.5561 -1.8768 -0.2809
10582TIP3    H253162   4.426   2.694  15.177  0.4983  0.9938 -1.1303
10583TIP3   OH253163   1.589   1.862   5.503  0.1727  0.7329 -0.0231
10583TIP3    H153164   1.545   1.920   5.441  2.2069  1.8429 -0.5139
10583TIP3    H253165   1.681   1.888   5.499  1.2080 -2.4929 -0.2286
10584TIP3   OH253166   2.211   4.833  12.741 -0.4537 -0.7069 -0.0347
10584TIP3    H153167   2.235   4.859  12.652 -2.8135  1.1301 -0.2263
10584TIP3    H253168   2.252   4.899  12.797  1.6530 -2.2737  0.4058
10585TIP3   OH253169   0.199   5.822  16.513  0.1912  0.2150  0.6094
10585TIP3    H153170   0.193   5.914  16.486  0.0685 -0.2367 -0.9671
10585TIP3    H253171   0.286   5.795  16.488 -0.8817 -1.0223 -2.1350
10586TIP3   OH253172   1.388   1.619  13.094  0.0400  0.7343 -0.6494
10586TIP3    H153173   1.426   1.577  13.172  1.8958  0.6798 -1.5341
10586TIP3    H253174   1.317   1.560  13.068  0.6085 -0.2286 -0.0821
10587TIP3   OH253175   6.276   1.692  16.978  0.1431  0.3872  0.1436
10587TIP3    H153176   6.181   1.703  16.971  0.2573  1.7733  0.4424
10587TIP3    H253177   6.289   1.644  17.059 -0.3370 -0.6609 -0.3828
10588TIP3   OH253178   1.971   3.678  16.377 -0.4192 -0.2743  0.0998
10588TIP3    H153179   1.908   3.617  16.417 -2.0556  2.0191  1.2505
10588TIP3    H253180   2.012   3.722  16.451 -0.6492  1.3127 -0.6862
10589TIP3   OH253181   4.883   5.323  14.222  0.3132  0.1665  0.3202
10589TIP3    H153182   4.794   5.288  14.222  0.0420  0.7115 -2.0068
10589TIP3    H253183   4.872   5.417  14.236  0.4820  0.2865 -0.3280
10590TIP3   OH253184   3.075   0.620  12.522  0.1576 -0.0284  0.2088
10590TIP3    H153185   3.075   0.701  12.574 -1.7675 -0.5519  1.1304
10590TIP3    H253186   3.068   0.650  12.431  0.0741  0.8569  0.5000
10591TIP3   OH253187   5.768   3.346   4.026  0.1217  0.2096  0.0010
10591TIP3    H153188   5.700   3.366   3.961  1.6290  1.8691 -1.1541
10591TIP3    H253189   5.823   3.424   4.029  1.4344 -0.7039  1.6211
10592TIP3   OH253190   6.232   0.511  12.363 -0.3115 -0.3638 -0.1040
10592TIP3    H153191   6.245   0.463  12.445  0.7887 -1.1602 -0.7137
10592TIP3    H253192   6.281   0.461  12.298 -1.3824  0.1055 -1.3137
10593TIP3   OH253193   6.053   4.234   3.658 -0.4134  0.0370  0.0385
10593TIP3    H153194   5.958   4.228   3.656 -0.5233  1.2942  0.8343
10593TIP3    H253195   6.074   4.312   3.606  0.2985 -0.9770 -1.2909
10594TIP3   OH253196   6.442   0.516  16.130  0.2840 -0.0860 -0.5346
10594TIP3    H153197   6.535   0.532  16.111  0.1442  1.2611 -0.2211
10594TIP3    H253198   6.401   0.510  16.043  0.6037 -0.2987 -0.6732
10595TIP3   OH253199   0.037   2.304   0.785  0.1178  0.0828 -1.0121
10595TIP3    H153200  -0.057   2.306   0.770  0.1762  0.7168 -1.3451
10595TIP3    H253201   0.069   2.387   0.750  0.4210  1.1620  1.5908
10596TIP3   OH253202   1.906   1.269   0.760  0.1091 -0.2820 -0.2380
10596TIP3    H153203   1.835   1.208   0.741 -0.0954 -0.1175 -0.0191
10596TIP3    H253204   1.866   1.333   0.819  0.2614  0.1896 -0.6477
10597TIP3   OH253205   2.658   1.183   5.427  0.6695  0.3431  0.4666
10597TIP3    H153206   2.578   1.183   5.481 -0.8165 -1.0761 -1.5885
10597TIP3    H253207   2.632   1.227   5.346  1.4755 -1.5071 -0.8636
10598TIP3   OH253208   0.224   2.378  14.444 -0.5336  0.4758  0.0011
10598TIP3    H153209   0.294   2.364  14.380  0.0903  1.8611  0.3484
10598TIP3    H253210   0.262   2.353  14.528 -0.2843  1.5815  0.2453
10599TIP3   OH253211   3.314   4.778   3.090 -0.1010 -0.5596  0.6116
10599TIP3    H153212   3.312   4.830   3.009 -0.0599 -0.3163  0.7653
10599TIP3    H253213   3.395   4.728   3.084 -0.3727 -0.9596  0.2450
10600TIP3   OH253214   4.600   1.610  11.414 -0.0023 -0.3044 -0.6665
10600TIP3    H153215   4.666   1.669  11.378  1.7828 -0.5193  2.0100
10600TIP3    H253216   4.529   1.668  11.441  1.0560  0.5007  0.4988
10601TIP3   OH253217   4.275   0.727  12.486 -0.0072 -0.4175 -0.5732
10601TIP3    H153218   4.328   0.694  12.558 -0.3751 -0.9606 -0.5440
10601TIP3    H253219   4.291   0.821  12.485  0.6078 -0.5156 -0.2840
10602TIP3   OH253220   2.426   3.650  14.057 -0.4760 -0.3673 -0.8899
10602TIP3    H153221   2.398   3.559  14.064 -1.1731 -0.1438 -0.6608
10602TIP3    H253222   2.518   3.646  14.030 -0.3170 -1.1377 -0.2369
10603TIP3   OH253223   4.680   2.994  14.749 -0.0440  0.4387 -0.6143
10603TIP3    H153224   4.606   2.935  14.739  0.4635 -0.3339  0.0700
10603TIP3    H253225   4.653   3.075  14.704 -1.5284  0.3998  0.1645
10604TIP3   OH253226   2.895   0.231  14.201 -0.3873 -0.0752  0.1830
10604TIP3    H153227   2.922   0.294  14.135 -0.4292 -0.4539 -0.1988
10604TIP3    H253228   2.960   0.160  14.195  0.2319  0.3750  1.2767
10605TIP3   OH253229   5.731   5.845   4.713  0.1011 -0.2118  0.2548
10605TIP3    H153230   5.812   5.894   4.700 -0.7446  0.7766 -1.7775
10605TIP3    H253231   5.666   5.913   4.736 -0.4209 -0.8199  0.6147
10606TIP3   OH253232   3.431   2.033   2.284 -0.0297 -0.4621 -0.0572
10606TIP3    H153233   3.490   1.958   2.291 -0.3535 -0.7755 -0.5549
10606TIP3    H253234   3.433   2.074   2.370  2.2294  0.5557 -0.5207
10607TIP3   OH253235   2.914   0.526   3.062 -0.2100 -0.0963  0.4033
10607TIP3    H153236   2.820   0.539   3.057 -0.0679  0.5180 -1.5929
10607TIP3    H253237   2.947   0.603   3.109 -0.6784 -0.2336  0.9630
10608TIP3   OH253238   0.584   3.764   4.625 -0.1539  0.0286  0.3114
10608TIP3    H153239   0.599   3.762   4.531 -0.8600  0.0467  0.1919
10608TIP3    H253240   0.577   3.857   4.646 -0.6742 -0.0003  0.2677
10609TIP3   OH253241   1.713   3.277  13.112 -0.0302 -0.5774 -0.3642
10609TIP3    H153242   1.791   3.326  13.085  0.3776 -1.2622 -0.4466
10609TIP3    H253243   1.642   3.342  13.110  0.4678 -0.0313 -0.6282
10610TIP3   OH253244   5.035   2.748   0.091  0.6613  0.4537  0.0503
10610TIP3    H153245   5.101   2.695   0.046 -1.6619 -1.1545 -1.6836
10610TIP3    H253246   4.976   2.685   0.131 -1.5160  1.6926 -1.0361
10611TIP3   OH253247   6.051   3.638  17.176  0.1769 -0.8421  0.3020
10611TIP3    H153248   6.004   3.681  17.247  1.4750  0.6255  0.3201
10611TIP3    H253249   6.142   3.633  17.206  0.6420 -0.7164 -1.0028
10612TIP3   OH253250   5.381   0.317   0.563  0.0237 -0.1519  0.3982
10612TIP3    H153251   5.307   0.267   0.598  0.7476 -0.5746  1.3635
10612TIP3    H253252   5.389   0.287   0.472  1.0527 -2.6040  1.2026
10613TIP3   OH253253   1.127   0.503   6.412  0.0259  0.3227  0.0179
10613TIP3    H153254   1.043   0.459   6.417 -0.1496  0.7526  1.0303
10613TIP3    H253255   1.189   0.434   6.385  0.1375 -1.1426  3.5032
10614TIP3   OH253256   2.763   0.231   3.872 -0.0411 -0.3602 -1.1189
10614TIP3    H153257   2.755   0.213   3.966  0.0083 -1.1312 -1.2548
10614TIP3    H253258   2.748   0.325   3.864 -3.1395 -0.6880 -0.6639
10615TIP3   OH253259   4.657   6.744  15.571  0.1204 -0.0590 -0.3804
10615TIP3    H153260   4.724   6.696  15.618  1.0097  1.6254  0.1483
10615TIP3    H253261   4.637   6.689  15.495  0.7231 -1.4672  0.4446
10616TIP3   OH253262   3.873   6.253   1.694  0.0625  0.6255 -0.3268
10616TIP3    H153263   3.890   6.247   1.600 -2.1297 -0.2977 -0.7348
10616TIP3    H253264   3.777   6.246   1.702  0.0764  1.8601  1.9014
10617TIP3   OH253265   3.413   6.713  16.875 -0.3012 -0.3415  0.1759
10617TIP3    H153266   3.321   6.702  16.897 -0.5341 -0.7863 -0.9404
10617TIP3    H253267   3.412   6.760  16.792  0.4865 -0.1177  0.2897
10618TIP3   OH253268   3.222   0.979  10.302  0.6298 -0.3412  0.7983
10618TIP3    H153269   3.274   1.057  10.287 -0.5510  0.4211  0.5327
10618TIP3    H253270   3.180   0.994  10.387  0.1885 -0.5630  0.6223
10619TIP3   OH253271   5.993   3.146  11.457  0.9413  0.0741  0.2043
10619TIP3    H153272   5.980   3.157  11.551  0.1198 -0.4424  0.1682
10619TIP3    H253273   6.018   3.233  11.425  3.3398 -0.1824  1.1927
10620TIP3   OH253274   6.659   0.221   1.590  0.6084 -0.1403 -0.4711
10620TIP3    H153275   6.721   0.252   1.656 -1.3595  0.2429  1.2701
10620TIP3    H253276   6.674   0.278   1.514  2.1392  0.1374  0.0148
10621TIP3   OH253277   3.457   1.576  11.727  0.5418  0.9003  0.0610
10621TIP3    H153278   3.464   1.542  11.816 -0.8085 -1.5284 -0.6738
10621TIP3    H253279   3.364   1.594  11.716  0.5676  0.4160 -1.0907
10622TIP3   OH253280   0.598   1.590   3.727 -0.0271 -0.4458  0.1029
10622TIP3    H153281   0.681   1.563   3.765 -0.5495  0.0200  1.6302
10622TIP3    H253282   0.531   1.558   3.787 -0.7528  2.7685  1.2349
10623TIP3   OH253283   5.785   5.209  13.188 -0.2628  0.1559  0.2378
10623TIP3    H153284   5.694   5.238  13.195 -1.0378 -2.0792  0.1797
10623TIP3    H253285   5.808   5.224  13.096 -0.6448  0.5176  0.1965
10624TIP3   OH253286   3.471   1.320  13.017 -0.2545  0.0930  0.2470
10624TIP3    H153287   3.531   1.351  12.949 -0.4215 -0.9650 -0.3997
10624TIP3    H253288   3.436   1.400  13.056 -0.1700  0.7245 -0.9218
10625TIP3   OH253289   4.644   4.725   0.279  0.4277  0.4590  0.4742
10625TIP3    H153290   4.657   4.785   0.205  1.1103  1.5109  1.4069
10625TIP3    H253291   4.632   4.639   0.239 -0.6987  1.2204 -0.9180
10626TIP3   OH253292   6.578   6.741  12.630 -0.1105  0.6504 -0.3057
10626TIP3    H153293   6.672   6.741  12.648 -0.0499  0.2544 -0.6168
10626TIP3    H253294   6.551   6.650  12.643 -0.2739  0.5731 -1.1257
10627TIP3   OH253295   3.196   4.578  13.515  0.1737  0.3542 -0.3227
10627TIP3    H153296   3.132   4.633  13.560  1.0289  0.3553  0.9322
10627TIP3    H253297   3.197   4.496  13.564 -0.7595 -0.6607 -1.9095
10628TIP3   OH253298   0.284   3.785   6.730  0.0991  0.1581  0.2246
10628TIP3    H153299   0.294   3.734   6.810 -0.8818 -1.5156 -0.6757
10628TIP3    H253300   0.321   3.730   6.661 -1.8770  0.1879 -0.9186
10629TIP3   OH253301   5.872   1.290  14.263  0.2234 -0.1374 -0.1645
10629TIP3    H153302   5.850   1.383  14.268  1.7301  0.1827  2.8080
10629TIP3    H253303   5.799   1.246  14.307  0.3227 -0.1619 -0.0223
10630TIP3   OH253304   0.383   6.310  10.664  0.2143  0.1526  0.0091
10630TIP3    H153305   0.301   6.276  10.700  0.8691 -0.7693  0.6969
10630TIP3    H253306   0.359   6.349  10.581 -0.7433 -1.2574 -0.4086
10631TIP3   OH253307   5.540   4.477   5.213  0.1000 -0.9059 -0.7296
10631TIP3    H153308   5.582   4.563   5.220 -2.1549  0.1709  0.4589
10631TIP3    H253309   5.594   4.420   5.269  0.4441  0.2314  0.1507
10632TIP3   OH253310   5.669   6.663  16.545 -0.5538  0.1227  0.1102
10632TIP3    H153311   5.666   6.749  16.587 -2.2502  1.0858 -1.8121
10632TIP3    H253312   5.668   6.682  16.451  2.9258 -1.9441 -0.5009
10633TIP3   OH253313   5.949   5.883  16.587  0.2375 -0.4652  0.0513
10633TIP3    H153314   6.009   5.909  16.657 -0.6744 -0.0018  0.6817
10633TIP3    H253315   5.981   5.798  16.558  0.1331 -1.0821  1.6472
10634TIP3   OH253316   4.135   0.193  12.752 -0.1265  0.0978  0.2957
10634TIP3    H153317   4.167   0.116  12.704  1.6848  0.7021  0.4443
10634TIP3    H253318   4.059   0.162  12.800 -1.2196 -0.8705 -1.9212
10635TIP3   OH253319   0.317   1.026  16.170  0.0562 -1.1439  0.1839
10635TIP3    H153320   0.367   1.108  16.172  0.0938 -1.1655  0.1488
10635TIP3    H253321   0.234   1.046  16.213  0.2350 -1.1991  0.5615
10636TIP3   OH253322   3.091   3.775   0.012 -0.3049 -0.5165  0.5329
10636TIP3    H153323   3.037   3.812   0.081 -0.5798  0.1101 -0.0097
10636TIP3    H253324   3.029   3.747  -0.055  0.0669  2.1161 -1.0391
10637TIP3   OH253325   0.481   5.684  16.552  0.3387  0.1810 -0.1114
10637TIP3    H153326   0.491   5.718  16.641  0.7443  1.3602 -0.5876
10637TIP3    H253327   0.514   5.754  16.496  1.4212 -1.0931 -1.1343
10638TIP3   OH253328   5.482   1.988  10.640  0.5188  0.0496 -0.3115
10638TIP3    H153329   5.417   1.947  10.697 -1.8658  0.8986 -2.2366
10638TIP3    H253330   5.465   2.082  10.648  1.5704  0.2947 -0.8220
10639TIP3   OH253331   1.271   2.160  13.199  0.4915  0.9110 -0.2064
10639TIP3    H153332   1.259   2.078  13.151 -0.2632  0.5821  0.5231
10639TIP3    H253333   1.308   2.220  13.135  2.0260 -0.2856 -0.5072
10640TIP3   OH253334   5.473   2.969   5.880  0.3615 -0.3501  0.2012
10640TIP3    H153335   5.460   3.007   5.793  1.4944  2.1996  1.0472
10640TIP3    H253336   5.388   2.933   5.904 -0.6650  1.1844 -0.9469
10641TIP3   OH253337   0.629   3.582   0.974 -0.0777 -0.3785  0.2405
10641TIP3    H153338   0.674   3.663   0.996 -0.0224 -0.3694  0.0972
10641TIP3    H253339   0.654   3.521   1.043 -0.4812 -0.1417  0.5952
10642TIP3   OH253340   3.174   1.668   1.609 -0.3264 -0.0211  0.1042
10642TIP3    H153341   3.267   1.662   1.633 -0.3650  0.0154  0.2613
10642TIP3    H253342   3.129   1.621   1.680 -0.4156 -0.1603 -0.0452
10643TIP3   OH253343   3.421   6.268  17.106  0.3192 -0.1558 -0.3799
10643TIP3    H153344   3.511   6.280  17.077  0.7650 -0.3824  0.8566
10643TIP3    H253345   3.400   6.347  17.154  0.7027 -1.0757  1.3747
10644TIP3   OH253346   2.451   6.049   2.174  0.0750  0.0023 -0.7620
10644TIP3    H153347   2.437   5.968   2.224 -0.5513 -1.3771 -3.0157
10644TIP3    H253348   2.364   6.089   2.169  0.4735  1.1449  0.7864
10645TIP3   OH253349   3.385   2.765  13.658  0.4712 -0.2027  0.0186
10645TIP3    H153350   3.404   2.751  13.751 -2.2944 -2.0694  0.4223
10645TIP3    H253351   3.447   2.710  13.611  3.3406  2.3356  0.4946
10646TIP3   OH253352   0.128   5.165   6.043  0.3704  0.4999 -0.3449
10646TIP3    H153353   0.064   5.174   6.114  0.9396 -1.1133  0.4210
10646TIP3    H253354   0.130   5.071   6.024  3.4866  0.2607  0.6289
10647TIP3   OH253355   2.163   3.062  16.264 -0.1312  0.5276  0.0796
10647TIP3    H153356   2.213   3.143  16.254 -0.6900  0.8316 -0.2799
10647TIP3    H253357   2.131   3.042  16.176 -1.6304  0.9808  0.4943
10648TIP3   OH253358   0.005   1.217  14.060  0.1003 -0.1806  0.5896
10648TIP3    H153359   0.080   1.275  14.076  1.0748 -0.7354 -1.6229
10648TIP3    H253360   0.043   1.136  14.027 -1.3679 -1.4056  1.7719
10649TIP3   OH253361   5.280   0.981  14.416  0.6648  0.2014 -0.2445
10649TIP3    H153362   5.253   0.994  14.325  0.0258 -0.3105 -0.1339
10649TIP3    H253363   5.316   0.893  14.418  1.6495  0.5906 -0.2149
10650TIP3   OH253364   1.366   1.055   2.684 -0.0868  0.0411 -0.5088
10650TIP3    H153365   1.406   0.969   2.676  1.0668  0.4984 -0.0242
10650TIP3    H253366   1.381   1.096   2.599  0.9893  0.3898 -0.1782
10651TIP3   OH253367   1.327   5.073  14.163 -0.1518 -0.2530  0.6657
10651TIP3    H153368   1.303   5.040  14.250 -1.8092 -1.4934 -0.2061
10651TIP3    H253369   1.408   5.027  14.142 -1.8278 -3.1317 -0.0489
10652TIP3   OH253370   2.910   5.412  16.048  0.4390 -0.1813 -0.3611
10652TIP3    H153371   2.840   5.434  15.986  0.1069  0.9846  0.3881
10652TIP3    H253372   2.971   5.486  16.042  0.0213  0.3180  1.2100
10653TIP3   OH253373   0.871   4.129  14.548  0.4417 -0.3220  0.0943
10653TIP3    H153374   0.810   4.064  14.512  0.0164 -0.4771  1.0572
10653TIP3    H253375   0.927   4.153  14.474 -1.4652  0.6389 -1.1117
10654TIP3   OH253376   4.796   3.317   3.402 -0.1713 -0.6731  0.4490
10654TIP3    H153377   4.815   3.375   3.329 -0.3820 -1.1369  0.0184
10654TIP3    H253378   4.878   3.270   3.417  0.0103 -0.2356  0.8220
10655TIP3   OH253379   2.735   0.765   0.687  0.3563  0.1439 -0.7184
10655TIP3    H153380   2.675   0.836   0.709 -0.7995 -1.0119  0.0173
10655TIP3    H253381   2.720   0.749   0.594  0.3807  0.6296 -0.8084
10656TIP3   OH253382   0.487   1.970  16.957 -0.5599 -0.3634  0.2558
10656TIP3    H153383   0.399   1.941  16.935 -0.1350 -1.6340  0.1563
10656TIP3    H253384   0.545   1.908  16.913  0.4050  0.6423  0.0473
10657TIP3   OH253385   2.283   3.332  15.049  0.3157 -0.4820  0.4857
10657TIP3    H153386   2.251   3.268  15.113 -0.1335 -0.5062  0.2454
10657TIP3    H253387   2.203   3.371  15.013  0.5647  2.0555  2.4443
10658TIP3   OH253388   6.675   0.688  12.710  0.3287 -0.3991  0.1180
10658TIP3    H153389   6.728   0.768  12.708  1.2807 -0.9948  0.4208
10658TIP3    H253390   6.653   0.671  12.618  0.0749  0.2326  0.0600
10659TIP3   OH253391   5.854   5.866   3.650 -0.5774  0.9300  0.4168
10659TIP3    H153392   5.826   5.929   3.584 -0.0577  2.0844  1.2614
10659TIP3    H253393   5.872   5.786   3.601 -0.2445  1.7465 -0.8242
10660TIP3   OH253394   1.424   3.136  16.956  0.5878  0.4430 -0.0420
10660TIP3    H153395   1.492   3.167  16.896  1.9880 -0.8887  0.7717
10660TIP3    H253396   1.355   3.102  16.898  0.0783  2.7412 -0.8929
10661TIP3   OH253397   0.986   5.651  14.292 -0.4023  0.0929  0.2869
10661TIP3    H153398   1.059   5.712  14.302 -0.1847 -0.1508  0.2112
10661TIP3    H253399   0.970   5.618  14.380 -0.9745  0.7669  0.4482
10662TIP3   OH253400   2.719   6.330   3.959  0.2779  0.1571  0.4141
10662TIP3    H153401   2.696   6.418   3.929  1.1153  0.2179 -0.1023
10662TIP3    H253402   2.664   6.315   4.036 -1.7467  0.1139 -0.9700
10663TIP3   OH253403   6.338   1.337   2.264 -0.2727  0.3401 -0.3131
10663TIP3    H153404   6.381   1.279   2.200  0.8028  0.1071  0.5846
10663TIP3    H253405   6.397   1.411   2.273 -0.8950  0.8416 -0.3068
10664TIP3   OH253406   4.532   1.709  17.289  0.1125  0.3526 -0.1029
10664TIP3    H153407   4.543   1.656  17.368  0.5118 -0.4198 -0.6597
10664TIP3    H253408   4.448   1.754  17.301 -0.4670 -0.7701  0.1808
10665TIP3   OH253409   3.007   6.565   1.762 -0.5081 -0.5600 -0.2260
10665TIP3    H153410   2.973   6.640   1.712 -0.0239 -0.9097 -1.1050
10665TIP3    H253411   2.992   6.490   1.705 -0.9290 -1.1324  0.6242
10666TIP3   OH253412   2.431   4.266   5.209 -0.3939  0.3802  0.3527
10666TIP3    H153413   2.425   4.361   5.211  2.2824  0.6338  0.4247
10666TIP3    H253414   2.474   4.242   5.291  1.1027 -0.6103 -0.6510
10667TIP3   OH253415   2.153   6.670   3.201 -0.5170 -0.6388 -1.0931
10667TIP3    H153416   2.178   6.597   3.258 -0.2839  0.7238  0.6343
10667TIP3    H253417   2.061   6.685   3.221 -0.0355  0.8781  0.2113
10668TIP3   OH253418   1.785   0.679   3.572 -0.5508 -0.3900  0.0193
10668TIP3    H153419   1.802   0.593   3.612  1.6809  0.0988  0.2626
10668TIP3    H253420   1.833   0.740   3.628 -0.5448  0.7824 -1.2422
10669TIP3   OH253421   5.655   3.627   0.917  0.5173 -0.2858 -0.4948
10669TIP3    H153422   5.571   3.673   0.925  0.3638 -0.0549 -2.7262
10669TIP3    H253423   5.720   3.692   0.943  0.0804 -0.1384  0.2714
10670TIP3   OH253424   5.521   3.189   4.807  0.0695 -0.2218  0.2397
10670TIP3    H153425   5.583   3.218   4.874  1.1798 -1.6362 -0.1274
10670TIP3    H253426   5.554   3.226   4.725 -0.2131 -0.0568  0.1990
10671TIP3   OH253427   1.307   6.356  12.371  0.1838  0.6888  0.0758
10671TIP3    H153428   1.288   6.274  12.327  3.7014 -0.3819  0.2845
10671TIP3    H253429   1.379   6.394  12.321  1.5127  1.4761  2.4319
10672TIP3   OH253430   6.266   4.377   0.893  0.1886  0.1582  0.4237
10672TIP3    H153431   6.341   4.317   0.889  1.0215  1.1058  1.2669
10672TIP3    H253432   6.228   4.374   0.805  1.0099 -0.5950  0.0822
10673TIP3   OH253433   5.738   5.349  13.745  0.5096  0.0851 -0.3753
10673TIP3    H153434   5.712   5.399  13.667 -1.0119 -0.6449 -0.3728
10673TIP3    H253435   5.677   5.275  13.747 -0.4982  0.8883  2.3362
10674TIP3   OH253436   6.724   4.246   1.410 -0.7752 -0.2195  0.1058
10674TIP3    H153437   6.655   4.311   1.411 -2.4099 -1.8065 -1.5855
10674TIP3    H253438   6.680   4.164   1.433  0.8769 -1.0349  0.5449
10675TIP3   OH253439   3.199   3.791  13.493  0.4125  0.6938  0.7567
10675TIP3    H153440   3.266   3.737  13.534 -0.2142 -0.4019  0.3940
10675TIP3    H253441   3.170   3.851  13.562 -0.2386 -0.7416  1.7688
10676TIP3   OH253442   2.111   2.863  15.663 -0.3359  0.3960  0.1895
10676TIP3    H153443   2.135   2.786  15.612 -1.1146  0.3288 -0.0939
10676TIP3    H253444   2.091   2.829  15.750 -0.8008  0.2549  0.0305
10677TIP3   OH253445   2.802   5.220  17.318  0.5927 -0.3345 -0.0546
10677TIP3    H153446   2.809   5.131  17.352 -1.1660 -0.0472  1.2024
10677TIP3    H253447   2.865   5.271  17.370 -0.3325 -0.3723  1.1667
10678TIP3   OH253448   0.261   5.264  15.916  0.2137  0.2199  0.3708
10678TIP3    H153449   0.320   5.223  15.980  1.9465  1.3917 -0.4046
10678TIP3    H253450   0.293   5.354  15.909 -0.8209  0.4927 -1.1147
10679TIP3   OH253451   2.679   5.072  11.939 -0.2094 -0.4384  0.4906
10679TIP3    H153452   2.759   5.124  11.931  0.5351 -1.6299 -0.1028
10679TIP3    H253453   2.683   5.011  11.866 -0.2131 -2.4395  2.0586
10680TIP3   OH253454   2.598   3.234  16.430 -0.1199 -0.5913 -0.3504
10680TIP3    H153455   2.591   3.311  16.374 -0.6234  0.0431  0.5625
10680TIP3    H253456   2.674   3.187  16.396  0.9749  0.9581 -0.1595
10681TIP3   OH253457   2.114   2.536   1.746  0.2555 -0.1173 -0.3042
10681TIP3    H153458   2.160   2.612   1.709 -2.1074  1.1331 -0.8706
10681TIP3    H253459   2.085   2.566   1.833  3.9042 -2.3122  1.9398
10682TIP3   OH253460   4.719   3.712  14.446  0.0543  0.5415 -0.5870
10682TIP3    H153461   4.652   3.770  14.411  0.0725  0.1196 -1.3537
10682TIP3    H253462   4.756   3.759  14.521 -0.1361  1.3775 -1.0119
10683TIP3   OH253463   6.575   4.252   2.580  0.0482 -0.3564  0.3199
10683TIP3    H153464   6.567   4.161   2.607 -0.0069 -0.2014  0.8309
10683TIP3    H253465   6.489   4.276   2.547  1.0803 -1.8303 -4.1660
10684TIP3   OH253466   3.519   5.533   6.684 -0.1833 -0.3454  0.2623
10684TIP3    H153467   3.498   5.586   6.761  0.5745  0.6678 -0.2041
10684TIP3    H253468   3.437   5.530   6.634 -0.1780  0.5978  0.1826
10685TIP3   OH253469   3.395   5.659  11.992  0.2874 -0.2574 -0.2674
10685TIP3    H153470   3.360   5.618  11.913  0.2886  1.1574 -1.0331
10685TIP3    H253471   3.343   5.622  12.064 -1.3523  0.2232 -1.1690
10686TIP3   OH253472   5.716   5.355   5.526  0.9638 -0.4725  0.2767
10686TIP3    H153473   5.788   5.330   5.584  1.9796 -0.0620 -0.7583
10686TIP3    H253474   5.758   5.373   5.442 -0.3956 -0.5273 -0.4516
10687TIP3   OH253475   0.474   1.699  16.651 -0.1558 -0.2444  0.2554
10687TIP3    H153476   0.476   1.605  16.635  1.0803 -0.1892 -0.0572
10687TIP3    H253477   0.448   1.737  16.568  0.5412 -0.2554  0.0278
10688TIP3   OH253478   2.861   3.688  17.329 -0.0150 -0.1732  0.2354
10688TIP3    H153479   2.822   3.686  17.417 -0.2604  1.4013  0.1950
10688TIP3    H253480   2.807   3.627  17.278  0.5783 -1.6635  1.3194
10689TIP3   OH253481   0.031   1.890  14.952 -0.2805 -0.1603 -0.3771
10689TIP3    H153482   0.105   1.881  15.012  0.5922  1.8063 -1.0771
10689TIP3    H253483   0.071   1.917  14.869 -1.7316  0.4470 -0.9074
10690TIP3   OH253484   1.708   1.065   0.653  0.0436  0.0637  0.3303
10690TIP3    H153485   1.770   1.029   0.590 -0.4472 -0.3580  0.0813
10690TIP3    H253486   1.638   1.103   0.599  0.2466  0.8522  0.6012
10691TIP3   OH253487   5.692   2.371  14.984 -0.6153 -0.2820  0.3899
10691TIP3    H153488   5.779   2.405  15.000  0.0405 -1.2938 -0.8245
10691TIP3    H253489   5.705   2.299  14.921 -2.3501 -0.1747 -0.1566
10692TIP3   OH253490   1.359   6.451   1.372 -0.3004  0.4084  0.5767
10692TIP3    H153491   1.426   6.518   1.389 -0.9487  1.0093  0.8222
10692TIP3    H253492   1.409   6.372   1.351  0.4944  1.3369 -1.2784
10693TIP3   OH253493   1.996   1.119   5.379  0.2130  0.5769 -0.6544
10693TIP3    H153494   2.006   1.099   5.472 -0.7947  1.2366 -0.3885
10693TIP3    H253495   2.005   1.035   5.335 -1.9160 -0.1975  0.2741
10694TIP3   OH253496   0.454   5.899  11.654 -0.4805 -0.2371  0.3890
10694TIP3    H153497   0.416   5.956  11.587  0.6675 -0.4068 -0.4429
10694TIP3    H253498   0.403   5.819  11.650  1.0732 -1.2204 -2.0786
10695TIP3   OH253499   1.325   6.103  13.244  0.0732 -0.1094  0.5779
10695TIP3    H153500   1.255   6.166  13.260  0.3652  0.0252  1.3790
10695TIP3    H253501   1.360   6.127  13.159  0.5796  1.2071  1.1323
10696TIP3   OH253502   3.577   1.644   3.789 -0.2919 -0.1407  0.2364
10696TIP3    H153503   3.551   1.713   3.851 -1.3332 -0.2212 -0.0910
10696TIP3    H253504   3.495   1.601   3.766  0.2636 -1.0336 -0.1198
10697TIP3   OH253505   2.904   3.754   1.934 -0.2916  0.1908 -0.4615
10697TIP3    H153506   2.942   3.841   1.944  0.0227 -0.0880  1.0448
10697TIP3    H253507   2.969   3.706   1.882 -0.0867  0.6241 -0.6120
10698TIP3   OH253508   5.328   5.930   4.694 -0.5410 -0.0258 -0.0894
10698TIP3    H153509   5.245   5.954   4.734 -0.5209  0.0045 -0.0661
10698TIP3    H253510   5.326   5.834   4.691  0.5438 -0.1778  2.3182
10699TIP3   OH253511   1.875   2.209   6.286 -0.1542  0.4380  0.3878
10699TIP3    H153512   1.923   2.127   6.297 -0.9019  0.2060  2.3908
10699TIP3    H253513   1.801   2.202   6.346 -0.3823  2.4686  0.4269
10700TIP3   OH253514   6.375   4.938   5.198 -0.0368 -0.2144 -0.4820
10700TIP3    H153515   6.338   4.977   5.278 -1.3272 -1.8290 -0.2412
10700TIP3    H253516   6.442   4.878   5.229  2.1890  1.9477 -0.8703
10701TIP3   OH253517   1.009   1.925  11.456  0.5891  0.1235  0.4635
10701TIP3    H153518   0.928   1.972  11.477  1.2004  1.3752  0.1276
10701TIP3    H253519   1.077   1.972  11.505  1.5918  1.2358 -1.8611
10702TIP3   OH253520   1.714   3.730  11.647 -0.7268 -0.1645  0.6076
10702TIP3    H153521   1.664   3.662  11.601 -2.8234  0.5653  1.6721
10702TIP3    H253522   1.753   3.685  11.722 -0.6543 -0.5357  0.3477
10703TIP3   OH253523   2.831   4.173   2.033  0.1657 -0.5587  0.4917
10703TIP3    H153524   2.876   4.090   2.049 -0.4978 -0.5147  2.9928
10703TIP3    H253525   2.880   4.238   2.083  0.1968  0.4392 -0.7854
10704TIP3   OH253526   5.604   0.871   2.996 -0.3915 -0.5461  0.7662
10704TIP3    H153527   5.567   0.957   3.016  1.6216  0.0329  2.2522
10704TIP3    H253528   5.610   0.870   2.900 -0.0040  1.1899  0.7313
10705TIP3   OH253529   2.601   5.119   5.569 -0.6069  0.0477  0.2567
10705TIP3    H153530   2.615   5.212   5.584 -0.3970  0.3902 -1.7687
10705TIP3    H253531   2.675   5.076   5.612 -2.0073  0.5324  3.4030
10706TIP3   OH253532   3.833   1.858   3.385 -0.0752 -0.1794 -0.2087
10706TIP3    H153533   3.796   1.878   3.471 -0.4155  1.7803 -0.7589
10706TIP3    H253534   3.923   1.832   3.404  0.3533  1.7424  0.6738
10707TIP3   OH253535   4.847   1.637   1.918 -0.3536 -0.6889  0.3507
10707TIP3    H153536   4.906   1.563   1.915 -1.1059 -1.2787 -0.3547
10707TIP3    H253537   4.862   1.683   1.835 -0.2985 -0.3782  0.5325
10708TIP3   OH253538   4.058   6.187  14.479  0.0432 -0.0592  0.2474
10708TIP3    H153539   4.129   6.194  14.414  0.2770 -0.2285  0.4841
10708TIP3    H253540   4.079   6.254  14.544  0.4114 -0.6256  0.7232
10709TIP3   OH253541   2.833   5.114   4.658 -0.2809  0.0662  0.0116
10709TIP3    H153542   2.883   5.175   4.713  0.6685  1.0049 -1.7758
10709TIP3    H253543   2.862   5.134   4.569 -1.4210 -1.6913 -0.8054
10710TIP3   OH253544   5.233   6.203  11.999  0.1144  0.6257 -0.3215
10710TIP3    H153545   5.328   6.218  12.002  0.1984 -0.0156  0.4302
10710TIP3    H253546   5.218   6.165  11.913  0.7270 -0.4288  0.0237
10711TIP3   OH253547   6.493   1.891   6.452 -0.1900  0.4820  0.3463
10711TIP3    H153548   6.511   1.833   6.379  1.4336 -0.0791  1.1381
10711TIP3    H253549   6.572   1.945   6.460 -0.6218  1.0113  1.2493
10712TIP3   OH253550   3.068   2.029  14.135 -0.2573 -0.0974 -0.6702
10712TIP3    H153551   2.987   2.009  14.087 -0.5524 -0.4143 -0.0590
10712TIP3    H253552   3.038   2.053  14.223  0.4006 -2.2600  0.2149
10713TIP3   OH253553   2.239   3.065   0.117  0.3843  0.4533 -0.3456
10713TIP3    H153554   2.293   3.092   0.043 -1.0496  1.3144 -1.1049
10713TIP3    H253555   2.167   3.015   0.078 -2.1076  3.4714  0.0361
10714TIP3   OH253556   4.711   2.626  16.511  0.3494 -0.1578  0.2584
10714TIP3    H153557   4.748   2.660  16.429 -1.4481  1.1217 -0.0892
10714TIP3    H253558   4.745   2.685  16.579 -1.5760  1.5362 -0.1607
10715TIP3   OH253559   2.619   4.403  12.612  0.2266 -0.5522  0.3391
10715TIP3    H153560   2.552   4.405  12.680 -1.4773 -1.3962 -1.2300
10715TIP3    H253561   2.609   4.487  12.566 -0.8154 -1.2560 -0.7992
10716TIP3   OH253562   5.117   2.840  11.884 -0.1523 -0.7212 -0.3223
10716TIP3    H153563   5.079   2.831  11.797  0.3997 -0.5864 -0.5830
10716TIP3    H253564   5.173   2.918  11.877 -0.6463 -0.2946  0.3482
10717TIP3   OH253565   6.477   3.802  15.257 -0.3815 -0.4333  0.1409
10717TIP3    H153566   6.571   3.820  15.260 -0.2730 -0.4943 -1.7573
10717TIP3    H253567   6.436   3.884  15.286  0.2546  0.1455 -0.5372
10718TIP3   OH253568   3.500   0.256  12.250 -0.2087  0.3619  0.1037
10718TIP3    H153569   3.495   0.166  12.216 -1.9021 -0.3747  2.1482
10718TIP3    H253570   3.489   0.247  12.344 -1.7912  2.8386  0.2420
10719TIP3   OH253571   4.585   1.086   4.562 -0.1238  0.2932 -0.1067
10719TIP3    H153572   4.591   1.160   4.502 -0.0907 -0.0417 -0.5177
10719TIP3    H253573   4.608   1.009   4.509  0.3828  0.0504  0.4466
10720TIP3   OH253574   0.521   5.325  14.216  0.9673 -0.2868  0.3739
10720TIP3    H153575   0.431   5.354  14.202  0.3597 -2.7088 -1.5503
10720TIP3    H253576   0.575   5.392  14.175 -0.1646 -0.2220 -1.0815
10721TIP3   OH253577   3.947   2.733   1.282 -0.2708  0.3396 -0.5856
10721TIP3    H153578   3.909   2.781   1.355 -1.2048  0.4986 -1.1647
10721TIP3    H253579   4.040   2.725   1.305 -0.3781  1.1497  0.1945
10722TIP3   OH253580   2.417   2.252  14.087 -0.5372  0.1970  0.2464
10722TIP3    H153581   2.502   2.280  14.053 -0.5657  0.4647  0.3916
10722TIP3    H253582   2.372   2.213  14.012  0.1852 -1.0615  0.4305
10723TIP3   OH253583   5.578   3.650   1.919 -0.2482  0.5546 -0.0667
10723TIP3    H153584   5.543   3.673   1.833 -1.4011 -2.2830 -0.4848
10723TIP3    H253585   5.530   3.705   1.980  0.6126  2.6431 -1.1902
10724TIP3   OH253586   0.424   1.265  13.435 -0.4384  0.0466  0.1121
10724TIP3    H153587   0.357   1.228  13.378  0.4254  0.1430 -1.0099
10724TIP3    H253588   0.475   1.189  13.465 -1.5373 -0.1200  1.6667
10725TIP3   OH253589   6.720   1.942  11.304 -0.3037 -0.0309  0.0089
10725TIP3    H153590   6.742   1.951  11.212 -0.1557  1.0491  0.1330
10725TIP3    H253591   6.711   2.032  11.336  0.1116 -0.3644  1.1512
10726TIP3   OH253592   0.843   2.328   4.381  0.0754 -0.1710 -0.1902
10726TIP3    H153593   0.915   2.270   4.356 -0.3304 -0.7844  0.0703
10726TIP3    H253594   0.853   2.340   4.475 -0.2584 -0.3733 -0.1314
10727TIP3   OH253595   3.277   1.141  16.790  0.6207 -0.3077  0.1571
10727TIP3    H153596   3.214   1.206  16.758  0.5121 -1.1352 -1.3768
10727TIP3    H253597   3.361   1.170  16.755  0.4915 -1.2565 -1.0041
10728TIP3   OH253598   4.362   0.196  13.042 -0.3479  0.1959 -0.0469
10728TIP3    H153599   4.344   0.289  13.030  1.8145  0.5500 -1.0077
10728TIP3    H253600   4.453   0.193  13.071 -0.0144 -1.6633 -1.1431
10729TIP3   OH253601   6.404   1.493   3.753  0.6225  0.2711  0.1666
10729TIP3    H153602   6.486   1.489   3.803  0.9110  2.9613  0.0465
10729TIP3    H253603   6.425   1.547   3.676 -1.1816  0.7814 -0.0161
10730TIP3   OH253604   0.143   2.542   6.604  0.0492 -0.1883 -0.5736
10730TIP3    H153605   0.235   2.568   6.609 -0.1047  0.6680 -1.6081
10730TIP3    H253606   0.136   2.464   6.658  0.5486  1.9610  2.8967
10731TIP3   OH253607   2.787   2.197  11.296 -0.3421 -0.3275  0.1755
10731TIP3    H153608   2.710   2.254  11.290 -1.1055 -1.2521  0.8072
10731TIP3    H253609   2.794   2.158  11.209 -0.7767 -0.4717  0.2025
10732TIP3   OH253610   3.809   4.686  16.092 -0.0028 -0.6871  0.3605
10732TIP3    H153611   3.831   4.778  16.098  3.4337 -1.2698 -1.1547
10732TIP3    H253612   3.782   4.661  16.181  0.3024  1.4473  1.0937
10733TIP3   OH253613   4.809   5.751  15.047 -0.5304  0.3838 -0.2664
10733TIP3    H153614   4.859   5.768  14.968 -0.7812 -0.8296 -0.6964
10733TIP3    H253615   4.855   5.680  15.091 -1.2022  0.0708 -0.0585
10734TIP3   OH253616   0.775   4.884   3.852  0.2547  0.1337  0.8426
10734TIP3    H153617   0.706   4.887   3.786  2.0516 -0.6359 -1.2335
10734TIP3    H253618   0.803   4.793   3.854  1.9123  0.5986  0.7924
10735TIP3   OH253619   0.792   4.426  13.678 -0.6273 -0.4558 -0.3567
10735TIP3    H153620   0.872   4.429  13.730 -1.5294  0.1154  1.0599
10735TIP3    H253621   0.733   4.370  13.728 -1.4803 -0.0050 -0.8265
10736TIP3   OH253622   0.682   5.108  13.254 -0.0865 -0.6295 -0.0640
10736TIP3    H153623   0.598   5.109  13.208 -0.4487 -0.0848  0.5933
10736TIP3    H253624   0.660   5.086  13.344  0.4408 -0.2437  0.1673
10737TIP3   OH253625   6.185   6.192   1.004 -0.0396 -0.3679  0.3433
10737TIP3    H153626   6.140   6.264   1.048  0.8210  0.0778  0.5105
10737TIP3    H253627   6.213   6.134   1.075 -0.5308 -0.7637  0.2241
10738TIP3   OH253628   4.740   6.401  13.873 -0.1410 -0.1845  0.1339
10738TIP3    H153629   4.798   6.358  13.810 -0.2054 -0.6575  0.3957
10738TIP3    H253630   4.798   6.458  13.924 -0.1665  0.6050 -0.6855
10739TIP3   OH253631   0.548   0.897   4.793 -0.5980 -0.4987 -0.0818
10739TIP3    H153632   0.597   0.860   4.867  0.5207 -0.0408 -0.5690
10739TIP3    H253633   0.511   0.821   4.748  1.9547 -1.1554 -1.2823
10740TIP3   OH253634   3.167   3.687   4.829  0.4876 -0.1349  0.2304
10740TIP3    H153635   3.105   3.620   4.857  0.8101 -1.2477 -1.5509
10740TIP3    H253636   3.116   3.768   4.826 -0.1307 -0.4520  1.5428
10741TIP3   OH253637   5.457   3.921  15.344  0.0403 -0.3701 -0.0180
10741TIP3    H153638   5.420   3.847  15.295  0.8942  0.2387 -1.6713
10741TIP3    H253639   5.424   3.999  15.298 -0.9774  0.3226  1.7899
10742TIP3   OH253640   0.169   0.569   0.606  0.0204  0.2758 -0.6439
10742TIP3    H153641   0.172   0.487   0.555  1.4705  0.0657 -0.2488
10742TIP3    H253642   0.081   0.603   0.589  0.0346 -0.4000 -2.3289
10743TIP3   OH253643   1.563   5.390   0.998 -0.0439  0.3186 -0.4127
10743TIP3    H153644   1.554   5.348   0.912 -2.1204  2.8008 -1.5752
10743TIP3    H253645   1.622   5.464   0.983 -0.1674  0.5886  0.3755
10744TIP3   OH253646   5.422   1.168  12.970 -0.3860  0.3710 -0.4735
10744TIP3    H153647   5.452   1.217  12.893 -1.0983 -0.5444 -1.3605
10744TIP3    H253648   5.331   1.146  12.951 -0.3338 -0.5598  0.2693
10745TIP3   OH253649   1.767   6.710  14.585  0.5434 -0.0371 -0.3819
10745TIP3    H153650   1.703   6.646  14.618 -0.0492  1.0170  0.5933
10745TIP3    H253651   1.762   6.703  14.490  0.1344 -1.0864 -0.2957
10746TIP3   OH253652   5.419   2.924  17.162  0.1657 -0.1109  0.0174
10746TIP3    H153653   5.496   2.908  17.108 -0.4751  0.7806 -1.2042
10746TIP3    H253654   5.345   2.903  17.105 -0.5188 -1.6084  1.3856
10747TIP3   OH253655   4.879   1.609  17.095 -0.3032  0.1430  0.8445
10747TIP3    H153656   4.897   1.528  17.144  1.2945 -0.6364 -0.9043
10747TIP3    H253657   4.784   1.609  17.084 -0.4498 -0.8809  1.9065
10748TIP3   OH253658   6.439   4.968  13.400 -0.0889  0.0334 -0.5677
10748TIP3    H153659   6.390   4.958  13.318 -2.6065  3.1625  0.3414
10748TIP3    H253660   6.460   4.879  13.427  2.3281 -1.1398 -5.3077
10749TIP3   OH253661   3.369   5.589  15.341 -0.1873 -0.6357 -0.6877
10749TIP3    H153662   3.328   5.527  15.400 -0.1112 -0.2296 -0.2026
10749TIP3    H253663   3.299   5.652  15.320  0.2491  0.2620  0.4201
10750TIP3   OH253664   0.635   5.500   1.880  0.9687 -0.6375  0.4740
10750TIP3    H153665   0.670   5.517   1.968 -0.7484 -0.3422  1.1427
10750TIP3    H253666   0.582   5.421   1.892  0.5242 -0.4471 -0.2444
10751TIP3   OH253667   6.625   0.846  12.442  0.2701 -0.1970 -0.5165
10751TIP3    H153668   6.710   0.889  12.444  0.8129 -1.2808  0.9417
10751TIP3    H253669   6.638   0.768  12.389 -0.0046 -0.0213 -0.8516
10752TIP3   OH253670   1.981   2.514   4.090  0.6400 -0.0879 -0.3944
10752TIP3    H153671   1.941   2.601   4.097 -0.5398 -0.6573  0.3780
10752TIP3    H253672   2.064   2.528   4.045  0.5088  1.4493 -0.1816
10753TIP3   OH253673   2.916   1.135  11.789 -0.1186 -0.5206  0.5732
10753TIP3    H153674   2.908   1.043  11.762  0.7281 -0.6999  0.9090
10753TIP3    H253675   2.989   1.169  11.737 -0.5019 -0.0082  0.3683
10754TIP3   OH253676   5.723   0.329  15.425 -0.6562 -0.2088  0.0824
10754TIP3    H153677   5.692   0.318  15.335 -0.7533  0.5967  0.0043
10754TIP3    H253678   5.699   0.419  15.448  0.9478  0.2002  0.2810
10755TIP3   OH253679   1.614   2.656  13.102  0.1494  0.0248 -0.3637
10755TIP3    H153680   1.671   2.703  13.041 -0.1368  2.1367  0.9168
10755TIP3    H253681   1.674   2.605  13.156  0.7135  0.9213 -0.1198
10756TIP3   OH253682   3.131   3.103   2.004  0.3278 -0.2606 -0.0486
10756TIP3    H153683   3.066   3.070   2.066 -0.3958  0.3167 -0.4663
10756TIP3    H253684   3.156   3.027   1.952 -0.9716 -0.2828 -0.6987
10757TIP3   OH253685   0.754   5.695   5.432 -0.5729 -0.1653 -0.2704
10757TIP3    H153686   0.702   5.754   5.377  0.7553  1.3288 -0.0066
10757TIP3    H253687   0.799   5.753   5.494 -1.4592 -1.7241  1.9795
10758TIP3   OH253688   4.580   4.604   1.804 -0.2657  0.1237  0.0068
10758TIP3    H153689   4.559   4.685   1.851 -2.0899 -0.1942 -0.1916
10758TIP3    H253690   4.675   4.604   1.798 -0.1801  1.8235  0.7722
10759TIP3   OH253691   5.657   0.436  14.263 -0.6090  0.0378 -0.5861
10759TIP3    H153692   5.668   0.521  14.304 -1.1140  0.1422 -0.6557
10759TIP3    H253693   5.745   0.410  14.235 -0.4787  0.6106 -0.7130
10760TIP3   OH253694   4.084   3.906   0.036  0.0066  0.0772  0.3124
10760TIP3    H153695   4.014   3.843   0.015 -0.1694  0.1151  0.7644
10760TIP3    H253696   4.119   3.932  -0.049  0.2488 -0.8187  0.1229
10761TIP3   OH253697   0.087   3.542  14.448 -0.0111  0.0547 -0.1811
10761TIP3    H153698   0.054   3.611  14.506 -1.0117 -0.2685 -0.3436
10761TIP3    H253699   0.095   3.584  14.363 -0.0819  0.1118 -0.1593
10762TIP3   OH253700   0.871   2.402   2.214  0.0312 -0.0070 -0.3048
10762TIP3    H153701   0.857   2.321   2.165 -1.8734 -1.0773  1.8124
10762TIP3    H253702   0.913   2.374   2.296 -0.1521  1.1893  0.2258
10763TIP3   OH253703   4.212   4.420   2.076 -0.4866 -0.3360 -0.1090
10763TIP3    H153704   4.274   4.462   2.136 -0.7290  0.0560 -0.1240
10763TIP3    H253705   4.128   4.461   2.097 -1.0137 -1.7998  0.8272
10764TIP3   OH253706   6.122   0.913  12.111  0.1516  0.4660 -0.0856
10764TIP3    H153707   6.055   0.856  12.073  0.2448  2.1066 -3.0150
10764TIP3    H253708   6.186   0.853  12.148  0.0889 -1.3989 -2.7336
10765TIP3   OH253709   4.075   0.644  11.212  0.0295  0.5376  0.2868
10765TIP3    H153710   4.161   0.666  11.249  0.1375 -0.0566  0.3975
10765TIP3    H253711   4.050   0.722  11.163  1.4175  0.0884 -1.2191
10766TIP3   OH253712   4.547   3.734   5.597  0.3804  0.4990  0.5558
10766TIP3    H153713   4.550   3.758   5.689  0.2886  0.3620  0.5955
10766TIP3    H253714   4.626   3.681   5.582  0.4937  0.6797  0.5097
10767TIP3   OH253715   4.078   5.035  12.586 -0.0137  0.1831  0.3286
10767TIP3    H153716   4.111   4.986  12.511  0.9241  1.1809  0.0659
10767TIP3    H253717   4.059   5.122  12.552  1.8896  1.1356  1.5184
10768TIP3   OH253718   3.718   0.438   0.965  0.3605 -0.0701  0.1300
10768TIP3    H153719   3.704   0.518   0.913  0.0480  0.3001  0.7796
10768TIP3    H253720   3.722   0.469   1.055  0.5020 -0.7659  0.3635
10769TIP3   OH253721   5.578   2.957   3.534  0.2418 -0.1365 -0.1072
10769TIP3    H153722   5.622   3.001   3.606 -2.0246  1.1521  0.5720
10769TIP3    H253723   5.646   2.949   3.466  1.4639  1.9416  0.7654
10770TIP3   OH253724   1.720   6.579   6.440 -0.2067  0.4399 -0.4032
10770TIP3    H153725   1.764   6.512   6.491 -1.5161 -0.0419  0.1500
10770TIP3    H253726   1.786   6.611   6.379  0.3245 -1.7305 -1.0637
10771TIP3   OH253727   6.337   5.532   5.284 -0.0539  0.0068  0.9058
10771TIP3    H153728   6.336   5.511   5.191 -1.8771  0.3836  0.8127
10771TIP3    H253729   6.362   5.624   5.288  0.7040 -0.1895  0.8509
10772TIP3   OH253730   3.479   2.291  13.433  0.1704 -0.2469 -0.0472
10772TIP3    H153731   3.473   2.199  13.408 -2.3010  0.1289 -1.1378
10772TIP3    H253732   3.447   2.339  13.356  0.0880  1.4274  0.9820
10773TIP3   OH253733   5.003   2.268  14.836 -0.1586 -0.3876 -0.2122
10773TIP3    H153734   5.080   2.324  14.847  1.1575 -1.7947 -1.7829
10773TIP3    H253735   4.938   2.326  14.795 -0.1211  0.9063  1.4272
10774TIP3   OH253736   4.615   0.600   4.724 -0.1724  0.5023  0.1256
10774TIP3    H153737   4.648   0.656   4.654  0.1877 -0.6809 -0.6790
10774TIP3    H253738   4.566   0.532   4.679 -1.2502  0.5842  1.1354
10775TIP3   OH253739   4.342   1.023  12.565 -0.3418  0.0266  0.1551
10775TIP3    H153740   4.411   1.087  12.582  1.0320 -1.0020 -1.2061
10775TIP3    H253741   4.272   1.046  12.626  1.2972  0.9757  1.7845
10776TIP3   OH253742   4.186   6.157   3.785 -0.6651 -0.0476 -0.3100
10776TIP3    H153743   4.248   6.127   3.719 -0.1545  0.6771 -0.1718
10776TIP3    H253744   4.101   6.126   3.754 -0.2906 -0.6825 -0.7239
10777TIP3   OH253745   4.465   4.016   1.991  0.4270  0.2713  0.0964
10777TIP3    H153746   4.407   4.058   2.055  0.8738  0.2777  0.5034
10777TIP3    H253747   4.512   4.089   1.950  0.5776  0.2301  0.1930
10778TIP3   OH253748   5.767   4.951  15.267 -0.2060  0.1223 -0.0092
10778TIP3    H153749   5.746   4.870  15.314  2.5519  0.7378  2.5897
10778TIP3    H253750   5.733   4.937  15.179 -3.4021 -2.1885  1.3904
10779TIP3   OH253751   3.773   3.969   4.387 -0.7828 -0.3533  0.1212
10779TIP3    H153752   3.843   4.023   4.352  0.4373 -1.8529  0.1041
10779TIP3    H253753   3.745   4.014   4.467  0.4091  0.1272  0.2823
10780TIP3   OH253754   0.734   2.440   5.004  0.1168 -0.0034  0.4990
10780TIP3    H153755   0.736   2.355   4.959 -1.4889  0.1694  0.0501
10780TIP3    H253756   0.714   2.418   5.095 -0.5914 -0.1033  0.3261
10781TIP3   OH253757   0.431   5.113   0.643  0.3683  0.0306 -0.2394
10781TIP3    H153758   0.349   5.064   0.652 -0.1292  0.8385 -0.2665
10781TIP3    H253759   0.409   5.202   0.671  1.1285  0.3657 -0.6811
10782TIP3   OH253760   2.444   1.379   1.452 -0.3543 -0.1703 -0.0016
10782TIP3    H153761   2.522   1.434   1.447 -0.6113  0.1905 -0.0160
10782TIP3    H253762   2.463   1.318   1.524  0.8448 -1.5120 -1.3727
10783TIP3   OH253763   0.017   3.854   2.836  0.2460 -0.2509 -0.5559
10783TIP3    H153764  -0.010   3.851   2.928  1.0468  4.2864  0.0886
10783TIP3    H253765  -0.065   3.862   2.787 -0.1469  1.5071  0.2745
10784TIP3   OH253766   0.422   0.914  15.752  0.2643  0.2111 -1.0529
10784TIP3    H153767   0.435   0.819  15.762 -1.7795 -0.0560 -0.5847
10784TIP3    H253768   0.425   0.928  15.657  1.5019 -0.1384 -1.0932
10785TIP3   OH253769   1.031   0.631  11.060  0.1981 -0.3348 -0.3956
10785TIP3    H153770   0.972   0.622  11.135  0.5387  0.6626  0.0138
10785TIP3    H253771   0.980   0.601  10.985  0.3112 -2.6978  0.3989
10786TIP3   OH253772   6.203   0.846  13.066 -0.2717 -0.1303 -0.0809
10786TIP3    H153773   6.251   0.891  13.135 -0.9522  1.0816 -0.3618
10786TIP3    H253774   6.230   0.889  12.985  0.5417 -1.5573 -0.6037
10787TIP3   OH253775   1.670   4.692   5.255  0.4308 -0.4685  0.0926
10787TIP3    H153776   1.712   4.622   5.205  2.2450 -0.8139  1.9883
10787TIP3    H253777   1.587   4.653   5.284  0.6497 -1.2375 -0.2730
10788TIP3   OH253778   2.441   2.522   3.270  0.6141 -0.1211  0.0801
10788TIP3    H153779   2.497   2.597   3.286  0.7255 -0.5569  1.9039
10788TIP3    H253780   2.356   2.559   3.245  1.0872  0.5672 -0.5326
10789TIP3   OH253781   3.479   0.315  12.923  0.1404 -0.4839 -0.0360
10789TIP3    H153782   3.430   0.392  12.896 -0.7248 -1.6278 -1.9614
10789TIP3    H253783   3.444   0.292  13.009  0.8714  1.5798  0.8726
10790TIP3   OH253784   1.058   3.532   0.846 -0.1051  0.4079 -0.4882
10790TIP3    H153785   0.992   3.567   0.907  1.1785  0.4335  0.9421
10790TIP3    H253786   1.122   3.489   0.902  2.0392  1.8724 -1.6567
10791TIP3   OH253787   1.365   5.622   3.970 -0.0901 -0.2481 -0.3789
10791TIP3    H153788   1.315   5.696   4.005  0.8318  0.6814 -0.9436
10791TIP3    H253789   1.369   5.559   4.041 -2.7239 -0.7107 -0.5713
10792TIP3   OH253790   4.481   5.747  12.206  0.7291 -0.2577 -0.2778
10792TIP3    H153791   4.425   5.670  12.198 -0.0702  0.3984 -1.3601
10792TIP3    H253792   4.437   5.814  12.152  0.8872  1.2447  1.3618
10793TIP3   OH253793   1.367   0.218  12.404 -0.2067  0.3990 -0.1945
10793TIP3    H153794   1.416   0.271  12.467  0.7986  0.5981 -1.1261
10793TIP3    H253795   1.322   0.152  12.458  2.5968 -1.0239  0.5837
10794TIP3   OH253796   6.545   5.657   3.685  0.4650 -0.1630  0.1776
10794TIP3    H153797   6.458   5.657   3.645  0.7543  0.0356 -0.4729
10794TIP3    H253798   6.547   5.579   3.739 -0.0752 -0.2390  0.0883
10795TIP3   OH253799   3.886   5.417  15.825  0.1922 -0.5504  0.0927
10795TIP3    H153800   3.888   5.471  15.904 -1.9571  0.7024 -0.6512
10795TIP3    H253801   3.871   5.479  15.754  0.6901 -1.8256 -1.1639
10796TIP3   OH253802   1.467   5.286   3.040  0.4371  0.4111 -0.2475
10796TIP3    H153803   1.526   5.211   3.051 -0.3991 -0.0498  1.6312
10796TIP3    H253804   1.426   5.272   2.955  0.9375 -0.8096 -0.3118
10797TIP3   OH253805   6.130   3.293   1.825 -0.4484  0.3785 -0.6338
10797TIP3    H153806   6.123   3.260   1.736 -1.7498  0.5495 -0.6073
10797TIP3    H253807   6.132   3.388   1.816 -0.1283  0.3862 -0.5044
10798TIP3   OH253808   5.602   5.472   5.816 -0.6186 -0.2885  0.0183
10798TIP3    H153809   5.544   5.398   5.795 -3.0356  2.0431 -2.2743
10798TIP3    H253810   5.558   5.518   5.887 -0.5738  0.4107 -0.3940
10799TIP3   OH253811   0.848   0.687   5.168  0.3322 -0.2172 -0.6140
10799TIP3    H153812   0.929   0.729   5.197 -1.2769  4.0148 -1.4390
10799TIP3    H253813   0.797   0.676   5.248  0.0191  1.4864 -0.5347
10800TIP3   OH253814   0.477   0.059  11.196  0.0912 -0.4890  0.5287
10800TIP3    H153815   0.561   0.099  11.220  0.4893  0.1805 -1.6766
10800TIP3    H253816   0.497   0.010  11.116 -1.7161  0.0692 -0.3095
10801TIP3   OH253817   6.718   0.166   5.576  0.4730 -0.2058 -0.5032
10801TIP3    H153818   6.809   0.170   5.607  0.3793 -3.0418  0.3400
10801TIP3    H253819   6.719   0.101   5.506 -1.1649 -1.4772  0.6017
10802TIP3   OH253820   1.266   2.331  12.463 -0.8841 -0.4157 -0.3099
10802TIP3    H153821   1.209   2.407  12.450  1.3450  1.4687  0.3711
10802TIP3    H253822   1.288   2.302  12.374  0.1951  1.3401 -0.6597
10803TIP3   OH253823   4.618   5.522  13.864  1.1798 -0.4201  0.0800
10803TIP3    H153824   4.658   5.566  13.789  0.7124  0.1149  0.1411
10803TIP3    H253825   4.675   5.543  13.938  0.6469  0.5849  0.2250
10804TIP3   OH253826   6.163   3.799  16.460  0.4740  0.1098 -0.3028
10804TIP3    H153827   6.192   3.738  16.527  0.9258  0.5777 -0.0592
10804TIP3    H253828   6.231   3.867  16.459  0.1314  0.4529 -0.7669
10805TIP3   OH253829   1.361   2.481  13.002  0.2435  0.4986 -0.3699
10805TIP3    H153830   1.400   2.567  12.985 -2.4022  1.4181 -2.6865
10805TIP3    H253831   1.342   2.446  12.915 -2.5504 -0.4929  0.5136
10806TIP3   OH253832   5.350   5.988   4.045  0.3207 -0.2749 -0.0744
10806TIP3    H153833   5.317   6.077   4.030  1.5343  0.5420  1.6998
10806TIP3    H253834   5.303   5.958   4.123  1.3545 -0.3784  0.5248
10807TIP3   OH253835   5.073   1.127  16.339 -0.7873  0.2355  0.2078
10807TIP3    H153836   5.028   1.042  16.341  1.2125 -0.8879  1.8048
10807TIP3    H253837   5.019   1.184  16.394 -1.1500 -0.5729  0.7144
10808TIP3   OH253838   1.584   6.696  15.138  0.7950  0.4490 -0.0371
10808TIP3    H153839   1.603   6.666  15.227  1.4942  2.0589  0.4048
10808TIP3    H253840   1.602   6.791  15.141  1.4373  0.4356 -2.0413
10809TIP3   OH253841   2.400   4.364  17.096  0.1147  0.2951  0.0607
10809TIP3    H153842   2.426   4.432  17.159  1.0206 -0.7079  0.7869
10809TIP3    H253843   2.457   4.290  17.114 -1.2048 -0.8824 -0.3665
10810TIP3   OH253844   1.940   3.245   3.449 -0.1772 -0.1204 -0.1398
10810TIP3    H153845   1.984   3.321   3.412  1.6950 -0.2267  1.7066
10810TIP3    H253846   1.907   3.275   3.534  0.3769 -1.2663  0.5051
10811TIP3   OH253847   6.684   0.736  12.155  0.5176  0.3041  0.0378
10811TIP3    H153848   6.759   0.699  12.202 -0.6742 -0.9773  0.9916
10811TIP3    H253849   6.693   0.702  12.065  1.4176  0.7091 -0.0442
10812TIP3   OH253850   1.775   1.950  17.151  0.2813 -0.0316 -0.2977
10812TIP3    H153851   1.712   1.922  17.218  2.0360 -1.8634  0.7259
10812TIP3    H253852   1.759   1.891  17.077 -1.9145  2.2408 -1.7772
10813TIP3   OH253853   6.301   2.447   5.895  0.2085  0.3622 -0.4554
10813TIP3    H153854   6.393   2.467   5.910  0.6146 -0.6069 -1.4792
10813TIP3    H253855   6.297   2.418   5.804 -1.2924  1.3559 -0.7484
10814TIP3   OH253856   3.294   2.311  16.075  0.9283  0.5176 -0.0200
10814TIP3    H153857   3.338   2.393  16.054 -0.4381  1.1594 -0.5403
10814TIP3    H253858   3.336   2.246  16.019  0.1078  1.4295 -1.7585
10815TIP3   OH253859   1.243   3.035  16.782 -0.2599 -0.2416  0.1492
10815TIP3    H153860   1.262   3.103  16.717 -1.6219  1.4896  1.4514
10815TIP3    H253861   1.185   2.974  16.737  0.4740 -0.2312 -0.8540
10816TIP3   OH253862   0.606   0.547   3.439  0.3952 -0.6109 -0.2798
10816TIP3    H153863   0.686   0.578   3.396 -1.1969  1.5662 -1.8621
10816TIP3    H253864   0.629   0.545   3.532  1.7007  2.2385 -0.4181
10817TIP3   OH253865   1.936   5.871   4.425  0.4369 -0.1171  0.3926
10817TIP3    H153866   1.854   5.875   4.377  0.9482 -0.7278 -0.5708
10817TIP3    H253867   1.923   5.929   4.500 -1.3895 -1.3337  1.0941
10818TIP3   OH253868   0.042   2.697   5.866 -0.5447 -0.8720 -0.1790
10818TIP3    H153869   0.128   2.655   5.870 -0.7999 -1.7136 -2.2727
10818TIP3    H253870   0.047   2.755   5.790 -1.8556 -0.9854 -0.3770
10819TIP3   OH253871   6.090   6.030  13.127  0.3694 -0.0424 -0.2012
10819TIP3    H153872   6.087   6.104  13.187  0.1534 -1.3647  1.4955
10819TIP3    H253873   6.182   6.002  13.127 -0.1211 -2.0525  2.2074
10820TIP3   OH253874   5.563   6.754   1.493 -0.1987  0.0337  0.1200
10820TIP3    H153875   5.523   6.764   1.579  0.6471  0.3096  0.4931
10820TIP3    H253876   5.492   6.771   1.431 -1.3406 -2.1073  0.7208
10821TIP3   OH253877   1.785   6.374   6.615  0.1805 -0.3628 -0.0006
10821TIP3    H153878   1.719   6.307   6.634 -0.6670  0.7005  1.0682
10821TIP3    H253879   1.867   6.337   6.646 -0.5350 -0.3038  2.1481
10822TIP3   OH253880   2.846   1.894  11.983  0.8380 -0.5230  0.0639
10822TIP3    H153881   2.803   1.912  11.900  1.2565 -0.2428 -0.0921
10822TIP3    H253882   2.810   1.809  12.010 -1.0031  0.3932  0.7082
10823TIP3   OH253883   2.944   5.954   5.977 -0.4355 -0.0867  0.0183
10823TIP3    H153884   3.002   5.904   5.919  0.3196  1.1296 -0.3164
10823TIP3    H253885   3.004   5.999   6.037 -1.1394 -0.2018  0.8195
10824TIP3   OH253886   4.464   1.027  14.793  0.3432 -0.1241 -0.3461
10824TIP3    H153887   4.471   1.040  14.699 -0.0678  0.4638 -0.2997
10824TIP3    H253888   4.398   0.959  14.804  0.7368 -0.5309 -0.5011
10825TIP3   OH253889   3.251   0.050   1.300  0.2120  0.2805  0.2315
10825TIP3    H153890   3.237   0.012   1.387 -1.9896  0.5654  0.0758
10825TIP3    H253891   3.313  -0.008   1.257  0.6337 -0.3749  1.6729
10826TIP3   OH253892   2.034   5.988  12.480  0.7977  0.0750  0.5960
10826TIP3    H153893   2.082   5.962  12.401 -2.0744 -1.6909 -0.7457
10826TIP3    H253894   2.035   5.911  12.536  1.8624  0.9523  1.8374
10827TIP3   OH253895   5.095   1.205   1.773 -0.7552 -0.3191  0.5721
10827TIP3    H153896   5.049   1.121   1.782 -0.2569 -0.7532 -0.7005
10827TIP3    H253897   5.133   1.221   1.860 -0.8985 -1.3968  0.8487
10828TIP3   OH253898   0.572   4.984  15.060  0.2743 -0.1244 -0.4719
10828TIP3    H153899   0.654   5.033  15.063  0.3151 -0.1059 -1.6522
10828TIP3    H253900   0.584   4.914  15.124  0.0275  1.6242  1.6178
10829TIP3   OH253901   3.890   6.386  11.737  0.8919  0.1332  0.5033
10829TIP3    H153902   3.906   6.467  11.786 -1.0024  0.5023  0.6019
10829TIP3    H253903   3.881   6.319  11.805  0.6780  0.1944  0.5380
10830TIP3   OH253904   1.204   4.798   2.498 -0.5203  1.0115 -0.2059
10830TIP3    H153905   1.223   4.860   2.568 -0.0478 -0.0322  0.6137
10830TIP3    H253906   1.201   4.713   2.542  0.3557  0.2682 -1.5449
10831TIP3   OH253907   4.738   2.510  10.515  0.4908 -0.1590  0.6871
10831TIP3    H153908   4.708   2.420  10.527  1.2347 -0.4156  0.6592
10831TIP3    H253909   4.672   2.563  10.559  0.1195 -0.7270  0.8250
10832TIP3   OH253910   2.250   3.741   0.079  0.5443 -0.3412  0.3496
10832TIP3    H153911   2.154   3.738   0.077  0.4832  0.7024  1.2094
10832TIP3    H253912   2.271   3.830   0.105  1.7774 -0.3888 -0.4090
10833TIP3   OH253913   3.752   0.118  16.843  0.4028 -0.5449 -0.1642
10833TIP3    H153914   3.768   0.053  16.911  0.9955 -2.0887 -1.7001
10833TIP3    H253915   3.835   0.124  16.796  0.1635  0.8782 -0.4496
10834TIP3   OH253916   1.430   4.414   0.519  0.2432  0.5752 -0.5817
10834TIP3    H153917   1.422   4.378   0.607 -2.6256 -0.2542 -1.0989
10834TIP3    H253918   1.372   4.489   0.518  1.6160  1.6768 -1.3085
10835TIP3   OH253919   5.678   6.188   3.647  0.2268 -0.6084 -0.0130
10835TIP3    H153920   5.583   6.175   3.654  0.2199 -0.3387  0.4864
10835TIP3    H253921   5.709   6.182   3.737  0.6017 -0.0987 -0.1022
10836TIP3   OH253922   5.358   4.695   3.047  0.0349  0.4264  0.6599
10836TIP3    H153923   5.424   4.742   2.997 -0.3865 -0.2792 -0.5882
10836TIP3    H253924   5.408   4.636   3.103  0.4742  0.4840  0.3295
10837TIP3   OH253925   1.762   3.566  10.663  0.5942 -0.5089  0.1706
10837TIP3    H153926   1.789   3.631  10.599 -1.1376  0.5863  0.4612
10837TIP3    H253927   1.674   3.594  10.689  1.6156 -0.1666  3.8889
10838TIP3   OH253928   4.206   1.690   1.738 -0.2259  0.4324  0.0238
10838TIP3    H153929   4.281   1.741   1.769 -1.1744  1.9161 -0.0056
10838TIP3    H253930   4.196   1.715   1.646 -1.6481  1.4546  0.4149
10839TIP3   OH253931   0.632   4.856  13.784  0.0690 -0.3970 -0.4510
10839TIP3    H153932   0.578   4.885  13.856  0.4746  1.3237 -0.8025
10839TIP3    H253933   0.710   4.819  13.826 -0.7454 -1.6308  0.0182
10840TIP3   OH253934   2.292   3.945   4.489  0.3529 -0.0259 -0.1838
10840TIP3    H153935   2.198   3.927   4.486 -0.0308  1.8929 -1.9365
10840TIP3    H253936   2.309   3.968   4.580 -0.6356 -1.3670  0.3803
10841TIP3   OH253937   3.850   5.796  17.274 -0.1688 -0.0223  0.2573
10841TIP3    H153938   3.933   5.833  17.303  0.0431 -0.3270  0.0383
10841TIP3    H253939   3.827   5.846  17.196 -0.3140  0.2241  0.4553
10842TIP3   OH253940   1.107   4.158   4.830 -0.6243 -0.1817  0.1087
10842TIP3    H153941   1.099   4.102   4.753  0.3447  0.5210 -0.5349
10842TIP3    H253942   1.055   4.236   4.808  1.8054  1.2347 -1.0607
10843TIP3   OH253943   2.084   2.567  12.305 -0.3705 -0.0511  0.4632
10843TIP3    H153944   2.081   2.621  12.384 -1.3353 -1.8135  1.6873
10843TIP3    H253945   1.997   2.575  12.267  0.6859  2.5533 -1.7745
10844TIP3   OH253946   6.670   2.344  15.035 -0.4313 -0.5838 -0.1465
10844TIP3    H153947   6.658   2.434  15.066 -0.9318 -0.6816 -0.0412
10844TIP3    H253948   6.656   2.349  14.941  0.5294 -0.3839 -0.2874
10845TIP3   OH253949   5.824   5.241   2.220 -0.1261 -0.3695 -0.3940
10845TIP3    H153950   5.741   5.285   2.234  0.7376  2.5616 -3.3654
10845TIP3    H253951   5.801   5.161   2.173 -1.2936  0.1124 -0.6727
10846TIP3   OH253952   4.064   0.216  15.961 -0.4890 -0.5443 -0.1213
10846TIP3    H153953   3.980   0.261  15.950 -0.0101  0.5035  0.3348
10846TIP3    H253954   4.090   0.236  16.051  0.1344 -1.0613 -0.1800
10847TIP3   OH253955   6.267   0.019  12.080  0.3478 -0.2636 -0.1987
10847TIP3    H153956   6.353  -0.018  12.058  0.1395 -0.7149 -0.2566
10847TIP3    H253957   6.248  -0.015  12.167  0.1625 -0.2773 -0.2449
10848TIP3   OH253958   1.305   1.851   2.427  0.0253  0.3070  0.0502
10848TIP3    H153959   1.376   1.788   2.437  0.3933  0.6905 -0.1767
10848TIP3    H253960   1.236   1.817   2.484  0.0802 -0.5054 -0.3582
10849TIP3   OH253961   0.233   4.993   3.763  0.0096  0.1545  0.0385
10849TIP3    H153962   0.168   5.014   3.695  0.2720  0.3448 -0.1556
10849TIP3    H253963   0.187   5.007   3.845  0.6085  3.0912 -0.0086
10850TIP3   OH253964   4.851   4.092  14.538  0.1791  0.5591  0.2132
10850TIP3    H153965   4.919   4.050  14.486  0.7104  0.3562  1.0477
10850TIP3    H253966   4.853   4.184  14.510  0.0749  0.3461 -0.5094
10851TIP3   OH253967   6.376   6.383   3.001  0.1929  0.4410 -0.7228
10851TIP3    H153968   6.363   6.291   2.977 -0.5516  0.0522  1.0504
10851TIP3    H253969   6.467   6.401   2.977 -0.0772 -0.3010 -2.4466
10852TIP3   OH253970   4.443   3.553  11.874 -0.8355 -0.1152  0.3554
10852TIP3    H153971   4.387   3.558  11.952  0.2214  0.0261  1.1352
10852TIP3    H253972   4.473   3.462  11.872  0.4726  0.2588  1.1219
10853TIP3   OH253973   1.306   5.370   1.113 -0.6039  0.1431 -0.2130
10853TIP3    H153974   1.367   5.363   1.040  0.1402 -1.5411  0.5313
10853TIP3    H253975   1.228   5.324   1.084 -0.9406  0.9139 -0.5566
10854TIP3   OH253976   4.905   2.583   2.982 -0.3001 -0.1892  0.1079
10854TIP3    H153977   4.840   2.651   2.996 -0.4321  0.1453 -1.8837
10854TIP3    H253978   4.857   2.511   2.940  0.3525 -0.4437 -0.2336
10855TIP3   OH253979   1.989   1.515  15.667  0.1364  0.5867 -0.1394
10855TIP3    H153980   2.036   1.542  15.588 -0.6293 -0.1629 -0.8663
10855TIP3    H253981   2.054   1.469  15.720 -0.1064 -1.9747 -1.9095
10856TIP3   OH253982   6.582   5.794   6.566  0.1545 -0.5483  0.0801
10856TIP3    H153983   6.607   5.884   6.588 -0.4206 -0.5711  0.8769
10856TIP3    H253984   6.601   5.786   6.473 -2.4893  1.3588 -0.7588
10857TIP3   OH253985   5.856   4.419   4.178  0.1499  0.4625  0.2432
10857TIP3    H153986   5.869   4.429   4.084 -3.0442  2.1175 -0.1604
10857TIP3    H253987   5.814   4.501   4.205  0.8432 -0.0289  3.0960
10858TIP3   OH253988   3.781   2.756   4.776  0.0659 -0.0053 -0.0785
10858TIP3    H153989   3.686   2.760   4.766  0.0088  2.0467  1.0049
10858TIP3    H253990   3.795   2.711   4.859  0.0689 -0.2549 -0.2104
10859TIP3   OH253991   0.542   4.556  12.615 -0.2559  0.2533  0.8400
10859TIP3    H153992   0.563   4.649  12.608 -0.8676  0.4641  1.5938
10859TIP3    H253993   0.538   4.540  12.710 -0.4353 -0.4703  0.7136
10860TIP3   OH253994   4.899   4.885   1.471 -0.0491 -0.2043  0.1740
10860TIP3    H153995   4.918   4.947   1.542  0.8529 -0.3651  0.0773
10860TIP3    H253996   4.980   4.835   1.459 -0.9268 -1.8067  0.6321
10861TIP3   OH253997   3.935   4.396  16.842 -0.2515  0.4995  0.6731
10861TIP3    H153998   3.857   4.343  16.822  0.3580 -0.1959  0.0587
10861TIP3    H253999   4.000   4.367  16.778 -0.4445  3.3157 -0.9431
10862TIP3   OH254000   2.483   5.517   5.743  0.0386  0.3329 -0.0179
10862TIP3    H154001   2.404   5.463   5.754  0.0084  0.5378  0.9116
10862TIP3    H254002   2.549   5.473   5.797  0.1681  0.9067  0.2985
10863TIP3   OH254003   4.004   6.448   5.196  0.3622  0.0421 -0.0934
10863TIP3    H154004   4.033   6.539   5.207 -1.6489  0.5986  1.0783
10863TIP3    H254005   4.040   6.403   5.272 -2.0976  0.8525  1.6613
10864TIP3   OH254006   5.827   0.254  11.367  0.0514  0.3808  0.8010
10864TIP3    H154007   5.827   0.168  11.325 -2.0730  1.1353 -0.9270
10864TIP3    H254008   5.806   0.236  11.459 -0.7133 -0.9396  0.3944
10865TIP3   OH254009   0.781   1.104  12.819  0.5143 -0.0034  0.2975
10865TIP3    H154010   0.828   1.106  12.902  0.0091  0.4370  0.5767
10865TIP3    H254011   0.695   1.069  12.840 -0.6879  2.7918  0.5496
10866TIP3   OH254012   1.727   2.170   5.359 -0.8770 -0.7527  0.4993
10866TIP3    H154013   1.643   2.211   5.342  0.3200  1.5313 -0.2132
10866TIP3    H254014   1.741   2.111   5.285 -0.1775  1.7427 -1.4718
10867TIP3   OH254015   1.739   0.722   5.873  0.1355  0.5495 -0.1295
10867TIP3    H154016   1.717   0.681   5.789  0.0852  0.0325  0.1284
10867TIP3    H254017   1.654   0.738   5.914  0.1375  1.3512 -0.4294
10868TIP3   OH254018   3.056   2.868  14.376  0.3258 -0.0544  0.1301
10868TIP3    H154019   3.128   2.878  14.438  1.1284 -2.3431 -0.3590
10868TIP3    H254020   2.997   2.941  14.396  2.7230  1.8795  0.5573
10869TIP3   OH254021   6.420   2.521   4.888 -0.2127 -0.1856  0.2191
10869TIP3    H154022   6.441   2.548   4.799 -0.4487  1.5726  0.6694
10869TIP3    H254023   6.328   2.496   4.885 -0.7646  1.6827  0.3210
10870TIP3   OH254024   2.864   2.275  15.008  0.8000  0.3134 -0.1088
10870TIP3    H154025   2.780   2.320  15.018  1.3885  1.7888 -1.5305
10870TIP3    H254026   2.879   2.272  14.914  2.1915 -0.2497  0.1093
10871TIP3   OH254027   5.794   3.433  17.261  0.2416  0.0516  0.1528
10871TIP3    H154028   5.752   3.506  17.305 -2.4703 -1.7354  0.8264
10871TIP3    H254029   5.841   3.386  17.331 -0.7634 -0.6064  0.4080
10872TIP3   OH254030   0.999   2.944  13.054 -0.3221 -0.0803  0.4704
10872TIP3    H154031   0.908   2.913  13.057 -0.1762 -0.7112 -1.0703
10872TIP3    H254032   0.996   3.024  13.002  0.0417 -0.2552  0.1747
10873TIP3   OH254033   5.345   2.101  13.437 -0.1819 -0.0936 -0.2204
10873TIP3    H154034   5.400   2.178  13.452  0.2624 -0.6692  1.3292
10873TIP3    H254035   5.281   2.103  13.509  0.7190 -1.8989  0.7028
10874TIP3   OH254036   4.480   1.571  14.150  0.1225  0.5363  0.2796
10874TIP3    H154037   4.386   1.567  14.129 -0.2238 -1.1267  1.9078
10874TIP3    H254038   4.484   1.622  14.231  0.6299  0.5510  0.2446
10875TIP3   OH254039   6.301   0.310  13.062  0.5151 -0.4333  0.0243
10875TIP3    H154040   6.250   0.391  13.057  2.1538  0.6347 -0.5529
10875TIP3    H254041   6.271   0.267  13.142 -0.4148  0.7348  0.3321
10876TIP3   OH254042   0.117   1.885  16.385 -0.6379  0.3924  0.1183
10876TIP3    H154043   0.060   1.939  16.440 -0.3240 -0.5934  1.4600
10876TIP3    H254044   0.122   1.932  16.302 -0.4597  2.3475  1.1904
10877TIP3   OH254045   1.670   2.531   4.377  0.8969  0.0574  0.0905
10877TIP3    H154046   1.749   2.495   4.418 -0.8394 -2.6744  1.2936
10877TIP3    H254047   1.670   2.496   4.288  1.2451  0.4363 -0.0622
10878TIP3   OH254048   5.130   1.072   3.427  0.2694  0.2544 -0.1511
10878TIP3    H154049   5.111   1.165   3.412  0.3556  0.3910  0.5434
10878TIP3    H254050   5.046   1.034   3.451  0.0691 -0.0305 -1.2352
10879TIP3   OH254051   6.358   3.405   0.440 -0.4723 -0.5428  0.1691
10879TIP3    H154052   6.442   3.414   0.485  0.5736 -1.3625 -1.4753
10879TIP3    H254053   6.364   3.466   0.366 -2.1947  0.8942  1.1509
10880TIP3   OH254054   4.915   3.595   3.526 -0.3518  0.9543 -0.5491
10880TIP3    H154055   4.857   3.557   3.592 -1.3353 -1.3211 -2.5789
10880TIP3    H254056   4.990   3.536   3.522  0.7722  2.2705 -0.0195
10881TIP3   OH254057   5.118   0.450   2.644 -0.1081  0.2059  0.9597
10881TIP3    H154058   5.068   0.467   2.564  2.3720  0.3459 -0.6754
10881TIP3    H254059   5.159   0.364   2.629  2.8040  1.5144  0.6281
10882TIP3   OH254060   0.827   4.842   1.094  0.8218 -0.0568  0.4108
10882TIP3    H154061   0.835   4.764   1.149  0.2762 -0.9310 -0.7018
10882TIP3    H254062   0.787   4.908   1.150 -1.4080 -1.4614  0.5899
10883TIP3   OH254063   4.292   5.120  16.313  0.3994 -0.3319 -0.0663
10883TIP3    H154064   4.373   5.083  16.276  0.5854  0.4633 -0.4919
10883TIP3    H254065   4.301   5.215  16.299 -2.0981 -0.3822 -3.3233
10884TIP3   OH254066   0.352   5.500   5.311  0.1955 -0.4131 -0.1105
10884TIP3    H154067   0.400   5.509   5.229 -0.8994 -0.2438 -0.7546
10884TIP3    H254068   0.298   5.422   5.299  1.5689 -1.6339  1.2751
10885TIP3   OH254069   3.076   3.499   0.413  0.0838  0.7792 -0.2209
10885TIP3    H154070   2.992   3.452   0.415  0.9752 -0.9406 -0.7314
10885TIP3    H254071   3.101   3.496   0.320  2.2307 -1.7252  0.3133
10886TIP3   OH254072   3.999   3.320   0.225  0.3120 -0.6986  0.2932
10886TIP3    H154073   4.071   3.344   0.166  2.2647 -0.4771  2.6119
10886TIP3    H254074   3.961   3.242   0.185  0.7581  0.0864 -1.8357
10887TIP3   OH254075   1.323   1.106  11.631 -0.2357  0.2839  0.0848
10887TIP3    H154076   1.228   1.097  11.641 -0.2157 -1.0658 -0.7160
10887TIP3    H254077   1.357   1.018  11.650  0.7045  0.3518 -1.1902
10888TIP3   OH254078   4.922   0.767  12.877 -0.1310  0.1548  0.0887
10888TIP3    H154079   5.011   0.771  12.913 -0.7850 -0.9231  1.9359
10888TIP3    H254080   4.884   0.852  12.900 -0.2050 -0.1332  1.0632
10889TIP3   OH254081   4.370   1.085   5.276 -0.0149  0.2044 -0.0966
10889TIP3    H154082   4.444   1.102   5.334  0.7397 -1.2345 -0.6108
10889TIP3    H254083   4.407   1.088   5.188  0.2618 -3.8725 -0.2996
10890TIP3   OH254084   3.193   6.304  14.622  0.0213 -0.6022  0.7955
10890TIP3    H154085   3.136   6.230  14.604  0.2066 -1.1867  2.4455
10890TIP3    H254086   3.134   6.373  14.654 -0.2400  0.2526 -1.3488
10891TIP3   OH254087   4.170   0.841  11.828  1.0137  0.2963  0.2780
10891TIP3    H154088   4.190   0.830  11.735 -1.5793  1.2020 -0.4634
10891TIP3    H254089   4.119   0.763  11.850 -2.4415  2.1546 -0.4225
10892TIP3   OH254090   1.734   3.295   4.796  0.3355 -0.2649 -0.0104
10892TIP3    H154091   1.779   3.374   4.767  0.6101 -0.2783  0.3765
10892TIP3    H254092   1.641   3.319   4.799  0.5529  0.4744  1.4940
10893TIP3   OH254093   4.872   6.469  17.078  0.3137  0.1714 -0.2802
10893TIP3    H154094   4.844   6.407  17.011  0.2036 -0.6906  0.5425
10893TIP3    H254095   4.800   6.469  17.142  1.4794 -0.8982  1.0808
10894TIP3   OH254096   5.017   1.891   4.427  0.0357 -0.0747 -0.0251
10894TIP3    H154097   4.972   1.806   4.420 -0.7059  0.4489 -2.7473
10894TIP3    H254098   5.026   1.921   4.337  3.2159  1.2971  0.6276
10895TIP3   OH254099   2.855   0.350  14.506 -0.5709 -0.2563  0.3995
10895TIP3    H154100   2.828   0.284  14.441 -1.5105  0.1120  0.4065
10895TIP3    H254101   2.869   0.300  14.586 -0.0215 -0.6243  0.0848
10896TIP3   OH254102   5.832   0.934  12.641  0.5811 -0.3165  0.1230
10896TIP3    H154103   5.764   0.972  12.696 -0.2983 -0.1453 -1.0373
10896TIP3    H254104   5.912   0.941  12.693  0.3599  2.5565  0.2613
10897TIP3   OH254105   2.974   2.319   1.488  0.2243 -0.5093 -0.3121
10897TIP3    H154106   2.994   2.252   1.553  1.7739  0.6346  0.4662
10897TIP3    H254107   3.056   2.330   1.440 -0.8524 -1.2352 -2.4233
10898TIP3   OH254108   3.959   1.836  13.178  0.5080  0.4990 -0.4237
10898TIP3    H154109   4.024   1.894  13.139 -1.5711  0.8943 -3.6733
10898TIP3    H254110   3.942   1.770  13.111 -1.1063 -0.6348  1.0224
10899TIP3   OH254111   0.855   3.685   5.818  0.2865 -0.1599  0.1283
10899TIP3    H154112   0.929   3.667   5.876  0.9160  0.1342 -0.5785
10899TIP3    H254113   0.802   3.749   5.866  0.2384 -0.7124  0.8339
10900TIP3   OH254114   4.398   4.771  16.307 -0.5086  0.1793 -0.0805
10900TIP3    H154115   4.399   4.839  16.239 -1.3961  1.4862  1.1342
10900TIP3    H254116   4.305   4.756  16.324 -0.3057 -0.8638  0.1446
10901TIP3   OH254117   1.982   1.593  16.631  0.2330  0.2354 -0.2757
10901TIP3    H154118   1.903   1.646  16.636 -0.3797 -0.4505 -2.0101
10901TIP3    H254119   2.018   1.612  16.544  0.5525 -1.3996 -0.5288
10902TIP3   OH254120   0.412   1.857   5.766  0.4221  0.4014  0.3475
10902TIP3    H154121   0.356   1.851   5.843 -0.4866  0.3890 -0.2992
10902TIP3    H254122   0.392   1.778   5.716  1.7423 -0.0949  0.5621
10903TIP3   OH254123   0.642   4.771   3.085 -0.3287 -0.2069  0.2775
10903TIP3    H154124   0.558   4.782   3.129 -1.9078  0.3257 -2.5863
10903TIP3    H254125   0.678   4.860   3.079  0.0029 -0.3104  0.6594
10904TIP3   OH254126   1.698   1.644   1.575  0.1502  0.8487 -0.4465
10904TIP3    H154127   1.617   1.642   1.525  0.2053  0.0227 -0.5197
10904TIP3    H254128   1.767   1.630   1.510  0.3359  1.2764 -0.3462
10905TIP3   OH254129   4.548   3.630  17.007 -0.1887  0.2597  0.1590
10905TIP3    H154130   4.577   3.644  17.097  0.2945 -1.1062  0.2362
10905TIP3    H254131   4.498   3.549  17.011 -0.8410  0.6101 -0.6704
10906TIP3   OH254132   2.413   3.879  16.673  0.8994  0.3836 -0.3711
10906TIP3    H154133   2.452   3.803  16.715  0.2410  1.5507  2.6063
10906TIP3    H254134   2.440   3.953  16.727 -1.9195  1.7458 -0.6397
10907TIP3   OH254135   6.573   1.888  14.656  0.6336 -0.1682  0.1212
10907TIP3    H154136   6.481   1.895  14.630  0.7174  3.4010  0.2941
10907TIP3    H254137   6.610   1.975  14.637  3.7905 -1.2368  0.7914
10908TIP3   OH254138   4.560   4.869   1.462 -0.6343  0.2407  1.1736
10908TIP3    H154139   4.618   4.907   1.528  1.6689  1.1611 -1.1867
10908TIP3    H254140   4.538   4.943   1.405  0.2367 -1.0467 -0.9461
10909TIP3   OH254141   6.544   2.230  14.443 -0.4055 -0.5338 -0.0264
10909TIP3    H154142   6.483   2.159  14.426  0.2042 -0.7642 -1.3788
10909TIP3    H254143   6.505   2.306  14.401  0.6556 -0.8936 -1.7523
10910TIP3   OH254144   2.837   1.857   0.694 -0.0734 -0.0654 -0.1019
10910TIP3    H154145   2.776   1.783   0.690  1.0145 -0.9924 -0.4759
10910TIP3    H254146   2.789   1.926   0.738 -1.5499 -0.5947 -0.8153
10911TIP3   OH254147   4.497   1.281   2.642  0.5349 -0.0307 -0.5926
10911TIP3    H154148   4.499   1.309   2.551  1.7252  2.2593  0.0452
10911TIP3    H254149   4.548   1.348   2.689 -0.4175 -0.8745  1.8209
10912TIP3   OH254150   3.495   6.493  13.433  0.1384  0.0744  0.1765
10912TIP3    H154151   3.401   6.476  13.420  0.1732 -0.0155  0.0456
10912TIP3    H254152   3.516   6.448  13.515  0.1039 -0.0394  0.1226
10913TIP3   OH254153   2.060   5.379   6.277  0.1125 -0.1832  1.0781
10913TIP3    H154154   2.122   5.442   6.314  0.3124 -0.2660  0.8843
10913TIP3    H254155   1.979   5.429   6.265  0.2264 -0.0027  1.0684
10914TIP3   OH254156   1.691   3.434  14.005  0.4151 -0.1088  0.0442
10914TIP3    H154157   1.679   3.423  14.100 -1.1731 -2.7393 -0.3474
10914TIP3    H254158   1.786   3.424  13.992  0.6359  0.1427  1.3390
10915TIP3   OH254159   6.529   3.447  11.978  0.3382  0.0374  0.7131
10915TIP3    H154160   6.509   3.376  12.039 -1.0044  0.4841  0.8333
10915TIP3    H254161   6.481   3.424  11.898 -0.4188  0.9681  0.8789
10916TIP3   OH254162   1.106   4.737   4.448 -0.0209  0.0399  0.2370
10916TIP3    H154163   1.041   4.806   4.431  1.0396  0.8521 -0.7376
10916TIP3    H254164   1.075   4.663   4.396  0.9925  1.1741 -2.1438
10917TIP3   OH254165   3.400   0.420   4.704  0.3327 -0.7423 -0.1268
10917TIP3    H154166   3.388   0.331   4.672  2.1934 -0.8187 -0.7381
10917TIP3    H254167   3.495   0.435   4.698  0.0528  1.3020 -0.1002
10918TIP3   OH254168   1.689   0.819   1.289  0.5202 -0.3954 -0.2094
10918TIP3    H154169   1.622   0.768   1.334 -0.1734 -0.5761 -1.4127
10918TIP3    H254170   1.658   0.910   1.297  0.3332 -0.4395 -0.4370
10919TIP3   OH254171   3.199   1.048  11.926 -0.1457 -0.0669 -0.9184
10919TIP3    H154172   3.191   0.954  11.945  0.1162  0.2544  0.9746
10919TIP3    H254173   3.140   1.090  11.988  1.1054  1.1222 -0.4832
10920TIP3   OH254174   6.495   4.777  14.226  0.0344 -0.4537 -0.1915
10920TIP3    H154175   6.469   4.685  14.228 -0.0069 -0.4343  0.4819
10920TIP3    H254176   6.443   4.818  14.295  1.7490 -0.3959  1.1222
10921TIP3   OH254177   2.797   2.801  16.533 -0.3411 -0.1164 -0.0566
10921TIP3    H154178   2.822   2.723  16.582  0.0455  1.0225  1.6568
10921TIP3    H254179   2.707   2.819  16.560 -0.0480  0.6452  0.4587
10922TIP3   OH254180   3.365   6.691  15.612 -0.4992  0.2384 -0.0300
10922TIP3    H154181   3.314   6.703  15.693 -1.6828 -1.8187 -0.4158
10922TIP3    H254182   3.309   6.638  15.556  1.7789 -1.5568 -0.7587
10923TIP3   OH254183   3.832   5.188   4.703 -0.0099 -0.1889  0.4755
10923TIP3    H154184   3.825   5.148   4.790  1.3123 -1.4777  0.0446
10923TIP3    H254185   3.877   5.271   4.719  0.3989 -0.5045  1.0168
10924TIP3   OH254186   2.897   1.842  13.746  0.1073  0.6802  0.1398
10924TIP3    H154187   2.978   1.797  13.770 -0.4808 -0.1248  0.6973
10924TIP3    H254188   2.897   1.842  13.650  1.2028  1.5212  0.1207
10925TIP3   OH254189   4.685   5.046  10.719  0.2549 -0.5593 -0.2706
10925TIP3    H154190   4.725   5.106  10.781 -1.3123 -1.5660  1.8190
10925TIP3    H254191   4.605   5.090  10.692  0.5289 -0.4867 -0.9986
10926TIP3   OH254192   3.951   3.763  16.923  0.0119 -0.4579  0.1133
10926TIP3    H154193   3.898   3.696  16.881 -1.4880  1.2745 -0.9073
10926TIP3    H254194   3.892   3.805  16.986  0.3167  1.0814 -0.5788
10927TIP3   OH254195   0.371   5.812   2.439 -0.1915 -0.5846 -0.6612
10927TIP3    H154196   0.328   5.739   2.483 -0.8952 -0.1140 -0.5460
10927TIP3    H254197   0.327   5.890   2.474  0.1468 -0.1379 -1.2160
10928TIP3   OH254198   0.644   1.912   4.866  0.1719  0.0569 -0.1387
10928TIP3    H154199   0.556   1.928   4.830 -1.1256  0.4421  2.9576
10928TIP3    H254200   0.679   1.999   4.882  0.7191 -0.1152 -0.3795
10929TIP3   OH254201   5.022   0.023   4.564 -0.0831  0.0099  0.3625
10929TIP3    H154202   4.947   0.026   4.623  0.0067  0.1525  0.4703
10929TIP3    H254203   4.997  -0.039   4.496  0.5101 -1.5477  1.5110
10930TIP3   OH254204   2.261   5.360  15.717 -0.5070 -0.0099 -0.0307
10930TIP3    H154205   2.176   5.355  15.761 -0.5802 -0.3522 -0.2079
10930TIP3    H254206   2.306   5.279  15.742 -0.2679  0.1289 -0.0093
10931TIP3   OH254207   3.916   1.344  15.127 -0.3726  0.1833  0.1214
10931TIP3    H154208   4.001   1.327  15.168 -0.3279  0.0558 -0.0217
10931TIP3    H254209   3.932   1.416  15.068 -0.2772 -0.0816 -0.1783
10932TIP3   OH254210   3.034   3.526  12.139 -0.3987  0.5996  0.4107
10932TIP3    H154211   3.034   3.615  12.102  1.6120  0.3377 -0.3471
10932TIP3    H254212   2.944   3.496  12.127 -0.9079  2.2070 -0.1372
10933TIP3   OH254213   2.090   0.822   4.638  0.4204 -0.0986 -0.6196
10933TIP3    H154214   1.996   0.806   4.647  0.6153 -0.5962  0.8815
10933TIP3    H254215   2.107   0.899   4.692  0.8956 -0.0956 -0.7652
10934TIP3   OH254216   2.526   5.214   1.063 -0.0241 -0.0950  0.3271
10934TIP3    H154217   2.475   5.134   1.050 -0.6112  0.5542 -1.7669
10934TIP3    H254218   2.607   5.200   1.013  0.6726 -0.0394  1.3950
10935TIP3   OH254219   1.760   5.756   3.690  0.2573 -0.1057  0.8599
10935TIP3    H154220   1.770   5.851   3.698  1.1378 -0.2921  2.4734
10935TIP3    H254221   1.666   5.741   3.699  0.0658  0.6227  0.2192
10936TIP3   OH254222   4.166   3.014  10.878  0.4257 -0.5256  0.0132
10936TIP3    H154223   4.133   2.966  10.801  0.0521 -3.0360  1.6003
10936TIP3    H254224   4.258   3.031  10.858 -0.0328  0.2809 -1.5957
10937TIP3   OH254225   6.630   6.390  15.298 -0.1669 -0.5055  0.0806
10937TIP3    H154226   6.546   6.374  15.342  0.1408 -0.8697  0.5364
10937TIP3    H254227   6.692   6.405  15.369 -0.3028  2.2320 -0.2779
10938TIP3   OH254228   4.754   2.886  17.365 -0.0880 -0.2624  0.3322
10938TIP3    H154229   4.776   2.796  17.343 -0.4989 -0.7133  1.6839
10938TIP3    H254230   4.800   2.902  17.448 -0.6810  0.4875  0.5271
10939TIP3   OH254231   2.002   3.422  11.315  0.2682 -0.7419 -0.9924
10939TIP3    H154232   1.913   3.386  11.316  0.8609 -2.3793 -1.9938
10939TIP3    H254233   2.021   3.441  11.407 -1.3460  0.2959 -0.8354
10940TIP3   OH254234   0.386   3.685  16.798  0.0959  0.6733 -0.4422
10940TIP3    H154235   0.381   3.773  16.759 -0.9427  0.2666 -1.2596
10940TIP3    H254236   0.296   3.664  16.820  0.5520  0.5028  1.3716
10941TIP3   OH254237   4.860   0.721  15.121  0.1660  0.1867 -0.6242
10941TIP3    H154238   4.873   0.678  15.206  0.8710  0.8016 -0.4063
10941TIP3    H254239   4.765   0.720  15.108  0.1118 -0.6625 -0.2215
10942TIP3   OH254240   3.613   2.619   1.349 -0.0405 -0.1037  0.2383
10942TIP3    H154241   3.647   2.600   1.261  1.7343  0.3509  0.7818
10942TIP3    H254242   3.671   2.687   1.383 -2.1694  1.5123  0.8681
10943TIP3   OH254243   1.986   6.600   2.630  0.6543 -0.1604  0.0926
10943TIP3    H154244   1.988   6.505   2.640  1.5666 -0.2970 -1.2560
10943TIP3    H254245   2.077   6.627   2.634  0.5485  0.4557 -1.2584
10944TIP3   OH254246   2.966   5.873   4.914  0.2729 -0.2154  0.6654
10944TIP3    H154247   2.936   5.934   4.846  0.5080 -0.7639  0.0618
10944TIP3    H254248   3.026   5.814   4.869  0.0795 -0.8769  1.2456
10945TIP3   OH254249   0.850   3.128   6.436 -0.7001 -0.1839  0.1958
10945TIP3    H154250   0.769   3.093   6.399 -1.4303 -0.6425  2.1053
10945TIP3    H254251   0.901   3.050   6.459 -0.3582  0.0925  0.3827
10946TIP3   OH254252   6.399   6.021   1.912 -0.1580 -0.5182  0.6982
10946TIP3    H154253   6.313   6.063   1.903  0.5388  0.8621  0.1765
10946TIP3    H254254   6.462   6.092   1.898  1.0770 -1.3843  1.6602
10947TIP3   OH254255   0.474   5.509   0.193  0.6554  0.1510  0.0837
10947TIP3    H154256   0.509   5.529   0.280 -2.3000  0.2019  1.3907
10947TIP3    H254257   0.408   5.577   0.178  1.4745  0.4643 -2.4897
10948TIP3   OH254258   3.157   5.350   5.253 -0.2102 -0.5477  0.8522
10948TIP3    H154259   3.151   5.255   5.243 -0.7501 -0.5914  1.5076
10948TIP3    H254260   3.211   5.363   5.331  0.0376 -0.3021  0.6468
10949TIP3   OH254261   1.620   3.115  17.337  0.0097 -0.3252  0.1471
10949TIP3    H154262   1.615   3.202  17.298  2.1981  0.2165  0.9374
10949TIP3    H254263   1.550   3.065  17.294 -1.0523  1.6880 -0.5972
10950TIP3   OH254264   0.946   1.206  17.103 -0.0879 -0.2147 -0.0275
10950TIP3    H154265   0.913   1.128  17.148  1.1185  0.1145  1.4937
10950TIP3    H254266   0.990   1.256  17.171  1.6143  0.4407 -1.5492
10951TIP3   OH254267   1.340   0.763   3.552 -0.4891  0.4612  0.2731
10951TIP3    H154268   1.369   0.708   3.625 -1.0659 -0.8331 -0.4433
10951TIP3    H254269   1.309   0.701   3.486 -1.4044  1.6635 -0.4680
10952TIP3   OH254270   4.174   1.911   4.372  0.1740  0.8800 -0.1188
10952TIP3    H154271   4.262   1.879   4.348 -0.4008 -0.8341 -0.1264
10952TIP3    H254272   4.189   1.966   4.448  1.1677 -0.3470  0.6269
10953TIP3   OH254273   2.466   1.025   1.191 -0.0175 -0.7860  0.1641
10953TIP3    H154274   2.409   1.102   1.189  0.2927 -0.5725 -1.2109
10953TIP3    H254275   2.504   1.026   1.279 -0.1165  0.5547  0.2142
10954TIP3   OH254276   0.536   2.810   6.840 -0.2546  0.6546 -0.1694
10954TIP3    H154277   0.591   2.804   6.918  0.7068  0.7917 -0.8165
10954TIP3    H254278   0.483   2.730   6.841  1.8003 -0.7905 -0.8619
10955TIP3   OH254279   2.994   6.093   4.059 -0.2045  0.2381 -0.5755
10955TIP3    H154280   2.944   6.038   4.120 -2.4822 -0.2191 -2.6837
10955TIP3    H254281   2.994   6.180   4.099  0.2689 -0.4846  1.0729
10956TIP3   OH254282   0.266   2.748   2.459  0.5592 -0.2193 -0.2380
10956TIP3    H154283   0.265   2.776   2.550 -1.8145  1.3094 -0.6547
10956TIP3    H254284   0.224   2.662   2.459 -0.1628  0.1341  0.0202
10957TIP3   OH254285   0.013   5.573   6.522 -0.0079  0.3175 -0.4510
10957TIP3    H154286  -0.013   5.618   6.441  2.5891  0.3402 -1.3551
10957TIP3    H254287  -0.060   5.588   6.582 -0.9866  2.3494 -2.0194
10958TIP3   OH254288   3.311   1.613   0.795  0.4044 -0.1556 -0.1661
10958TIP3    H154289   3.342   1.607   0.705 -1.6573 -0.5398 -0.9143
10958TIP3    H254290   3.391   1.617   0.848  1.6844 -1.1551 -1.9076
10959TIP3   OH254291   0.149   2.481  14.110 -0.2670  0.3006  0.2997
10959TIP3    H154292   0.118   2.446  14.027  0.1238 -0.4407  0.4584
10959TIP3    H254293   0.076   2.470  14.171 -0.0526 -0.4931  0.4161
10960TIP3   OH254294   2.119   5.618  14.933 -0.0444 -0.6917 -0.1333
10960TIP3    H154295   2.155   5.604  15.021  1.0409  0.1726 -0.4165
10960TIP3    H254296   2.195   5.611  14.875 -0.5523 -0.1204 -0.8866
10961TIP3   OH254297   1.532   3.650   5.945 -0.1519 -0.3830  0.2049
10961TIP3    H154298   1.465   3.639   6.013 -0.9993  0.1631 -0.5156
10961TIP3    H254299   1.615   3.630   5.989 -0.9092 -2.6560  0.7211
10962TIP3   OH254300   4.980   5.610   0.970 -0.0496 -0.7173 -0.1263
10962TIP3    H154301   5.020   5.567   1.046  0.4403 -0.8840 -0.4703
10962TIP3    H254302   5.028   5.691   0.960 -0.2458 -0.6022 -0.1419
10963TIP3   OH254303   6.359   6.118  15.122 -0.1735  0.1023  0.3474
10963TIP3    H154304   6.385   6.208  15.140 -1.1941  0.5564 -0.3579
10963TIP3    H254305   6.409   6.093  15.044  1.2317 -0.4792  1.3982
10964TIP3   OH254306   6.139   5.602  11.896 -0.5161  0.0751 -0.6018
10964TIP3    H154307   6.098   5.663  11.835 -0.0282  0.1076 -0.9074
10964TIP3    H254308   6.068   5.544  11.924 -0.9400  0.6441 -0.4719
10965TIP3   OH254309   6.309   6.719  15.407  0.5897 -0.6172  0.1346
10965TIP3    H154310   6.349   6.799  15.374  1.8448 -1.6715 -0.9880
10965TIP3    H254311   6.215   6.736  15.403  0.8292  1.2458  1.1176
10966TIP3   OH254312   5.416   1.327  14.240 -0.4061 -0.3934  0.2007
10966TIP3    H154313   5.375   1.287  14.163 -1.2812  1.4090 -0.3182
10966TIP3    H254314   5.481   1.387  14.203 -0.4624  0.0945  0.8820
10967TIP3   OH254315   0.898   4.589   2.206 -0.2578  0.3789  0.0626
10967TIP3    H154316   0.948   4.639   2.270  0.4107 -0.7055  0.4085
10967TIP3    H254317   0.905   4.640   2.125 -1.9164  2.2778  1.0163
10968TIP3   OH254318   0.813   4.799  17.138  0.0430 -0.1712  0.5146
10968TIP3    H154319   0.882   4.756  17.087  0.1956  0.8249 -0.1543
10968TIP3    H254320   0.835   4.892  17.134 -1.3176  0.1643  0.3299
10969TIP3   OH254321   2.767   6.490   3.603  0.1175  0.1898 -0.4146
10969TIP3    H154322   2.760   6.445   3.518 -0.0348  0.8626 -0.7631
10969TIP3    H254323   2.850   6.537   3.598  0.4585 -0.3515  0.0993
10970TIP3   OH254324   5.806   5.325  12.696  0.4754  0.5173  0.4374
10970TIP3    H154325   5.833   5.344  12.606  0.8598  1.7232  0.7833
10970TIP3    H254326   5.778   5.234  12.695  1.3974  0.2337 -0.6970
10971TIP3   OH254327   3.499   2.300   1.196  0.2139 -0.4601 -0.3394
10971TIP3    H154328   3.458   2.291   1.110 -2.4068 -0.6674  0.8378
10971TIP3    H254329   3.443   2.250   1.255  1.9183 -0.3134  1.5372
10972TIP3   OH254330   4.268   5.140   5.342  0.3305  0.6154  0.0849
10972TIP3    H154331   4.322   5.131   5.263 -0.6169 -1.6049 -0.3951
10972TIP3    H254332   4.209   5.213   5.322  0.8251  0.7950 -0.7970
10973TIP3   OH254333   1.870   0.928   4.786 -0.0320 -1.0139 -0.2946
10973TIP3    H154334   1.799   0.975   4.830 -0.5850 -1.2568 -0.8950
10973TIP3    H254335   1.884   0.850   4.841  0.2862 -0.5896  0.2286
10974TIP3   OH254336   2.906   0.399  14.833 -0.0120  0.1269 -0.2458
10974TIP3    H154337   2.858   0.482  14.828  0.6724  0.5978  0.7406
10974TIP3    H254338   2.993   0.423  14.865  0.0515 -1.0155  0.5133
10975TIP3   OH254339   0.291   2.737   0.895 -0.3448 -0.1353  0.0733
10975TIP3    H154340   0.365   2.746   0.836  0.1043  0.8332  0.7642
10975TIP3    H254341   0.214   2.759   0.841 -0.0281 -0.1171 -0.3737
10976TIP3   OH254342   4.216   2.095  17.204  0.6514 -0.0748 -0.2680
10976TIP3    H154343   4.302   2.132  17.222  0.4852  0.0923  0.2079
10976TIP3    H254344   4.218   2.008  17.245  0.6953 -0.1910 -0.5147
10977TIP3   OH254345   2.154   4.656  17.310  0.0370  0.0899 -0.7161
10977TIP3    H154346   2.126   4.636  17.399 -0.3666 -0.7887 -1.0284
10977TIP3    H254347   2.247   4.677  17.318  0.3535 -1.3452 -0.2613
10978TIP3   OH254348   1.134   5.948  17.104  0.1732 -0.0199  0.0209
10978TIP3    H154349   1.115   5.985  17.190  0.1582  1.7212 -0.7031
10978TIP3    H254350   1.052   5.954  17.056  0.8947  1.8478 -1.0812
10979TIP3   OH254351   0.293   5.996  13.055  0.0928 -0.3868  0.5846
10979TIP3    H154352   0.317   6.070  13.111  0.5824 -1.5243  1.9608
10979TIP3    H254353   0.335   5.920  13.097  0.0079 -1.3797 -1.0393
10980TIP3   OH254354   3.560   3.016  13.371  0.6638 -0.0865  0.1406
10980TIP3    H154355   3.556   3.064  13.289 -0.9137  1.5872  1.1171
10980TIP3    H254356   3.482   2.959  13.369  0.8293 -0.3213  0.3126
10981TIP3   OH254357   5.353   6.387   6.452 -0.2527  0.6047 -0.1462
10981TIP3    H154358   5.258   6.375   6.462 -0.0828 -2.1392 -0.9672
10981TIP3    H254359   5.385   6.301   6.427  2.6868  1.0962  1.4925
10982TIP3   OH254360   3.144   0.236  12.477 -0.1122  0.4807 -1.1452
10982TIP3    H154361   3.232   0.259  12.507  0.3611 -2.5176  0.1341
10982TIP3    H254362   3.086   0.295  12.526  1.0108 -0.1876  1.1240
10983TIP3   OH254363   2.803   5.653   4.990 -0.4975  0.0008  0.0258
10983TIP3    H154364   2.768   5.658   5.079  1.6737 -1.4478  1.0593
10983TIP3    H254365   2.855   5.733   4.981 -2.0161  0.9485 -0.5917
10984TIP3   OH254366   6.277   4.860  15.428  0.2469  0.3959 -0.2739
10984TIP3    H154367   6.196   4.909  15.412  1.1872  1.5591 -1.7849
10984TIP3    H254368   6.270   4.784  15.370  0.0785  0.3137 -0.1461
10985TIP3   OH254369   2.254   5.489  15.475 -0.2562 -0.4422 -0.6333
10985TIP3    H154370   2.250   5.452  15.563  2.3488  1.0508  0.2397
10985TIP3    H254371   2.189   5.559  15.476  0.5485  0.3325  0.5768
10986TIP3   OH254372   4.135   2.272   6.136 -0.2733  0.1892 -0.5422
10986TIP3    H154373   4.106   2.275   6.227 -0.2097  0.1225 -0.5199
10986TIP3    H254374   4.230   2.261   6.142 -0.2502  0.3522 -0.6154
10987TIP3   OH254375   1.149   5.876   6.080  0.0437  0.2160 -0.4330
10987TIP3    H154376   1.061   5.846   6.057 -0.7036  1.2111  0.9071
10987TIP3    H254377   1.156   5.856   6.174  0.9459  0.8163 -0.3667
10988TIP3   OH254378   1.924   3.889   2.202 -0.0166 -0.8735 -0.1013
10988TIP3    H154379   1.917   3.961   2.139  0.5445 -0.4223  0.3277
10988TIP3    H254380   1.848   3.899   2.258 -0.6271 -1.3980 -0.8148
10989TIP3   OH254381   6.345   2.546   0.702  0.2074  0.6620 -0.2007
10989TIP3    H154382   6.366   2.487   0.629  0.7751  0.7342 -0.0988
10989TIP3    H254383   6.421   2.540   0.760 -0.0738  0.9034  0.1961
10990TIP3   OH254384   4.611   0.766  16.610  0.5890  0.3986 -0.0849
10990TIP3    H154385   4.644   0.851  16.582  0.7933  0.4271  0.2275
10990TIP3    H254386   4.662   0.745  16.689 -0.5461  0.7083  0.7602
10991TIP3   OH254387   1.711   5.912  11.265  0.5009  0.0994 -0.1038
10991TIP3    H154388   1.723   5.948  11.177  2.0823  0.5634  0.2720
10991TIP3    H254389   1.747   5.979  11.323 -0.9009 -0.0156  0.9468
10992TIP3   OH254390   4.560   5.871   5.436 -0.5276  0.7869  0.1896
10992TIP3    H154391   4.593   5.808   5.500 -3.7643 -1.8094 -0.4421
10992TIP3    H254392   4.484   5.911   5.478 -1.8055  0.1452 -1.3856
10993TIP3   OH254393   4.335   4.183   2.140 -0.4692  0.1237  0.8427
10993TIP3    H154394   4.278   4.257   2.120 -1.2929 -0.7258 -0.0341
10993TIP3    H254395   4.373   4.205   2.226  0.4044  2.2036 -0.0019
10994TIP3   OH254396   2.495   4.214   6.205  0.0014 -0.1087 -0.3155
10994TIP3    H154397   2.589   4.218   6.217 -0.1382 -2.2612  2.4775
10994TIP3    H254398   2.481   4.141   6.144  0.0964 -0.6794  0.3440
10995TIP3   OH254399   4.949   5.268   1.314  0.2558  0.1959 -0.0108
10995TIP3    H154400   4.902   5.283   1.396  0.1580 -0.0870 -0.0143
10995TIP3    H254401   5.033   5.231   1.341  0.3872  0.4870 -0.0170
10996TIP3   OH254402   2.020   4.634  13.611 -0.3642  0.3946 -0.2194
10996TIP3    H154403   2.105   4.665  13.641 -0.6672 -0.2584  1.4150
10996TIP3    H254404   1.974   4.608  13.691 -1.9956  0.4565 -1.0886
10997TIP3   OH254405   2.527   3.761  12.425  0.7331  0.1678  0.1655
10997TIP3    H154406   2.604   3.818  12.424  0.9289 -0.1126 -0.5861
10997TIP3    H254407   2.492   3.765  12.336  1.0547 -1.3015 -0.0451
10998TIP3   OH254408   2.661   3.200   4.220  0.3033  0.3145  0.3198
10998TIP3    H154409   2.726   3.236   4.160  0.4262  0.8150  0.7475
10998TIP3    H254410   2.622   3.277   4.262 -1.1730  0.0957 -0.5474
10999TIP3   OH254411   5.328   0.437   5.022  0.1830 -0.3614 -0.1264
10999TIP3    H154412   5.343   0.502   4.953  0.7443 -1.2747 -0.8841
10999TIP3    H254413   5.336   0.353   4.978 -1.7094 -0.9740  0.5895
11000TIP3   OH254414   6.522   5.357   3.344  0.3763  0.1374 -0.1744
11000TIP3    H154415   6.616   5.374   3.342  0.1920  1.2892  0.1469
11000TIP3    H254416   6.487   5.405   3.269  0.3870 -2.9435 -2.3241
11001TIP3   OH254417   5.951   4.992   0.113  0.2154 -0.3558  0.2257
11001TIP3    H154418   6.038   4.993   0.072 -0.7177 -0.4911 -1.8855
11001TIP3    H254419   5.944   5.078   0.156  0.4543  0.7100 -1.7569
11002TIP3   OH254420   0.566   4.580   2.911 -0.1512 -0.3470  0.4023
11002TIP3    H154421   0.484   4.553   2.954  0.0110 -0.6111  0.5500
11002TIP3    H254422   0.604   4.644   2.971 -0.1663 -0.3505  0.4159
11003TIP3   OH254423   3.945   5.161  13.838  0.1972  0.0913 -0.1761
11003TIP3    H154424   3.851   5.152  13.855  0.4340 -1.1141  0.6341
11003TIP3    H254425   3.958   5.122  13.752  0.0244 -0.2721 -0.0416
11004TIP3   OH254426   3.974   1.944  13.781 -0.1883  0.1979  0.2628
11004TIP3    H154427   4.010   1.903  13.702  0.1505  0.3542  0.3319
11004TIP3    H254428   3.879   1.933  13.773 -0.1075 -0.5996  0.2795
11005TIP3   OH254429   6.093   4.194  13.032  0.2718  0.2441  0.9967
11005TIP3    H154430   6.023   4.130  13.016  1.5947 -0.9020 -0.5227
11005TIP3    H254431   6.081   4.260  12.964  0.6717  0.0345  0.7211
11006TIP3   OH254432   5.525   6.221   6.148 -0.1718 -0.0231  0.2349
11006TIP3    H154433   5.534   6.210   6.243  0.4064 -0.3715  0.1447
11006TIP3    H254434   5.525   6.132   6.113  0.2646  0.1171 -0.1400
11007TIP3   OH254435   6.626   2.185  10.291  0.5640  0.1822 -0.2734
11007TIP3    H154436   6.670   2.269  10.303 -0.2181  0.7730 -1.3457
11007TIP3    H254437   6.694   2.119  10.304  2.1153  1.0954 -3.0618
11008TIP3   OH254438   2.338   5.962  12.673 -0.5555 -0.3541 -0.2501
11008TIP3    H154439   2.353   5.896  12.605 -1.5667  0.8076 -1.6650
11008TIP3    H254440   2.336   6.045  12.625 -1.4349  0.4836  1.1766
11009TIP3   OH254441   1.340   0.536  15.231  0.1433  0.7514 -0.2196
11009TIP3    H154442   1.246   0.554  15.219 -0.7610 -1.7274  2.0708
11009TIP3    H254443   1.349   0.442  15.212  1.5639  0.3239  2.1446
11010TIP3   OH254444   2.178   1.074   2.540  0.2956  0.2405 -1.1028
11010TIP3    H154445   2.109   1.132   2.572  0.1312  0.0025 -1.0180
11010TIP3    H254446   2.243   1.073   2.610  0.1488  0.0760 -0.9665
11011TIP3   OH254447   5.132   0.839  17.380 -0.3558  0.5239 -0.1407
11011TIP3    H154448   5.195   0.910  17.391 -1.2162  0.9923  2.4391
11011TIP3    H254449   5.076   0.844  17.458 -1.9039 -1.5484 -1.0189
11012TIP3   OH254450   0.612   5.950   4.245  0.1900 -0.5165 -0.4093
11012TIP3    H154451   0.670   5.912   4.310 -0.3469 -1.6784 -0.5879
11012TIP3    H254452   0.648   5.923   4.161 -0.0683 -0.4529 -0.5427
11013TIP3   OH254453   2.540   2.305  11.307  0.0666  0.6325  0.7240
11013TIP3    H154454   2.562   2.395  11.329  1.0768  0.9884 -1.5448
11013TIP3    H254455   2.454   2.309  11.268  0.1041  0.6004  0.6382
11014TIP3   OH254456   4.285   5.211   2.761  0.2626  0.5195 -0.2376
11014TIP3    H154457   4.231   5.137   2.735 -1.0550  1.6537 -0.8288
11014TIP3    H254458   4.315   5.189   2.850  0.3128 -0.9194 -0.5925
11015TIP3   OH254459   2.942   6.581   5.691  0.0980  0.2255  0.3256
11015TIP3    H154460   2.919   6.488   5.685 -1.0338  0.5012  0.1438
11015TIP3    H254461   2.947   6.598   5.785  3.7238 -0.7733  0.4705
11016TIP3   OH254462   2.601   2.902  13.424 -0.3858 -0.0323  0.1182
11016TIP3    H154463   2.627   2.952  13.346  1.1467  0.3645  0.8477
11016TIP3    H254464   2.604   2.811  13.395 -0.9251  0.1678 -0.5921
11017TIP3   OH254465   6.247   0.797  12.329  0.0891  0.2846  0.3715
11017TIP3    H154466   6.235   0.702  12.336 -2.4093  0.3803 -1.2182
11017TIP3    H254467   6.317   0.817  12.390  1.2038 -2.6769  0.2252
11018TIP3   OH254468   5.686   3.269   4.592  0.8691  0.1078  0.6069
11018TIP3    H154469   5.618   3.253   4.526 -1.0928  1.2063  2.2601
11018TIP3    H254470   5.745   3.333   4.551  1.1053 -1.0487 -0.9478
11019TIP3   OH254471   3.365   5.941  11.918  0.2174  1.0427  0.4804
11019TIP3    H154472   3.408   5.942  11.832  0.3531  0.6772  0.5413
11019TIP3    H254473   3.381   5.853  11.952 -1.3015  0.5962  0.1388
11020TIP3   OH254474   6.565   0.195  14.664 -0.5829  0.4015  0.2506
11020TIP3    H154475   6.586   0.134  14.735  0.0497  1.7963  1.3097
11020TIP3    H254476   6.617   0.165  14.590 -0.2350 -0.3038  0.7687
11021TIP3   OH254477   6.067   4.788  11.140  0.5386 -0.2307  0.0231
11021TIP3    H154478   6.122   4.721  11.099  0.3809 -1.7978  2.1537
11021TIP3    H254479   5.977   4.761  11.120  0.4581 -1.0449  1.3152
11022TIP3   OH254480   4.355   4.614  13.172 -0.3642  0.7017 -0.0647
11022TIP3    H154481   4.323   4.573  13.092  0.4259 -0.3372  0.1213
11022TIP3    H254482   4.287   4.676  13.197 -1.5249 -0.3567 -0.4907
11023TIP3   OH254483   5.126   1.805  13.659 -0.3905  0.4864  0.5417
11023TIP3    H154484   5.073   1.742  13.611 -0.4321  0.1947  0.9635
11023TIP3    H254485   5.100   1.890  13.624 -0.3069  0.2675 -0.0545
11024TIP3   OH254486   5.289   2.605   0.008  0.4200  0.5481  0.1063
11024TIP3    H154487   5.300   2.590  -0.086 -0.1019 -1.0154  0.2560
11024TIP3    H254488   5.367   2.566   0.048 -0.1362 -0.2927  0.4094
11025TIP3   OH254489   1.524   3.321  17.148 -0.7538 -0.3109 -0.1224
11025TIP3    H154490   1.489   3.252  17.092 -1.4660 -0.0245 -0.0423
11025TIP3    H254491   1.486   3.402  17.114  0.0076  0.0415 -0.1664
11026TIP3   OH254492   2.938   4.604  12.787 -0.3776 -0.0134 -0.1515
11026TIP3    H154493   2.863   4.662  12.775  0.5174  0.9863 -1.1825
11026TIP3    H254494   2.972   4.625  12.874  0.5110  1.7645 -0.8753
11027TIP3   OH254495   3.017   5.351  16.959  0.0330 -0.0272 -0.5308
11027TIP3    H154496   2.960   5.275  16.976  1.9378 -1.4913 -0.3063
11027TIP3    H254497   3.042   5.382  17.046  1.5115 -0.9750 -0.5833
11028TIP3   OH254498   5.688   4.287   1.619 -0.2480  0.1047  0.2094
11028TIP3    H154499   5.651   4.255   1.537  0.7826  0.9866 -0.6233
11028TIP3    H254500   5.650   4.375   1.630 -0.3695 -0.0006  0.6710
11029TIP3   OH254501   1.918   1.371  15.344 -0.5837  0.3760  0.0827
11029TIP3    H154502   1.955   1.441  15.398 -0.6594 -0.4077  1.1895
11029TIP3    H254503   1.834   1.406  15.315 -0.6197  0.7612  0.6245
11030TIP3   OH254504   3.282   2.023  14.634 -0.0045 -0.1153 -0.0564
11030TIP3    H154505   3.210   2.050  14.577 -0.4231  0.6537  0.8085
11030TIP3    H254506   3.249   2.038  14.723 -0.1368 -3.1547  0.5016
11031TIP3   OH254507   4.000   5.462   4.763  0.1800 -0.0103  0.1749
11031TIP3    H154508   4.044   5.378   4.753 -0.2714 -0.3113  0.6549
11031TIP3    H254509   4.013   5.506   4.679  2.7557  0.5838  0.7914
11032TIP3   OH254510   4.818   5.686  16.871 -0.3374 -0.0163  0.4051
11032TIP3    H154511   4.833   5.613  16.811 -1.5765  0.3643 -0.4368
11032TIP3    H254512   4.836   5.651  16.958 -1.5286 -1.5406  0.0831
11033TIP3   OH254513   4.046   1.749  15.656  0.0980  0.4485  0.2523
11033TIP3    H154514   4.041   1.671  15.601  1.1711  0.4699  0.0970
11033TIP3    H254515   4.023   1.719  15.744  2.9967 -0.6653  0.7416
11034TIP3   OH254516   0.566   2.415   3.240 -0.3369  0.5875 -0.6171
11034TIP3    H154517   0.558   2.369   3.156 -2.6154  1.0153 -0.7032
11034TIP3    H254518   0.657   2.401   3.266  0.2737 -0.0693 -2.8497
11035TIP3   OH254519   0.917   3.584   5.552  0.5107  0.2883 -0.3691
11035TIP3    H154520   0.997   3.537   5.575  0.3277 -0.6880 -1.5622
11035TIP3    H254521   0.905   3.648   5.622  0.7099 -1.5337  1.4194
11036TIP3   OH254522   5.733   0.466  11.848  0.4198  0.0327  0.0336
11036TIP3    H154523   5.684   0.443  11.769 -0.3421  0.5321  0.3373
11036TIP3    H254524   5.751   0.382  11.891  1.5774 -0.3040 -1.0745
11037TIP3   OH254525   0.251   0.764   6.046 -0.6613  0.1806  0.2972
11037TIP3    H154526   0.277   0.714   6.123  1.1282  0.7367  0.1033
11037TIP3    H254527   0.296   0.721   5.973 -1.3219  0.4112 -0.2546
11038TIP3   OH254528   3.986   0.405   4.455  0.2084  0.3018  0.7799
11038TIP3    H154529   4.038   0.476   4.494  3.7572 -1.3388 -0.4990
11038TIP3    H254530   3.981   0.339   4.525 -2.6701  1.4219  1.8005
11039TIP3   OH254531   1.152   2.056  16.300 -0.0734 -0.2419  0.6159
11039TIP3    H154532   1.178   2.108  16.376  2.8016 -0.4209 -0.1171
11039TIP3    H254533   1.135   2.120  16.231 -0.7324 -0.1611  0.8415
11040TIP3   OH254534   0.418   2.590  17.370  0.2476 -0.2422 -0.4386
11040TIP3    H154535   0.498   2.566  17.324  2.8203  0.6381  3.0974
11040TIP3    H254536   0.406   2.683  17.349  1.1184  0.0269  0.1605
11041TIP3   OH254537   6.609   1.169   4.859  0.1982  0.2836  0.5895
11041TIP3    H154538   6.597   1.251   4.905  1.0399  1.0832 -0.5490
11041TIP3    H254539   6.689   1.182   4.807 -0.3171 -0.7956 -0.5425
11042TIP3   OH254540   4.524   3.786  11.669 -0.3795 -0.3484 -0.0772
11042TIP3    H154541   4.616   3.809  11.659 -0.3883 -0.8916 -1.7110
11042TIP3    H254542   4.501   3.740  11.588 -1.7652 -1.3317  0.8109
11043TIP3   OH254543   2.196   6.438  11.879 -0.4012  0.0914 -0.1967
11043TIP3    H154544   2.283   6.423  11.842 -0.5375  0.7953 -0.8253
11043TIP3    H254545   2.213   6.465  11.969  0.0240  0.0937 -0.2755
11044TIP3   OH254546   4.692   3.584   3.001 -0.2455 -0.1448 -0.1408
11044TIP3    H154547   4.629   3.570   2.931 -1.3312  1.4634  0.4510
11044TIP3    H254548   4.694   3.679   3.014  0.2387 -0.3529  1.7100
11045TIP3   OH254549   0.524   4.770   0.628 -0.1243  0.0019 -0.4784
11045TIP3    H154550   0.550   4.861   0.616 -1.6578  0.4012 -0.8885
11045TIP3    H254551   0.580   4.739   0.699  0.9014  1.0385 -0.7926
11046TIP3   OH254552   4.230   4.674   5.628 -0.3499 -0.1448  0.0275
11046TIP3    H154553   4.229   4.583   5.657 -0.5553  0.1800  1.0873
11046TIP3    H254554   4.297   4.677   5.560  0.4401 -0.8588  0.7476
11047TIP3   OH254555   3.549   2.369   0.445  0.2753  0.4174  0.0857
11047TIP3    H154556   3.472   2.318   0.473 -0.0017  0.8893  0.1885
11047TIP3    H254557   3.513   2.439   0.391  0.6862  0.3288 -0.3069
11048TIP3   OH254558   1.591   6.512  15.821 -0.2638 -0.1572 -0.2650
11048TIP3    H154559   1.501   6.501  15.792  0.0877  0.2762 -1.5632
11048TIP3    H254560   1.634   6.561  15.751  1.3040 -1.4391 -0.2762
11049TIP3   OH254561   0.311   5.544  15.994  0.5147  0.0009 -0.0194
11049TIP3    H154562   0.259   5.568  15.917  0.1873 -0.7322 -0.0436
11049TIP3    H254563   0.378   5.612  16.001 -0.0287  0.5851 -0.3982
11050TIP3   OH254564   6.082   2.112   4.167 -0.6092  0.2730  0.0037
11050TIP3    H154565   6.160   2.159   4.140 -0.1104 -0.0270  0.8875
11050TIP3    H254566   6.092   2.101   4.262 -1.6133  0.0416  0.0949
11051TIP3   OH254567   0.652   3.877  16.859  0.2816 -0.1605  0.1852
11051TIP3    H154568   0.561   3.880  16.828 -0.3388  1.3284  1.9381
11051TIP3    H254569   0.704   3.891  16.780 -1.1524  1.8642 -0.5167
11052TIP3   OH254570   1.205   3.146  13.161  0.4414  0.2911 -0.5310
11052TIP3    H154571   1.138   3.177  13.221  1.9853  0.4087  1.2187
11052TIP3    H254572   1.174   3.059  13.133 -0.2655  0.1865  0.5240
11053TIP3   OH254573   1.391   2.249  15.222  0.6912  0.2025 -0.6081
11053TIP3    H154574   1.463   2.295  15.179  0.7899 -1.7241 -2.6924
11053TIP3    H254575   1.366   2.306  15.294  3.0244  1.8379 -0.9784
11054TIP3   OH254576   2.383   6.095   0.541  0.1183  0.1155  0.1192
11054TIP3    H154577   2.357   6.003   0.526  0.6709 -0.1702  0.8590
11054TIP3    H254578   2.467   6.103   0.497  0.5128 -0.0006  0.8405
11055TIP3   OH254579   1.259   3.568  13.027 -0.0891 -0.8140 -0.0426
11055TIP3    H154580   1.212   3.580  13.110  2.1817 -2.7434  1.6847
11055TIP3    H254581   1.266   3.656  12.991 -1.9821 -0.0276  1.3193
11056TIP3   OH254582   0.982   0.233  13.597 -0.3683  0.1085 -0.2544
11056TIP3    H154583   0.896   0.268  13.572 -0.5503  1.3603  1.9202
11056TIP3    H254584   1.044   0.292  13.555 -0.6720  2.7328  2.6454
11057TIP3   OH254585   3.246   4.347  12.817 -0.3632  0.0077 -0.2111
11057TIP3    H154586   3.290   4.272  12.859 -0.0593 -0.9635 -2.1369
11057TIP3    H254587   3.153   4.324  12.818 -0.2557 -0.5057 -0.9352
11058TIP3   OH254588   3.032   3.861   5.198  0.0181  0.5368  0.7245
11058TIP3    H154589   3.102   3.850   5.261  1.7989  2.0181 -0.8632
11058TIP3    H254590   2.980   3.781   5.204  3.4512 -1.9406  0.0773
11059TIP3   OH254591   4.530   1.102  15.953 -0.0080 -0.4020  0.6572
11059TIP3    H154592   4.457   1.111  15.892  0.3706 -1.4432  0.0274
11059TIP3    H254593   4.511   1.165  16.023 -0.7726  0.3468 -0.2058
11060TIP3   OH254594   2.559   0.876  10.812  0.2824  0.2962  0.0368
11060TIP3    H154595   2.518   0.896  10.897 -1.7350 -0.8848 -0.5908
11060TIP3    H254596   2.490   0.894  10.748  1.2961 -0.2428 -1.2356
11061TIP3   OH254597   4.218   3.344   0.063 -0.8889 -0.0398  0.2139
11061TIP3    H154598   4.187   3.295  -0.014  1.0681 -0.0223 -0.6313
11061TIP3    H254599   4.290   3.291   0.098 -1.7390 -0.0484  2.0707
11062TIP3   OH254600   1.036   6.037  12.583  0.8299 -0.0563 -0.5880
11062TIP3    H154601   0.982   5.962  12.610  1.0376 -0.5560 -1.4925
11062TIP3    H254602   1.001   6.111  12.632  0.4140 -0.6866  0.0970
11063TIP3   OH254603   5.082   0.367  10.854 -0.2455 -0.4619  1.2089
11063TIP3    H154604   5.150   0.324  10.803 -1.9577 -0.7674 -0.9560
11063TIP3    H254605   5.098   0.461  10.842 -1.6085 -0.4682 -1.5154
11064TIP3   OH254606   2.542   1.364  11.487 -0.0453 -0.1716 -0.2029
11064TIP3    H154607   2.586   1.288  11.527 -1.4419 -0.8674  0.0665
11064TIP3    H254608   2.547   1.432  11.554  1.3242  0.0427 -0.4916
11065TIP3   OH254609   5.299   4.613   2.279 -0.0364 -0.1127 -0.1275
11065TIP3    H154610   5.321   4.583   2.190 -0.0425 -0.5792  0.0243
11065TIP3    H254611   5.203   4.613   2.280 -0.0639  1.3643 -0.6040
11066TIP3   OH254612   3.028   3.395  14.697  0.0710  0.0048  0.1460
11066TIP3    H154613   2.988   3.473  14.659 -0.4116  0.0959  0.8193
11066TIP3    H254614   3.104   3.429  14.745 -0.6978  0.2070  1.2652
11067TIP3   OH254615   3.327   0.764  15.471  0.3691  0.0648 -0.2208
11067TIP3    H154616   3.298   0.762  15.562 -0.2280 -1.1252 -0.4182
11067TIP3    H254617   3.404   0.708  15.469  0.6386  0.4348 -0.3748
11068TIP3   OH254618   4.928   2.143  12.129 -0.0982  0.2066  0.1618
11068TIP3    H154619   4.895   2.233  12.124  2.0927  1.0356 -0.9252
11068TIP3    H254620   4.865   2.092  12.079 -2.3921  0.7262  2.3146
11069TIP3   OH254621   1.520   4.723   0.868 -0.1465 -0.1174 -0.2594
11069TIP3    H154622   1.458   4.794   0.855 -0.4605  0.0519  1.8214
11069TIP3    H254623   1.464   4.645   0.881  0.1688 -0.5315 -1.2791
11070TIP3   OH254624   5.406   0.749   6.618 -0.3302 -0.2490 -0.2472
11070TIP3    H154625   5.322   0.736   6.574 -0.8578  0.0383  0.6275
11070TIP3    H254626   5.401   0.693   6.695  0.8097 -1.1827 -0.8269
11071TIP3   OH254627   0.969   6.640  15.017  0.4600  0.5806  0.3343
11071TIP3    H154628   0.970   6.548  15.043  0.2858  0.6745  0.6790
11071TIP3    H254629   0.877   6.659  14.999  0.6906  0.2603 -1.2882
11072TIP3   OH254630   0.347   0.212   4.207 -0.5827 -0.3695  0.4836
11072TIP3    H154631   0.278   0.246   4.150  2.5320 -0.4986 -3.8685
11072TIP3    H254632   0.400   0.288   4.230  0.4462 -0.8372 -0.2723
11073TIP3   OH254633   5.468   6.656   0.307 -0.2253  0.6577  0.5815
11073TIP3    H154634   5.562   6.667   0.319 -0.2823  1.0655  0.6510
11073TIP3    H254635   5.439   6.614   0.388 -0.0417  0.1428  0.3901
11074TIP3   OH254636   6.424   1.895   6.079 -0.3457 -0.3509 -0.3107
11074TIP3    H154637   6.344   1.910   6.131 -0.1789  0.0571 -0.1702
11074TIP3    H254638   6.474   1.833   6.131 -0.6909 -0.8123 -0.5250
11075TIP3   OH254639   4.070   2.924   0.178  0.2406  0.0719 -0.2616
11075TIP3    H154640   4.129   2.890   0.246  1.7328  1.9313 -0.5317
11075TIP3    H254641   4.006   2.977   0.226 -0.2177 -0.6112 -0.1091
11076TIP3   OH254642   6.130   0.219  11.770  0.1298 -0.1296  1.1208
11076TIP3    H154643   6.108   0.184  11.856 -0.9441 -0.2077  0.8237
11076TIP3    H254644   6.169   0.146  11.723 -2.7671 -1.2452  0.2428
11077TIP3   OH254645   1.316   0.947  17.042 -0.2420 -0.0300 -0.4157
11077TIP3    H154646   1.367   1.022  17.012  1.9371 -1.1649  0.2579
11077TIP3    H254647   1.268   0.980  17.119  0.4023  0.7510 -0.3405
11078TIP3   OH254648   2.050   5.069   2.673 -0.5008  0.2843  0.7014
11078TIP3    H154649   2.044   5.079   2.768 -0.2275  1.1217  0.6421
11078TIP3    H254650   2.043   5.159   2.639  0.5724  0.1182 -0.0034
11079TIP3   OH254651   4.771   0.356  15.428  0.1172  0.1040  0.1235
11079TIP3    H154652   4.705   0.383  15.491 -0.6726  1.2484 -1.1161
11079TIP3    H254653   4.824   0.435  15.413  1.8827 -0.8160  1.1797
11080TIP3   OH254654   2.076   2.951   4.590 -0.0532 -0.4588 -0.0883
11080TIP3    H154655   2.059   3.001   4.670 -0.8387  1.2632 -1.2790
11080TIP3    H254656   1.997   2.900   4.576  0.0197 -0.6354  0.1339
11081TIP3   OH254657   2.153   1.472   4.552  0.2641  0.4946  0.6535
11081TIP3    H154658   2.179   1.562   4.532  0.9204  0.1272 -0.2365
11081TIP3    H254659   2.151   1.429   4.466 -1.1577 -0.0580  0.9390
11082TIP3   OH254660   2.891   6.186   5.206 -0.4992 -0.8936 -0.7524
11082TIP3    H154661   2.894   6.158   5.297 -0.3613  0.3841 -0.3349
11082TIP3    H254662   2.803   6.221   5.194  1.0584  4.7673  0.8712
11083TIP3   OH254663   1.302   5.303   1.780  0.1534  0.3291 -0.2395
11083TIP3    H154664   1.310   5.233   1.845  0.0513  0.3225 -0.2331
11083TIP3    H254665   1.215   5.340   1.796  0.1655  0.3887 -0.3117
11084TIP3   OH254666   6.419   3.506   0.920  0.0059  0.0391 -0.0136
11084TIP3    H154667   6.345   3.446   0.917 -1.0665  1.2344  1.0990
11084TIP3    H254668   6.421   3.548   0.834 -1.4198  0.8888  0.3345
11085TIP3   OH254669   4.217   3.280  13.907  0.6231  0.4161  0.0642
11085TIP3    H154670   4.165   3.303  13.830  0.7836  0.7151  0.0430
11085TIP3    H254671   4.301   3.324  13.893  0.0805  1.9050  1.2061
11086TIP3   OH254672   3.277   5.150  13.233  0.8459  0.1114 -0.1083
11086TIP3    H154673   3.191   5.178  13.205  0.8713  2.0584  1.5329
11086TIP3    H254674   3.260   5.084  13.300  0.6261  0.2937  0.0172
11087TIP3   OH254675   5.880   3.393   0.845  0.0698 -0.2522  0.4062
11087TIP3    H154676   5.943   3.440   0.898  3.0724 -2.7544 -0.6343
11087TIP3    H254677   5.885   3.302   0.876 -1.6237 -0.8875 -0.9958
11088TIP3   OH254678   5.217   5.421   1.766 -0.1069  0.0611 -0.1826
11088TIP3    H154679   5.277   5.495   1.771  0.3242 -0.3143  0.3250
11088TIP3    H254680   5.154   5.436   1.837 -0.5308  0.3765 -0.6186
11089TIP3   OH254681   2.722   6.603   5.239 -0.0139 -0.5143 -0.0817
11089TIP3    H154682   2.704   6.557   5.157  2.4180  0.1493 -1.0777
11089TIP3    H254683   2.672   6.684   5.232 -1.1302 -1.1915 -0.1330
11090TIP3   OH254684   1.170   0.318  12.606 -0.3400 -0.0907  0.2800
11090TIP3    H154685   1.193   0.370  12.529  1.2248 -0.9417  0.1238
11090TIP3    H254686   1.239   0.337  12.670 -0.7436 -0.6004  0.8816
11091TIP3   OH254687   5.439   0.678  14.980 -0.0234  0.1525 -0.8275
11091TIP3    H154688   5.495   0.692  14.903  0.7468  1.1441 -0.1050
11091TIP3    H254689   5.397   0.593  14.963  2.0490 -0.8747 -1.1801
11092TIP3   OH254690   0.590   1.448  17.101 -0.0680 -0.3170 -0.2154
11092TIP3    H154691   0.533   1.372  17.090  0.2570 -0.9057  1.7269
11092TIP3    H254692   0.532   1.523  17.092 -0.8789 -0.8733  0.2794
11093TIP3   OH254693   6.466   5.454  15.639  0.3601 -0.4116 -0.0113
11093TIP3    H154694   6.500   5.365  15.647 -0.1147 -0.8063 -1.8975
11093TIP3    H254695   6.371   5.446  15.650  0.3750 -0.0211  0.4767
11094TIP3   OH254696   0.288   1.059   3.195  0.0096  0.1546  0.3438
11094TIP3    H154697   0.298   0.968   3.221 -1.4665  0.4073  1.9991
11094TIP3    H254698   0.378   1.091   3.182  0.5132 -1.8226 -1.5778
11095TIP3   OH254699   4.325   1.743  16.377  0.2325  0.0564 -0.5726
11095TIP3    H154700   4.414   1.721  16.348  0.0534 -0.9219 -0.3971
11095TIP3    H254701   4.292   1.663  16.417 -0.6123  0.5163 -0.3279
11096TIP3   OH254702   5.507   2.333   3.761 -0.2862  0.6980 -0.1888
11096TIP3    H154703   5.586   2.328   3.707  0.2435  3.0669  0.2257
11096TIP3    H254704   5.457   2.406   3.724 -0.3361  1.7982  1.8614
11097TIP3   OH254705   1.302   2.695  11.742  0.0351 -0.4173 -0.2312
11097TIP3    H154706   1.286   2.789  11.744  0.2160 -0.3929  0.0964
11097TIP3    H254707   1.218   2.657  11.714 -0.4907 -0.2611  1.0538
11098TIP3   OH254708   1.732   2.568   1.221 -0.9050 -0.1006 -0.2579
11098TIP3    H154709   1.694   2.481   1.229 -0.9645 -0.1600 -1.0702
11098TIP3    H254710   1.795   2.560   1.149 -2.3620  1.0027 -1.7007
11099TIP3   OH254711   6.065   2.673  12.278 -0.1817 -0.6204 -0.1979
11099TIP3    H154712   5.980   2.629  12.283 -0.7933  0.4342 -0.8035
11099TIP3    H254713   6.114   2.622  12.213 -1.4261  0.4043 -2.0409
11100TIP3   OH254714   6.273   2.185   6.672  0.3294 -0.7496 -0.1522
11100TIP3    H154715   6.358   2.162   6.634  0.1740 -0.6930 -0.5499
11100TIP3    H254716   6.290   2.263   6.725  0.1248  0.7529 -2.1315
11101TIP3   OH254717   3.720   4.465  11.503 -0.1147 -0.5328  0.0957
11101TIP3    H154718   3.704   4.370  11.502  1.3758 -0.8005 -0.8753
11101TIP3    H254719   3.780   4.480  11.431 -0.0809  1.1274  0.4367
11102TIP3   OH254720   2.712   0.750   0.415 -0.8863 -0.3379 -0.5132
11102TIP3    H154721   2.683   0.817   0.353  1.3627  1.6107  0.3862
11102TIP3    H254722   2.735   0.675   0.361 -1.1544  0.4816 -1.8105
11103TIP3   OH254723   4.729   4.946   2.931  0.3180 -0.4477  0.0882
11103TIP3    H154724   4.706   4.992   2.850 -0.9209  0.0651  0.7042
11103TIP3    H254725   4.823   4.931   2.924  0.2391 -0.3659 -1.4187
11104TIP3   OH254726   5.298   3.958   6.057 -0.3952 -0.1569  0.5174
11104TIP3    H154727   5.335   3.956   6.145  2.7154  0.0209 -0.6523
11104TIP3    H254728   5.324   4.043   6.022 -0.9768 -0.5036 -0.8127
11105TIP3   OH254729   0.043   4.118   4.935 -0.2304  0.4202  0.0874
11105TIP3    H154730   0.061   4.024   4.933 -0.1702  0.2735  2.9230
11105TIP3    H254731   0.085   4.152   4.856  1.0140 -1.7442 -0.2696
11106TIP3   OH254732   2.950   0.451   3.932 -0.2583  0.0292  0.1172
11106TIP3    H154733   3.006   0.529   3.937 -0.9593  0.5642 -0.2825
11106TIP3    H254734   2.901   0.450   4.014  2.2278 -1.9424  1.7351
11107TIP3   OH254735   1.457   3.716   0.016  0.6060 -0.5399 -0.5100
11107TIP3    H154736   1.545   3.700  -0.018  0.5787  0.0712 -0.8894
11107TIP3    H254737   1.405   3.740  -0.061  0.5643  0.9415 -0.0685
11108TIP3   OH254738   6.629   1.730  13.585  0.0920  0.3586  0.4383
11108TIP3    H154739   6.534   1.734  13.589 -0.1202  0.2679 -2.2565
11108TIP3    H254740   6.658   1.723  13.676 -2.4330  0.8504  1.3367
11109TIP3   OH254741   0.429   1.777  15.451  0.0469 -0.0042  0.1664
11109TIP3    H154742   0.515   1.735  15.460  1.1174  1.6290 -1.5917
11109TIP3    H254743   0.366   1.707  15.467  1.7049 -1.3866  0.9412
11110TIP3   OH254744   0.992   4.580  13.975 -0.2421  0.2352  0.5729
11110TIP3    H154745   1.083   4.579  13.946 -0.0840  1.0017  1.0214
11110TIP3    H254746   0.995   4.612  14.066 -0.8566 -0.7726  0.9669
11111TIP3   OH254747   2.258   2.965  11.466  0.3992  0.1613 -0.3418
11111TIP3    H154748   2.218   2.921  11.391  1.1523  2.0526 -1.9531
11111TIP3    H254749   2.352   2.945  11.457  0.6263  1.2373 -0.5533
11112TIP3   OH254750   3.279   2.542  15.762  0.1057 -0.0454 -0.1627
11112TIP3    H154751   3.320   2.600  15.698 -0.9849  1.4374  0.4182
11112TIP3    H254752   3.231   2.601  15.821 -0.7022 -1.5107  0.7221
11113TIP3   OH254753   5.826   6.343  11.213 -0.1970  0.1252 -0.6107
11113TIP3    H154754   5.758   6.314  11.152 -1.5370  0.9340  0.4528
11113TIP3    H254755   5.789   6.420  11.255  0.3159 -0.8646  1.8081
11114TIP3   OH254756   6.732   0.075  10.668 -0.3147  0.2210 -0.0807
11114TIP3    H154757   6.727   0.004  10.732 -2.3938  0.2449 -0.1358
11114TIP3    H254758   6.734   0.155  10.721 -2.6669  0.2704  0.0446
11115TIP3   OH254759   5.402   4.332  11.926  0.1875  0.2432  0.5347
11115TIP3    H154760   5.471   4.397  11.939  0.7216 -0.3863  0.8677
11115TIP3    H254761   5.367   4.351  11.839 -0.4661  1.7263  1.0750
11116TIP3   OH254762   2.207   0.246   1.180  0.0846 -0.2279 -0.5949
11116TIP3    H154763   2.269   0.248   1.253  0.1450  0.5066 -0.6584
11116TIP3    H254764   2.235   0.171   1.127 -1.4575 -2.3266  1.3949
11117TIP3   OH254765   4.135   5.393  11.663  0.8610  1.0135  0.0008
11117TIP3    H154766   4.100   5.454  11.728 -1.1075  1.6225 -1.5524
11117TIP3    H254767   4.188   5.448  11.605  1.2816  0.7478  0.1242
11118TIP3   OH254768   2.266   5.350   5.770 -0.5624  0.1924 -0.5703
11118TIP3    H154769   2.179   5.382   5.790 -0.6218  0.2336 -0.8915
11118TIP3    H254770   2.257   5.255   5.766 -0.7521  0.2396 -1.3519
11119TIP3   OH254771   2.045   3.455  14.944 -0.2734 -0.5328  0.2996
11119TIP3    H154772   2.052   3.526  14.880  0.8257 -0.3904  0.5618
11119TIP3    H254773   1.999   3.385  14.897 -0.0899 -0.1733 -0.4267
11120TIP3   OH254774   6.218   6.755   1.485 -0.0580 -0.6594 -0.4400
11120TIP3    H154775   6.248   6.834   1.532 -0.1212 -0.3584 -0.9051
11120TIP3    H254776   6.143   6.784   1.433  1.7097 -0.2906 -2.9634
11121TIP3   OH254777   6.707   1.358   1.624  0.4503 -0.7233 -0.0981
11121TIP3    H154778   6.787   1.341   1.674  1.3441  0.7816 -0.9381
11121TIP3    H254779   6.711   1.297   1.551  0.1713 -1.5277  0.5466
11122TIP3   OH254780   0.708   5.005   2.018  0.0696  0.1733 -0.4946
11122TIP3    H154781   0.672   4.916   2.020  0.4058  0.0507  1.1341
11122TIP3    H254782   0.645   5.055   1.966 -0.9342 -0.6711 -0.1214
11123TIP3   OH254783   4.972   5.183   5.092  0.1298 -0.1229 -0.1870
11123TIP3    H154784   5.061   5.154   5.073  0.2310  0.5777 -0.8789
11123TIP3    H254785   4.928   5.182   5.007  0.1219  1.6103 -0.2485
11124TIP3   OH254786   0.444   4.930   4.127 -0.5317 -0.6941 -0.9175
11124TIP3    H154787   0.479   5.011   4.089  1.0487 -1.5572 -1.4208
11124TIP3    H254788   0.519   4.891   4.173 -1.7154 -1.0267  0.7949
11125TIP3   OH254789   2.708   2.068   3.105 -0.7840  0.4291 -0.7412
11125TIP3    H154790   2.734   2.147   3.058  1.0023  0.3236  0.0131
11125TIP3    H254791   2.686   2.099   3.193  1.6030 -0.0700  0.0925
11126TIP3   OH254792   0.717   5.894  12.272  0.2474  0.3763  0.4456
11126TIP3    H154793   0.735   5.976  12.318  0.7844  0.2289  0.5130
11126TIP3    H254794   0.740   5.912  12.181  1.2538  0.0459  0.6137
11127TIP3   OH254795   0.107   2.952  14.992  0.2472 -0.9261 -0.5385
11127TIP3    H154796   0.068   2.865  14.984  0.9028 -1.6605  2.9352
11127TIP3    H254797   0.065   2.991  15.068  0.9341  1.3088 -1.2269
11128TIP3   OH254798   5.239   4.196  14.419  0.8669 -0.1411 -0.1492
11128TIP3    H154799   5.314   4.255  14.423  0.0650  0.9442 -0.4942
11128TIP3    H254800   5.190   4.214  14.499  1.3643 -1.4259  0.4791
11129TIP3   OH254801   4.899   4.311   0.915  0.1936  0.3287 -0.3538
11129TIP3    H154802   4.855   4.366   0.979 -1.2062 -1.7995  0.6331
11129TIP3    H254803   4.839   4.239   0.900  1.3950 -0.3174 -2.5311
11130TIP3   OH254804   4.732   4.599  12.060 -0.2936  0.0232  0.0526
11130TIP3    H154805   4.707   4.597  12.153  0.4684  1.8306  0.3397
11130TIP3    H254806   4.804   4.537  12.053 -0.4093 -0.1868  0.6530
11131TIP3   OH254807   3.094   4.573   6.699 -0.7487 -0.2895  0.0882
11131TIP3    H154808   3.006   4.576   6.736 -0.7677  1.1934 -0.0241
11131TIP3    H254809   3.150   4.611   6.767 -0.7809  2.4608 -1.3076
11132TIP3   OH254810   6.333   4.147   6.158  0.4329 -0.0942  0.4381
11132TIP3    H154811   6.384   4.201   6.098  0.2292  1.4337  1.5829
11132TIP3    H254812   6.398   4.101   6.211  0.6044 -0.5090 -0.1224
11133TIP3   OH254813   6.682   4.065  14.876  0.2595  0.4060  0.0634
11133TIP3    H154814   6.690   4.111  14.960  0.3426  0.0443  0.2533
11133TIP3    H254815   6.636   3.984  14.897 -2.5686  1.6985 -0.7467
11134TIP3   OH254816   4.008   5.512  10.840 -0.3393  0.4748 -0.1565
11134TIP3    H154817   4.073   5.490  10.907  0.1402 -0.6299 -0.9496
11134TIP3    H254818   4.008   5.436  10.781 -1.0550  1.2419 -1.1751
11135TIP3   OH254819   2.620   2.462  14.486 -0.3710  0.8348 -0.3087
11135TIP3    H154820   2.715   2.457  14.473 -0.2377 -2.0943  1.0075
11135TIP3    H254821   2.584   2.455  14.398  0.6746 -0.3897 -0.6855
11136TIP3   OH254822   6.669   0.122  11.889 -0.5736  0.5555  0.2380
11136TIP3    H154823   6.603   0.180  11.850 -0.6347  0.8195  0.7285
11136TIP3    H254824   6.659   0.040  11.841  1.3071  1.6896 -2.3635
11137TIP3   OH254825   6.400   3.247   1.117  0.1227 -0.0223 -0.1416
11137TIP3    H154826   6.316   3.261   1.075 -0.1742  3.1322  1.2108
11137TIP3    H254827   6.464   3.283   1.055  0.2047 -0.1155 -0.1110
11138TIP3   OH254828   2.440   3.447   0.419  0.1789 -0.4874  0.6830
11138TIP3    H154829   2.481   3.533   0.433 -0.6045  0.0327 -0.0849
11138TIP3    H254830   2.514   3.386   0.417  1.1284  0.5725 -1.9317
11139TIP3   OH254831   1.497   1.321  15.914  0.1247  0.0071  0.2137
11139TIP3    H154832   1.569   1.377  15.888  1.1139 -1.4673 -0.3698
11139TIP3    H254833   1.459   1.290  15.832 -1.3674  0.9529  0.5029
11140TIP3   OH254834   5.113   1.345  11.797  0.1881 -0.1620  0.1707
11140TIP3    H154835   5.039   1.344  11.858  0.4122 -0.9030  0.4330
11140TIP3    H254836   5.187   1.311  11.848  0.8349  0.9858  0.0566
11141TIP3   OH254837   4.824   1.186   5.564 -0.7022 -0.4248  0.1047
11141TIP3    H154838   4.862   1.186   5.476 -3.5056  0.1243 -1.2168
11141TIP3    H254839   4.794   1.096   5.577  0.7253 -0.7980  1.0417
11142TIP3   OH254840   0.515   1.939   2.758  0.2827  0.0440 -0.1204
11142TIP3    H154841   0.467   2.009   2.714  0.2158  0.0307 -0.0685
11142TIP3    H254842   0.470   1.928   2.842  1.1449  0.9119  0.4767
11143TIP3   OH254843   2.317   4.363   5.488 -0.1921  0.1555 -0.5712
11143TIP3    H154844   2.407   4.329   5.495  0.1540  1.2774  1.8231
11143TIP3    H254845   2.319   4.421   5.412  0.0798 -2.4491 -2.7040
11144TIP3   OH254846   3.501   6.557  14.311 -0.7388 -0.3220  0.1789
11144TIP3    H154847   3.498   6.467  14.343  2.9973 -0.3034  1.0868
11144TIP3    H254848   3.587   6.589  14.338 -0.6156  2.4795 -2.8993
11145TIP3   OH254849   4.772   2.524   3.965  1.0120  0.3536 -0.2584
11145TIP3    H154850   4.799   2.613   3.988  1.0209  0.6543 -1.3589
11145TIP3    H254851   4.850   2.486   3.923  1.4437 -0.6401  1.3662
11146TIP3   OH254852   5.260   0.684   4.084 -0.1726 -0.1469  0.5413
11146TIP3    H154853   5.172   0.719   4.072 -0.0630 -0.1370 -0.3632
11146TIP3    H254854   5.254   0.625   4.159 -0.7701  0.4440  0.9612
11147TIP3   OH254855   3.804   0.404   4.732  0.2487  0.2752 -0.0886
11147TIP3    H154856   3.745   0.385   4.659 -2.4423  0.0083  1.9902
11147TIP3    H254857   3.763   0.478   4.777  2.8676  1.7044  0.1087
11148TIP3   OH254858   0.460   6.175   0.508 -0.5817 -0.1297 -0.0268
11148TIP3    H154859   0.395   6.233   0.468  1.0672  2.2434  0.5031
11148TIP3    H254860   0.443   6.181   0.602  1.6259  2.3812  0.3621
11149TIP3   OH254861   3.582   0.990  16.281 -0.2264  0.2550  0.2096
11149TIP3    H154862   3.513   1.004  16.345 -0.2060 -2.4013  0.9320
11149TIP3    H254863   3.536   0.986  16.197 -0.3666  2.7167  0.0859
11150TIP3   OH254864   0.313   2.493   0.241 -0.0930  0.0861 -0.0050
11150TIP3    H154865   0.337   2.530   0.156  0.3026  1.4541  0.6649
11150TIP3    H254866   0.385   2.434   0.263 -1.9791 -3.3419 -2.2998
11151TIP3   OH254867   2.889   1.956   5.588 -0.2778 -0.6392 -0.3102
11151TIP3    H154868   2.882   2.049   5.605 -0.6074 -0.7178  0.0060
11151TIP3    H254869   2.842   1.943   5.505 -2.8261 -0.9402  1.0768
11152TIP3   OH254870   2.186   3.977  16.925 -0.4865 -0.3290  0.4746
11152TIP3    H154871   2.189   3.900  16.869  0.8177 -0.7665  1.1258
11152TIP3    H254872   2.272   4.018  16.914  0.2513 -1.0353  2.9645
11153TIP3   OH254873   4.565   4.358  17.249 -0.1691 -0.1034  0.8235
11153TIP3    H154874   4.592   4.401  17.168 -1.3592 -0.5163  0.1828
11153TIP3    H254875   4.618   4.278  17.253  0.2824  0.1904  0.7384
11154TIP3   OH254876   3.409   6.496  12.616 -0.7505  0.5833  0.2632
11154TIP3    H154877   3.499   6.466  12.601 -1.5571 -1.3492 -1.1918
11154TIP3    H254878   3.371   6.504  12.528 -2.5571 -0.6048  0.8659
11155TIP3   OH254879   1.491   5.372  15.283 -0.1277  0.7704 -0.3578
11155TIP3    H154880   1.431   5.357  15.356 -1.9298  1.4030 -1.6614
11155TIP3    H254881   1.573   5.330  15.311 -0.9668  0.3780  1.7074
11156TIP3   OH254882   6.072   1.298  17.220  0.0957  0.4880 -0.0221
11156TIP3    H154883   6.071   1.388  17.187  0.2730 -0.0490 -1.6023
11156TIP3    H254884   6.036   1.246  17.148  0.1783 -0.7281  0.7858
11157TIP3   OH254885   4.844   5.525   2.592 -0.1521 -0.1366 -0.3991
11157TIP3    H154886   4.909   5.492   2.530  4.7884  1.2640  3.3386
11157TIP3    H254887   4.810   5.447   2.636  2.5062 -0.9112  0.4674
11158TIP3   OH254888   5.554   6.746  13.787 -0.4113  0.1216  0.0107
11158TIP3    H154889   5.459   6.738  13.787 -0.5083  1.0544  0.3755
11158TIP3    H254890   5.575   6.779  13.700 -0.2157 -1.8860 -0.7453
11159TIP3   OH254891   3.247   5.512  11.377  0.1589 -0.2523  0.0384
11159TIP3    H154892   3.193   5.569  11.321 -2.9451 -2.1925  0.7865
11159TIP3    H254893   3.254   5.430  11.327  1.4375 -0.4461  0.5040
11160TIP3   OH254894   5.051   3.330   1.757 -0.4121 -0.1362  0.5369
11160TIP3    H154895   5.131   3.380   1.745  1.0433 -2.2819  0.7771
11160TIP3    H254896   4.992   3.362   1.689  0.3489  1.9918  0.8060
11161TIP3   OH254897   6.014   5.437   1.235  0.2547 -0.7913  0.1471
11161TIP3    H154898   6.080   5.489   1.281 -1.0572  0.5985  0.5395
11161TIP3    H254899   6.059   5.355   1.214  1.6257 -0.5259  1.7901
11162TIP3   OH254900   0.370   1.697  12.004  0.7335 -0.2169  0.1167
11162TIP3    H154901   0.310   1.628  11.974  2.3637 -0.6374 -2.5292
11162TIP3    H254902   0.424   1.653  12.070  1.0547 -1.2263 -0.7713
11163TIP3   OH254903   4.430   0.947  15.501 -0.0664  0.2735  0.4046
11163TIP3    H154904   4.505   0.902  15.541  0.8523  1.5289  0.1404
11163TIP3    H254905   4.468   1.018  15.450 -1.3815  0.2760 -0.6465
11164TIP3   OH254906   4.206   0.577  12.295 -0.0575 -0.5404 -0.0067
11164TIP3    H154907   4.117   0.596  12.267 -0.2848 -1.6369 -0.0972
11164TIP3    H254908   4.212   0.615  12.382  0.1014  1.4060 -0.8114
11165TIP3   OH254909   0.041   1.395   5.386 -0.2728 -0.0984 -0.2688
11165TIP3    H154910  -0.036   1.341   5.409 -1.1977  0.6501 -1.4675
11165TIP3    H254911   0.115   1.335   5.392 -0.8994 -0.7673  1.2240
11166TIP3   OH254912   6.474   6.451   2.645 -0.6462  0.0861  0.0022
11166TIP3    H154913   6.493   6.510   2.573 -0.1081 -0.6037 -0.4379
11166TIP3    H254914   6.476   6.364   2.605 -0.6885 -0.2791  0.7808
11167TIP3   OH254915   6.620   1.365   3.925  0.5069 -0.3778 -0.8451
11167TIP3    H154916   6.640   1.301   3.856  0.6883 -0.7328 -0.4702
11167TIP3    H254917   6.671   1.335   4.001  0.5572  0.1898 -0.6497
11168TIP3   OH254918   2.793   0.918  12.797  0.2352  0.1309  0.1282
11168TIP3    H154919   2.866   0.889  12.741  2.5263  0.1546  2.8505
11168TIP3    H254920   2.740   0.839  12.808  2.1536 -1.0913  1.2890
11169TIP3   OH254921   2.620   5.477  13.606  0.6032  0.0814  0.0317
11169TIP3    H154922   2.702   5.484  13.556 -1.2867  0.4169 -3.2790
11169TIP3    H254923   2.591   5.568  13.616 -1.5581 -0.1535 -2.9745
11170TIP3   OH254924   3.863   0.106   3.564  0.0867  0.0722  0.3412
11170TIP3    H154925   3.775   0.068   3.561 -0.1155  0.5539  0.0529
11170TIP3    H254926   3.881   0.132   3.474  0.3709  0.3167  0.4670
11171TIP3   OH254927   6.344   5.286   0.283  0.5467 -0.0781 -0.4948
11171TIP3    H154928   6.348   5.195   0.313  1.1549  0.1793  0.2379
11171TIP3    H254929   6.268   5.322   0.329  1.9966  0.5660  1.5582
11172TIP3   OH254930   2.437   2.915  15.209  0.9202  0.1803 -0.0794
11172TIP3    H154931   2.454   2.916  15.115 -1.9679  1.2566 -0.7167
11172TIP3    H254932   2.457   3.004  15.237 -1.0055  0.7466 -0.3569
11173TIP3   OH254933   2.517   0.663  14.642  0.1500 -0.4530  0.2214
11173TIP3    H154934   2.454   0.699  14.579  1.5597  0.8194 -0.5419
11173TIP3    H254935   2.474   0.584  14.677 -1.6289  0.0845 -0.6157
11174TIP3   OH254936   5.611   4.556   1.377 -0.2498 -0.5590  0.1945
11174TIP3    H154937   5.637   4.573   1.286 -0.6607 -1.8482 -0.1792
11174TIP3    H254938   5.677   4.601   1.429  0.4761 -0.5076 -0.7341
11175TIP3   OH254939   0.308   2.838  12.202  0.2762  0.1284 -0.0850
11175TIP3    H154940   0.247   2.840  12.129 -0.6576 -1.0312  0.6181
11175TIP3    H254941   0.264   2.886  12.272  0.1921 -0.6399  0.3995
11176TIP3   OH254942   1.146   5.099  15.920 -1.0105 -0.1840  0.5106
11176TIP3    H154943   1.167   5.187  15.890 -0.5175 -0.7456 -0.8944
11176TIP3    H254944   1.051   5.100  15.935 -1.7970 -0.4128 -3.3489
11177TIP3   OH254945   5.263   3.442   0.087 -0.6931  0.0816  0.7439
11177TIP3    H154946   5.254   3.445   0.183 -0.9593 -2.3789  0.8636
11177TIP3    H254947   5.174   3.425   0.056 -0.9428  2.5702 -0.1463
11178TIP3   OH254948   5.523   0.351   1.161 -0.1150  0.7281 -0.3068
11178TIP3    H154949   5.546   0.307   1.242 -0.1033 -1.0348 -1.2073
11178TIP3    H254950   5.432   0.379   1.174  0.8690  3.4446  1.4799
11179TIP3   OH254951   2.225   0.426  14.760  0.3752  0.0179 -0.4260
11179TIP3    H154952   2.131   0.417  14.745  0.5401  0.4573 -1.8361
11179TIP3    H254953   2.232   0.491  14.830 -0.4498 -2.5618  2.2603
11180TIP3   OH254954   4.877   1.868  16.067 -0.1577  0.8157 -0.1478
11180TIP3    H154955   4.863   1.779  16.034  0.8987 -0.3540  2.2572
11180TIP3    H254956   4.934   1.910  16.002 -1.0520 -0.0935 -1.5518
11181TIP3   OH254957   5.991   1.016  14.232 -0.2812  0.7317 -0.6600
11181TIP3    H154958   5.989   1.103  14.192 -2.7611  1.1211  0.1574
11181TIP3    H254959   5.905   0.978  14.213 -0.6367 -0.0423  2.0624
11182TIP3   OH254960   6.449   1.632  15.722  0.6714 -0.3118 -0.6787
11182TIP3    H154961   6.411   1.623  15.809 -0.5646 -1.2942 -1.2957
11182TIP3    H254962   6.543   1.624  15.736  0.4920 -0.3853  0.5722
11183TIP3   OH254963   6.572   1.085   0.294  0.1445  0.0660 -0.3509
11183TIP3    H154964   6.642   1.140   0.330  1.2874 -1.6695  0.2296
11183TIP3    H254965   6.599   1.068   0.204  0.4055 -0.4203 -0.1921
11184TIP3   OH254966   2.369   2.799  13.200 -0.9488 -0.1884 -0.1306
11184TIP3    H154967   2.347   2.726  13.259 -1.0051  0.4821  0.7011
11184TIP3    H254968   2.429   2.761  13.136 -1.4505 -1.1093 -0.0742
11185TIP3   OH254969   2.978   2.132   1.684 -0.3157 -0.3185 -0.2066
11185TIP3    H154970   3.043   2.068   1.713  0.4586 -0.9839 -3.0678
11185TIP3    H254971   2.894   2.085   1.689 -0.0682 -0.7528 -0.1074
11186TIP3   OH254972   2.100   1.305  14.915  0.2254 -0.3281  0.3154
11186TIP3    H154973   2.013   1.267  14.908 -0.3793  1.2206 -1.3456
11186TIP3    H254974   2.091   1.371  14.985  0.0013 -0.0318  0.0104
11187TIP3   OH254975   5.499   4.940  14.272  0.0785 -0.0276  0.3705
11187TIP3    H154976   5.481   5.004  14.204  0.4714  0.7345  0.9645
11187TIP3    H254977   5.456   4.976  14.350  0.7050 -0.2387  0.8191
11188TIP3   OH254978   0.004   0.159  14.035  0.2599 -0.8114 -0.5944
11188TIP3    H154979   0.018   0.065  14.026 -1.2958 -0.9704 -1.7956
11188TIP3    H254980  -0.054   0.168  14.110  2.7510 -0.5134  1.4283
11189TIP3   OH254981   4.839   6.574  12.704  0.4219 -0.1974 -0.1335
11189TIP3    H154982   4.915   6.518  12.720 -0.6001 -1.1478  1.7423
11189TIP3    H254983   4.774   6.516  12.666  0.1847  0.3023 -0.5062
11190TIP3   OH254984   6.011   5.033  13.777 -0.1519 -0.7517  0.5697
11190TIP3    H154985   5.951   4.959  13.761 -3.4764  1.7422  0.3514
11190TIP3    H254986   6.095   5.004  13.741 -1.9112 -3.4752 -1.8373
11191TIP3   OH254987   0.103   3.950   5.466  0.4371 -0.0569  0.0004
11191TIP3    H154988   0.018   3.986   5.441  1.0729  0.2576 -1.8587
11191TIP3    H254989   0.167   4.005   5.421  1.5085 -2.0591 -1.0823
11192TIP3   OH254990   3.790   1.054  13.494  0.0891 -0.1723  0.2501
11192TIP3    H154991   3.722   1.088  13.435  0.8503  1.5755  0.3329
11192TIP3    H254992   3.844   1.130  13.515  1.8981 -1.4524  0.4463
11193TIP3   OH254993   0.836   5.230   5.832 -0.2744  0.4079 -0.4180
11193TIP3    H154994   0.867   5.156   5.779 -1.1954  0.2404 -0.7460
11193TIP3    H254995   0.791   5.287   5.770 -1.9728 -0.1299  0.2644
11194TIP3   OH254996   4.877   2.927   2.399 -0.0565 -0.4919  0.0203
11194TIP3    H154997   4.856   3.015   2.432  0.2698  0.2435 -1.6221
11194TIP3    H254998   4.914   2.881   2.475 -0.9388  0.5262  1.1065
11195TIP3   OH254999   2.708   2.276   5.760  0.0983 -0.4789 -0.3692
11195TIP3    H155000   2.772   2.307   5.696  0.1090 -0.4032 -0.3224
11195TIP3    H255001   2.624   2.304   5.725  0.2357  1.6657  0.7824
11196TIP3   OH255002   6.754   2.770  12.181 -0.2629 -0.6039 -0.0865
11196TIP3    H155003   6.746   2.689  12.130  0.4321 -0.4331 -0.4911
11196TIP3    H255004   6.788   2.742  12.266 -0.2681 -0.7683 -0.1390
11197TIP3   OH255005   0.202   0.617   3.420 -0.3407 -0.1201  0.5340
11197TIP3    H155006   0.113   0.622   3.453 -0.1748 -0.6695  1.0825
11197TIP3    H255007   0.256   0.655   3.490 -0.0024 -1.1347  0.8422
11198TIP3   OH255008   6.349   0.651   2.034  0.0268 -0.3737 -0.4344
11198TIP3    H155009   6.265   0.697   2.040  0.4047  0.3723 -0.7954
11198TIP3    H255010   6.383   0.654   2.124  1.6099  3.0893 -0.9736
11199TIP3   OH255011   6.409   2.413  12.170  0.8028  0.0789 -0.2414
11199TIP3    H155012   6.380   2.403  12.261  0.1053 -2.0468 -0.6408
11199TIP3    H255013   6.360   2.489  12.138 -0.0411 -0.0257  0.7379
11200TIP3   OH255014   4.643   2.333  16.020 -0.0012  0.0974 -0.5112
11200TIP3    H155015   4.635   2.251  15.972 -0.1867 -0.7625  0.9665
11200TIP3    H255016   4.596   2.397  15.965 -2.4762 -1.3873 -0.2447
11201TIP3   OH255017   6.530   3.673   5.221  0.8641 -0.4568 -0.0501
11201TIP3    H155018   6.505   3.587   5.256 -0.0217  0.2853  1.2178
11201TIP3    H255019   6.606   3.699   5.273  1.3901 -0.6500 -0.7163
11202TIP3   OH255020   6.428   0.350  16.653  0.9909  0.5667 -0.0822
11202TIP3    H155021   6.447   0.355  16.560 -0.8670 -0.2999 -0.5502
11202TIP3    H255022   6.334   0.368  16.660  1.2778  1.6769  1.7512
11203TIP3   OH255023   3.445   1.420  16.958  0.7170  0.1355  0.0224
11203TIP3    H155024   3.455   1.472  16.878 -0.5101  0.2500 -0.0680
11203TIP3    H255025   3.532   1.423  16.998  1.6320 -0.7058 -1.7590
11204TIP3   OH255026   5.990   6.285   3.253 -0.4277  0.2370 -0.2895
11204TIP3    H155027   5.984   6.311   3.344  0.4151  0.9761 -0.4308
11204TIP3    H255028   5.900   6.264   3.228 -0.8054  0.9136  0.4500
11205TIP3   OH255029   4.551   1.652   2.091 -0.6142 -1.0244  0.2389
11205TIP3    H155030   4.634   1.612   2.118  0.9571  1.5007 -0.4500
11205TIP3    H255031   4.566   1.675   1.999 -1.7865  0.1896  0.3374
11206TIP3   OH255032   3.062   4.256   1.833  0.5841  0.2451  0.3883
11206TIP3    H155033   3.070   4.161   1.818  0.6781  0.3035  0.0546
11206TIP3    H255034   3.134   4.277   1.892  1.1389  0.2610 -0.2752
11207TIP3   OH255035   5.695   1.864  16.085 -0.2429  0.0005  0.7075
11207TIP3    H155036   5.660   1.928  16.147 -2.8889 -0.1916 -0.4181
11207TIP3    H255037   5.618   1.814  16.057  0.9371 -0.4341 -2.0984
11208TIP3   OH255038   6.715   3.212   3.290 -0.2125 -0.2274 -0.0205
11208TIP3    H155039   6.719   3.193   3.384  0.5647  0.8392  0.1797
11208TIP3    H255040   6.760   3.138   3.249 -1.1384 -1.0342  0.3812
11209TIP3   OH255041   0.165   5.919  11.528 -0.2017 -0.2888  0.1801
11209TIP3    H155042   0.132   5.933  11.617  0.9734  2.1988  0.2967
11209TIP3    H255043   0.159   6.005  11.486 -0.0922 -1.2515 -1.9556
11210TIP3   OH255044   5.592   3.089  16.414 -0.0330  0.0809 -0.0118
11210TIP3    H155045   5.521   3.123  16.468 -0.0891  0.5526 -0.3741
11210TIP3    H255046   5.659   3.157  16.417  0.1124 -0.0501 -0.2439
11211TIP3   OH255047   6.154   6.174  11.652  0.2856  0.1360  0.2701
11211TIP3    H155048   6.084   6.225  11.612  0.1881  0.1089  0.4065
11211TIP3    H255049   6.227   6.235  11.660  0.3565  0.1028 -0.0894
11212TIP3   OH255050   6.752   0.835  14.085  0.2571 -0.1904  0.1945
11212TIP3    H155051   6.711   0.750  14.070 -0.3276  0.4037 -1.8735
11212TIP3    H255052   6.730   0.887  14.007  0.9498  1.7243  1.2032
11213TIP3   OH255053   5.372   3.600  16.569  0.1271  0.7700 -0.0274
11213TIP3    H155054   5.466   3.605  16.584  0.2385  2.2896 -0.9948
11213TIP3    H255055   5.360   3.629  16.478 -1.2685  0.6284  0.0851
11214TIP3   OH255056   2.868   1.222   0.877  0.0529  0.3724  0.6020
11214TIP3    H155057   2.809   1.215   0.952  0.5182 -0.8475  0.8866
11214TIP3    H255058   2.882   1.316   0.866 -1.6156  0.6755  0.7692
11215TIP3   OH255059   2.044   1.264   2.697 -0.0628 -0.7727  0.3380
11215TIP3    H155060   2.124   1.301   2.735  0.4987 -1.1155 -0.5005
11215TIP3    H255061   1.975   1.325   2.723  0.8650  1.0287 -1.1824
11216TIP3   OH255062   5.984   0.463   5.548  0.7077  0.3722  0.5575
11216TIP3    H155063   5.955   0.554   5.540  1.4521  0.6009  0.3463
11216TIP3    H255064   6.077   0.466   5.526  0.3277 -0.7388 -1.4380
11217TIP3   OH255065   0.802   5.650  11.907 -0.6171 -0.4814 -0.1586
11217TIP3    H155066   0.737   5.710  11.943  0.4535  0.3973  0.3847
11217TIP3    H255067   0.844   5.611  11.983  0.6329  0.2457 -0.4438
11218TIP3   OH255068   3.440   0.146  15.234  0.6876  0.4206  0.7737
11218TIP3    H155069   3.513   0.171  15.178 -0.4809  0.9591 -0.5907
11218TIP3    H255070   3.472   0.157  15.323  2.1223  1.0422  0.2023
11219TIP3   OH255071   3.528   5.820   4.893  0.2634 -0.9534 -0.0764
11219TIP3    H155072   3.606   5.785   4.937 -0.5513 -1.9657  0.6134
11219TIP3    H255073   3.563   5.878   4.825  1.5803  0.1263  1.4504
11220TIP3   OH255074   6.546   2.966  13.808 -0.9606 -0.1215  0.6646
11220TIP3    H155075   6.476   3.022  13.775  1.1890  1.1382 -2.1767
11220TIP3    H255076   6.622   3.023  13.812  0.3685 -1.8674  1.8398
11221TIP3   OH255077   4.377   4.147  12.746  0.0857 -0.2242 -0.0026
11221TIP3    H155078   4.416   4.067  12.780 -0.4242 -0.0656  0.9951
11221TIP3    H255079   4.320   4.177  12.817 -0.9405  0.1684 -0.9737
11222TIP3   OH255080   1.976   6.649   0.381 -0.4546  0.3353  0.0618
11222TIP3    H155081   1.881   6.650   0.387 -0.4496  1.7377  0.0389
11222TIP3    H255082   2.003   6.586   0.449 -1.3502  0.7998  0.8721
11223TIP3   OH255083   3.154   3.939   3.423 -0.0037 -0.2160  0.1474
11223TIP3    H155084   3.232   3.942   3.367 -1.1559  1.6766 -1.4903
11223TIP3    H255085   3.145   4.028   3.456 -1.5525 -0.3380  0.1388
11224TIP3   OH255086   0.056   1.306   3.634  0.0856  0.3029 -0.0653
11224TIP3    H155087  -0.013   1.253   3.673  0.9641  0.4290  1.7311
11224TIP3    H255088   0.107   1.244   3.582  0.0465 -0.2709  0.5652
11225TIP3   OH255089   2.029   1.979   6.300  0.7917  0.4546  0.2112
11225TIP3    H155090   2.094   1.916   6.329  0.3038  0.1369  0.6370
11225TIP3    H255091   1.957   1.969   6.362 -0.4589 -0.5151 -1.3113
11226TIP3   OH255092   2.235   1.466  11.726 -0.3999 -0.0390 -0.1176
11226TIP3    H155093   2.149   1.462  11.767 -0.3245  1.9093  0.3219
11226TIP3    H255094   2.272   1.378  11.738 -1.7231 -0.4687  0.9991
11227TIP3   OH255095   4.752   2.693   4.432  0.0567 -0.0072 -0.5179
11227TIP3    H155096   4.717   2.771   4.390 -0.6008  0.1403  0.2669
11227TIP3    H255097   4.687   2.670   4.499  0.6099 -0.7770 -0.2192
11228TIP3   OH255098   3.298   6.243   5.322  0.2037  0.0215  0.2612
11228TIP3    H155099   3.331   6.293   5.397 -1.8913 -0.1493  1.3693
11228TIP3    H255100   3.377   6.213   5.277  1.5282  0.9769  1.8205
11229TIP3   OH255101   3.365   1.842  10.306  0.2660  0.1275 -0.3405
11229TIP3    H155102   3.342   1.756  10.270  1.2929 -0.4922  0.4220
11229TIP3    H255103   3.370   1.828  10.400 -1.1317  1.4286 -0.0469
11230TIP3   OH255104   1.481   6.300  16.545  0.1428 -0.3826 -0.2529
11230TIP3    H155105   1.516   6.229  16.600 -0.2570  0.8082  1.6269
11230TIP3    H255106   1.508   6.380  16.589  0.3890  0.6660 -2.2150
11231TIP3   OH255107   2.478   5.221  14.556 -0.1553  0.0234  0.0288
11231TIP3    H155108   2.523   5.185  14.633 -0.6326  1.3132  0.9467
11231TIP3    H255109   2.508   5.312  14.552  0.7677 -0.3201 -2.0309
11232TIP3   OH255110   6.519   4.378  13.287  0.4949  0.3453 -0.2630
11232TIP3    H155111   6.534   4.323  13.210 -2.0279 -0.2508 -0.4158
11232TIP3    H255112   6.584   4.348  13.351  2.3479  0.5463 -1.9421
11233TIP3   OH255113   0.142   2.958  12.550 -0.0437 -0.3724  0.1617
11233TIP3    H155114   0.165   3.037  12.599  0.4169 -0.1873 -0.3438
11233TIP3    H255115   0.070   2.919  12.600 -1.1785  1.0549 -0.3097
11234TIP3   OH255116   6.040   5.817  17.063 -0.4163 -0.1887 -0.5095
11234TIP3    H155117   5.999   5.750  17.118  0.3662 -1.4660 -1.3988
11234TIP3    H255118   6.131   5.819  17.093 -0.3932  0.3381 -0.6197
11235TIP3   OH255119   5.234   5.443  14.781  0.3417  0.6919  0.4598
11235TIP3    H155120   5.204   5.410  14.866  0.5685 -1.1397 -0.1344
11235TIP3    H255121   5.260   5.534  14.799  0.6282  0.2765  2.4055
11236TIP3   OH255122   1.102   3.925  16.173  0.4977  0.5534  0.0036
11236TIP3    H155123   1.194   3.950  16.174  0.0475  2.3660  1.7366
11236TIP3    H255124   1.095   3.857  16.241  0.6076  0.1586 -0.3772
11237TIP3   OH255125   4.064   6.122  16.578 -0.2497  0.0884  0.2061
11237TIP3    H155126   4.028   6.138  16.491 -1.0255  0.6896  0.6344
11237TIP3    H255127   4.066   6.208  16.619 -1.1500 -0.3871  1.2677
11238TIP3   OH255128   0.565   3.036  12.073  0.3414  0.1519 -0.4055
11238TIP3    H155129   0.537   3.128  12.082  1.2617  0.2651  1.7333
11238TIP3    H255130   0.489   2.985  12.101  0.7806  0.3724  1.3060
11239TIP3   OH255131   4.340   5.688  14.278 -0.6331 -0.1259 -0.5732
11239TIP3    H155132   4.263   5.707  14.331 -0.1657  0.2242  0.0074
11239TIP3    H255133   4.356   5.594  14.292  0.5505  0.3037  1.4364
11240TIP3   OH255134   4.980   1.084  11.406  0.4244  0.2026 -0.9417
11240TIP3    H155135   4.970   1.105  11.313 -0.2115  0.0147 -0.9216
11240TIP3    H255136   4.988   0.989  11.408 -1.8847 -0.0459 -0.6485
11241TIP3   OH255137   2.455   4.382   6.502 -0.1710  0.3828 -0.0276
11241TIP3    H155138   2.472   4.427   6.585 -2.3326 -0.5720  1.0122
11241TIP3    H255139   2.512   4.305   6.504 -2.0419 -1.0414  1.8499
11242TIP3   OH255140   2.493   4.244  11.501 -0.5903  0.2230 -1.1661
11242TIP3    H155141   2.479   4.280  11.413 -1.9534  0.1735 -0.9850
11242TIP3    H255142   2.406   4.219  11.531 -0.0907 -0.1111  0.0609
11243TIP3   OH255143   5.657   6.042  11.683  0.3846  0.6322  0.2226
11243TIP3    H155144   5.641   6.063  11.775  1.4683  1.2469  0.2913
11243TIP3    H255145   5.717   6.111  11.652  0.3312  0.2319 -0.8403
11244TIP3   OH255146   0.385   5.829  15.287  0.5030  0.1502 -0.2012
11244TIP3    H155147   0.402   5.889  15.359  0.0837  0.1628 -0.1116
11244TIP3    H255148   0.430   5.748  15.312 -0.0396 -0.0046  0.3080
11245TIP3   OH255149   2.840   0.485  12.152  0.0046  0.0751 -0.1400
11245TIP3    H155150   2.792   0.514  12.075 -0.5660  1.1251  0.5886
11245TIP3    H255151   2.887   0.563  12.181  1.0613 -0.5804 -0.0217
11246TIP3   OH255152   2.819   2.475  17.277 -0.2012 -0.0275 -0.0674
11246TIP3    H155153   2.725   2.458  17.273 -0.6466  1.9036  0.9339
11246TIP3    H255154   2.858   2.403  17.229 -2.1292 -1.4204  0.3088
11247TIP3   OH255155   6.207   2.717   2.364 -0.7976 -0.2548  0.3515
11247TIP3    H155156   6.285   2.699   2.417 -0.8539  0.9486  0.8732
11247TIP3    H255157   6.214   2.809   2.341 -1.6558 -0.3344 -0.3064
11248TIP3   OH255158   6.029   4.092  14.079  0.0950 -0.0921  0.7176
11248TIP3    H155159   5.954   4.152  14.078 -0.2525 -0.5146  1.0597
11248TIP3    H255160   6.011   4.032  14.152  0.2080 -0.9023  0.0905
11249TIP3   OH255161   0.206   6.035  11.191  0.2933 -0.9107 -0.1625
11249TIP3    H155162   0.199   6.075  11.104  0.8837 -0.3016  0.0599
11249TIP3    H255163   0.174   6.101  11.251  1.2728 -0.7547  0.2109
11250TIP3   OH255164   6.722   1.971  16.612 -0.0219  0.0663  0.4801
11250TIP3    H155165   6.774   2.051  16.604 -1.5763  0.9631 -1.6530
11250TIP3    H255166   6.632   1.998  16.592 -0.6090 -2.1764 -0.2700
11251TIP3   OH255167   2.484   0.669   2.721  0.2631  0.3533 -0.3665
11251TIP3    H155168   2.410   0.662   2.659 -0.3082 -0.8247  0.3992
11251TIP3    H255169   2.556   0.623   2.677 -0.5336 -1.7098  0.3428
11252TIP3   OH255170   5.130   0.561   1.736  0.4039 -0.1094  0.2901
11252TIP3    H155171   5.166   0.559   1.647  2.2351 -1.2608  0.9842
11252TIP3    H255172   5.197   0.606   1.787  1.5487 -3.3045  1.8615
11253TIP3   OH255173   6.182   3.441  15.170 -0.5551 -0.5365 -0.3593
11253TIP3    H155174   6.131   3.398  15.239 -0.5729 -0.1784 -0.1435
11253TIP3    H255175   6.116   3.468  15.105 -0.7228  0.3906  0.1650
11254TIP3   OH255176   0.800   1.452  14.093 -0.0858  0.2095  0.2719
11254TIP3    H155177   0.786   1.392  14.167  1.5958  0.3781  0.7839
11254TIP3    H255178   0.868   1.512  14.124  1.4164 -0.3378 -1.7557
11255TIP3   OH255179   0.426   1.638  11.536  0.0426 -0.0965 -0.0677
11255TIP3    H155180   0.518   1.659  11.521  0.0824  0.2773  0.6529
11255TIP3    H255181   0.404   1.682  11.618 -0.7198 -0.3664 -0.1155
11256TIP3   OH255182   1.501   3.273  14.533 -0.0416 -0.8635  0.2105
11256TIP3    H155183   1.479   3.194  14.583  0.1253 -0.6913  0.5607
11256TIP3    H255184   1.486   3.345  14.594 -2.0381 -0.4560 -0.6747
11257TIP3   OH255185   2.331   6.396  15.422 -0.5610 -0.2393  0.2711
11257TIP3    H155186   2.358   6.440  15.502  0.9629 -0.5677 -0.0242
11257TIP3    H255187   2.305   6.467  15.363 -0.1336  0.1324  0.5176
11258TIP3   OH255188   1.410   1.362  10.816  0.6887  0.0597  0.4144
11258TIP3    H155189   1.506   1.362  10.825  0.8056  2.4740 -0.4018
11258TIP3    H255190   1.379   1.413  10.891 -0.0939 -1.6736  1.3313
11259TIP3   OH255191   2.291   6.719   5.897  0.0595 -0.0667  0.0587
11259TIP3    H155192   2.283   6.629   5.931 -0.4479 -0.7401 -1.7479
11259TIP3    H255193   2.361   6.713   5.832 -0.9245  0.5282 -1.0723
11260TIP3   OH255194   4.267   3.407   6.630  0.4257  0.2853  0.2449
11260TIP3    H155195   4.345   3.369   6.671  2.3417 -0.2599 -3.4369
11260TIP3    H255196   4.301   3.481   6.578 -2.1200  2.2914  1.2521
11261TIP3   OH255197   2.983   2.352  10.544 -0.1309 -0.3872  0.2453
11261TIP3    H155198   2.990   2.315  10.455 -1.3043 -1.9311  0.7422
11261TIP3    H255199   3.038   2.431  10.541  2.1758 -1.8938 -1.0436
11262TIP3   OH255200   1.768   0.385  12.015 -0.0316  0.3381 -0.1905
11262TIP3    H155201   1.742   0.293  12.011 -1.3906  0.7141 -0.5651
11262TIP3    H255202   1.757   0.417  11.925  1.4846  0.6056 -0.3000
11263TIP3   OH255203   5.827   1.606  14.656 -0.0520 -0.5642 -0.2230
11263TIP3    H155204   5.778   1.575  14.733 -1.6586  0.0241 -0.9493
11263TIP3    H255205   5.784   1.564  14.582  1.2498 -0.8425 -0.8312
11264TIP3   OH255206   6.186   5.039   0.007  0.1041 -0.2169  0.6631
11264TIP3    H155207   6.233   4.957   0.018 -0.4469 -0.8487 -1.3806
11264TIP3    H255208   6.231   5.084  -0.065  0.5152  1.3960  1.8583
11265TIP3   OH255209   1.982   4.511  15.662  0.2624  0.4844 -0.2264
11265TIP3    H155210   1.932   4.457  15.601  0.7501 -0.5783  0.2932
11265TIP3    H255211   1.990   4.596  15.617  0.8889 -0.3600 -1.7915
11266TIP3   OH255212   6.161   6.145   1.491 -0.0196  0.1116 -0.1330
11266TIP3    H155213   6.125   6.079   1.551  0.3270 -0.6259 -0.7194
11266TIP3    H255214   6.217   6.199   1.547 -1.8344  1.1670  0.7628
11267TIP3   OH255215   6.425   4.627  16.284  0.1854 -0.2925 -0.2707
11267TIP3    H155216   6.331   4.645  16.277  0.3140  0.7483  0.4322
11267TIP3    H255217   6.463   4.671  16.208  0.1317 -0.5009 -0.4182
11268TIP3   OH255218   0.695   1.132   0.066 -0.2749  0.6079 -0.2670
11268TIP3    H155219   0.652   1.210   0.100 -1.9024 -0.5462  0.4396
11268TIP3    H255220   0.660   1.122  -0.023 -0.7345  0.2294 -0.0517
11269TIP3   OH255221   5.580   3.825   4.413  0.4186  0.0078  0.3636
11269TIP3    H155222   5.551   3.795   4.327 -1.0995 -0.6292  1.0720
11269TIP3    H255223   5.527   3.903   4.430  0.4540 -0.0770  0.8688
11270TIP3   OH255224   4.871   1.182   1.400  0.3631  0.5968 -0.0792
11270TIP3    H155225   4.791   1.156   1.354 -0.1988 -0.1349  1.2741
11270TIP3    H255226   4.888   1.111   1.462  0.9690  1.6523  1.0102
11271TIP3   OH255227   6.055   6.018  16.381  0.0256 -0.2221 -0.1549
11271TIP3    H155228   6.002   5.990  16.457  0.6428  0.8737  0.7004
11271TIP3    H255229   6.085   5.936  16.343 -1.0384 -0.8261  0.2404
11272TIP3   OH255230   0.850   1.821   5.838  0.0766  0.2769  0.1396
11272TIP3    H155231   0.823   1.901   5.882  0.3099  0.0892  0.6277
11272TIP3    H255232   0.795   1.753   5.876 -0.3837  0.2590 -0.5432
11273TIP3   OH255233   4.165   3.856  16.714  0.0279  0.1503  0.0398
11273TIP3    H155234   4.141   3.838  16.623 -0.6218 -0.0879  0.2500
11273TIP3    H255235   4.101   3.807  16.765 -2.0688  3.3078  0.6748
11274TIP3   OH255236   6.511   1.519  14.573  0.2285  0.3864 -0.0174
11274TIP3    H155237   6.499   1.592  14.513 -0.5500  0.8021  0.6178
11274TIP3    H255238   6.606   1.515  14.587  0.1785  2.8050  1.7252
11275TIP3   OH255239   2.073   1.101   1.300 -0.5367  0.2215  0.4747
11275TIP3    H155240   2.102   1.027   1.353  4.2242 -1.3112 -3.4522
11275TIP3    H255241   2.044   1.062   1.218 -0.1276  2.6116 -0.8979
11276TIP3   OH255242   2.738   5.962   2.476  0.3547  0.4227 -0.3549
11276TIP3    H155243   2.815   6.010   2.444  0.6002 -0.0006 -0.3995
11276TIP3    H255244   2.720   6.002   2.561  1.2733 -0.1869  0.1449
11277TIP3   OH255245   5.795   3.072   3.698 -0.1861 -0.7280 -0.1132
11277TIP3    H155246   5.798   3.087   3.793  1.0873 -0.2081 -0.2130
11277TIP3    H255247   5.829   3.153   3.660  3.8132 -2.5173 -0.8202
11278TIP3   OH255248   0.763   4.604   3.947 -0.1633 -0.7828 -0.5082
11278TIP3    H155249   0.806   4.519   3.949  0.7135 -0.3801 -1.2903
11278TIP3    H255250   0.735   4.615   3.856  1.4663  0.5632 -0.9093
11279TIP3   OH255251   2.928   2.258  11.554 -0.0586 -0.1178 -0.8762
11279TIP3    H155252   2.859   2.263  11.488  0.5696  0.4965 -1.5056
11279TIP3    H255253   2.995   2.202  11.514  1.2485  1.9077 -1.6726
11280TIP3   OH255254   4.795   4.200   3.988 -0.1682 -0.7365  0.0633
11280TIP3    H155255   4.725   4.198   3.923  1.9656 -1.9457 -2.3672
11280TIP3    H255256   4.828   4.290   3.985 -0.0179 -0.8065 -0.6483
11281TIP3   OH255257   0.891   6.614  16.802  0.7415  0.1284  0.2755
11281TIP3    H155258   0.965   6.606  16.862  1.0033 -0.0917 -0.0714
11281TIP3    H255259   0.817   6.636  16.858  0.7867 -1.0020  0.8118
11282TIP3   OH255260   6.360   1.546   0.485 -0.1532  0.6700  0.4042
11282TIP3    H155261   6.354   1.639   0.504 -1.6655  1.0390 -1.5519
11282TIP3    H255262   6.270   1.519   0.465  0.2406 -1.2200  0.9040
11283TIP3   OH255263   4.198   6.467  12.491 -0.0949 -0.1580 -0.3619
11283TIP3    H155264   4.144   6.405  12.540 -0.8669 -1.1408 -2.3347
11283TIP3    H255265   4.268   6.413  12.454  1.7541  0.9396  1.3591
11284TIP3   OH255266   4.094   1.136   5.190 -0.1036 -0.3544  0.1481
11284TIP3    H155267   4.013   1.148   5.239 -1.6195 -2.0054 -1.7841
11284TIP3    H255268   4.160   1.116   5.257 -1.9313 -1.9870  1.5897
11285TIP3   OH255269   2.625   4.325  15.935  0.0151 -0.2991  0.1019
11285TIP3    H155270   2.719   4.338  15.924  0.3984 -2.0698  0.8486
11285TIP3    H255271   2.606   4.358  16.023  0.1235 -0.7210  0.2870
11286TIP3   OH255272   2.212   1.196  11.897 -0.3465  0.3962  0.3494
11286TIP3    H155273   2.158   1.179  11.820 -1.1554  0.1314  0.9515
11286TIP3    H255274   2.302   1.184  11.867 -0.7119 -1.8027 -0.0825
11287TIP3   OH255275   1.962   3.095  11.504  0.0695 -0.2982 -0.0511
11287TIP3    H155276   2.037   3.042  11.475 -0.6184 -0.8460 -0.8490
11287TIP3    H255277   1.901   3.094  11.431  0.2390  2.0543 -0.2867
11288TIP3   OH255278   0.707   2.764   6.119 -0.1061 -0.5643  0.6772
11288TIP3    H155279   0.646   2.780   6.047  0.2555  0.0403  0.5009
11288TIP3    H255280   0.792   2.793   6.086  0.2367 -1.1430  1.0193
11289TIP3   OH255281   5.515   1.938  11.821  0.2736 -0.3150  0.5935
11289TIP3    H155282   5.543   1.878  11.752  2.5338  0.3100  0.9013
11289TIP3    H255283   5.419   1.933  11.819  0.2539 -0.5866 -2.3395
11290TIP3   OH255284   5.494   4.773   6.102 -0.0520  0.5699 -0.1392
11290TIP3    H155285   5.449   4.729   6.174  1.9263 -0.0454  0.8087
11290TIP3    H255286   5.525   4.856   6.139  0.2571  0.6364 -0.5304
11291TIP3   OH255287   0.851   2.029   3.040  0.0599  0.7307 -0.0596
11291TIP3    H155288   0.758   2.035   3.062 -0.4593 -1.9189 -1.1576
11291TIP3    H255289   0.853   2.014   2.946  1.3019 -2.5039  0.3279
11292TIP3   OH255290   3.967   5.774  10.923 -0.5590 -0.4615 -0.0669
11292TIP3    H155291   3.972   5.682  10.899 -0.9954  0.1140 -2.7665
11292TIP3    H255292   3.905   5.812  10.860 -0.3574  1.6781  0.9245
11293TIP3   OH255293   6.674   5.308   1.240  0.5834 -0.0922 -0.1100
11293TIP3    H155294   6.737   5.357   1.292  1.4337 -0.8099 -0.4255
11293TIP3    H255295   6.621   5.375   1.197  0.3342  0.5135  1.1013
11294TIP3   OH255296   2.818   4.674   4.048  0.3488  0.0514 -0.1265
11294TIP3    H155297   2.758   4.599   4.043 -1.1068  1.2029 -0.5607
11294TIP3    H255298   2.905   4.636   4.036 -0.1912 -1.7796  1.2928
11295TIP3   OH255299   3.206   5.229   1.158  0.8557  0.6961  0.0530
11295TIP3    H155300   3.252   5.186   1.230  1.3838 -0.2394 -0.8224
11295TIP3    H255301   3.266   5.223   1.084  0.3764  1.7602 -0.4542
11296TIP3   OH255302   2.520   0.546  13.504  0.8947 -0.1840 -0.1012
11296TIP3    H155303   2.478   0.476  13.554  0.0121  1.3292  1.3852
11296TIP3    H255304   2.474   0.548  13.421  1.0058 -1.4076 -0.2133
11297TIP3   OH255305   0.904   5.722  11.648  0.3168 -0.0419 -0.3260
11297TIP3    H155306   0.859   5.718  11.732  0.5706 -0.6072 -0.2158
11297TIP3    H255307   0.921   5.631  11.625  2.7145  0.1818  0.3396
11298TIP3   OH255308   5.299   1.058   0.727 -0.2580 -0.5430 -0.0402
11298TIP3    H155309   5.337   1.051   0.814  0.5240  0.2552 -0.3067
11298TIP3    H255310   5.374   1.064   0.668 -0.7741  1.2891 -0.5534
11299TIP3   OH255311   4.668   2.256  14.942 -0.6075 -0.1488  0.5137
11299TIP3    H155312   4.695   2.230  14.854 -2.7169 -0.8560  0.0282
11299TIP3    H255313   4.736   2.220  14.999  0.0953 -0.8304 -0.7109
11300TIP3   OH255314   1.781   1.438  17.306  0.3004 -0.3175 -0.0252
11300TIP3    H155315   1.753   1.514  17.357  1.1933 -0.2035  0.3302
11300TIP3    H255316   1.775   1.364  17.367 -0.6538 -0.5561 -0.3955
11301TIP3   OH255317   3.936   3.819  15.109  0.4528 -0.2971  0.4619
11301TIP3    H155318   3.869   3.757  15.080  0.4634  0.3237 -0.9322
11301TIP3    H255319   4.018   3.771  15.099  0.5940  0.3525 -1.9378
11302TIP3   OH255320   1.058   1.446  16.503 -0.1480  0.8541 -0.5612
11302TIP3    H155321   0.998   1.447  16.577 -0.7081 -1.9609 -0.8489
11302TIP3    H255322   1.002   1.454  16.426  0.2789  2.1568 -0.7609
11303TIP3   OH255323   2.312   0.578   5.334 -0.4167 -0.2032 -0.0289
11303TIP3    H155324   2.323   0.572   5.429 -0.4083 -1.5665 -0.0975
11303TIP3    H255325   2.377   0.517   5.299  0.2358  0.9886 -0.9631
11304TIP3   OH255326   0.897   2.696   1.605  0.8251  0.5316  0.3022
11304TIP3    H155327   0.819   2.725   1.653 -1.4194 -1.5563 -1.8508
11304TIP3    H255328   0.905   2.758   1.533  1.2406  0.7739  0.5491
11305TIP3   OH255329   1.065   3.555   3.655  0.1122 -0.3678  0.0545
11305TIP3    H155330   1.035   3.468   3.627 -0.6523 -0.2156  0.3934
11305TIP3    H255331   0.995   3.588   3.710  0.6004  0.2888  0.2899
11306TIP3   OH255332   1.425   2.350  13.827 -0.4614  0.1795 -0.0074
11306TIP3    H155333   1.395   2.401  13.902  1.6037 -1.1640  1.8887
11306TIP3    H255334   1.410   2.406  13.751  0.6619  3.1547  1.8228
11307TIP3   OH255335   6.512   3.081   1.632  0.0819 -0.2239  0.8492
11307TIP3    H155336   6.430   3.032   1.633  0.7956 -1.6931 -1.6225
11307TIP3    H255337   6.531   3.099   1.724 -3.2385  0.6933  1.4695
11308TIP3   OH255338   2.559   2.403   3.682  0.2602 -0.0462  0.0920
11308TIP3    H155339   2.496   2.363   3.623  2.7592 -1.3847 -1.8830
11308TIP3    H255340   2.559   2.347   3.760 -0.7905 -0.1235  0.0517
11309TIP3   OH255341   2.346   5.625   0.919 -0.0437  0.2588  0.3353
11309TIP3    H155342   2.392   5.594   0.841 -1.5850  0.3103 -0.6338
11309TIP3    H255343   2.306   5.546   0.956 -1.5371  0.5870 -0.4825
11310TIP3   OH255344   6.152   5.915  13.438  0.6477  1.0178 -0.4656
11310TIP3    H155345   6.073   5.927  13.491  1.7092 -1.2019  1.7906
11310TIP3    H255346   6.167   6.001  13.398 -0.8448  2.5073  1.9606
11311TIP3   OH255347   6.029   3.389   2.868 -0.1949 -0.3532  0.5063
11311TIP3    H155348   5.964   3.429   2.925  0.2488 -0.8250  1.3766
11311TIP3    H255349   6.073   3.324   2.924  0.9215 -0.1444 -0.0938
11312TIP3   OH255350   0.513   4.375  16.210  0.9222  0.1118 -0.0498
11312TIP3    H155351   0.455   4.303  16.186  1.5903 -0.9243  1.3006
11312TIP3    H255352   0.593   4.359  16.160 -0.0074  1.7902 -2.2587
11313TIP3   OH255353   6.183   5.967   2.486  0.2257  0.3710  0.1071
11313TIP3    H155354   6.149   5.961   2.576  0.3394  0.9679  0.1900
11313TIP3    H255355   6.121   6.024   2.441  0.4125  0.4217 -0.0838
11314TIP3   OH255356   4.198   2.006  16.408 -0.0099  0.2391  0.1708
11314TIP3    H155357   4.232   1.920  16.432 -2.4567 -0.9613 -0.2965
11314TIP3    H255358   4.118   1.987  16.360  0.0846  2.7847 -1.1563
11315TIP3   OH255359   4.346   0.630   0.974 -0.3242  0.7836 -0.7157
11315TIP3    H155360   4.363   0.600   1.063  1.7643 -0.5006 -1.4780
11315TIP3    H255361   4.400   0.709   0.965  0.8852 -0.0799 -1.3498
11316TIP3   OH255362   5.537   6.134   4.666  0.3045  0.1694 -0.2110
11316TIP3    H155363   5.537   6.189   4.744  2.0194 -1.4267  0.9957
11316TIP3    H255364   5.468   6.070   4.681  0.0219  0.4233 -0.4273
11317TIP3   OH255365   4.701   4.017   3.244  0.3563 -0.0005 -0.3270
11317TIP3    H155366   4.714   4.110   3.261 -2.0968  0.4176 -0.3854
11317TIP3    H255367   4.668   3.982   3.327 -0.4064 -0.4309 -0.7973
11318TIP3   OH255368   6.675   0.911  13.820 -0.0444  0.7367  0.4086
11318TIP3    H155369   6.709   0.968  13.751  0.0998 -1.3734 -1.3811
11318TIP3    H255370   6.632   0.839  13.772 -0.5372 -0.4728  2.5464
11319TIP3   OH255371   1.639   4.418  11.761 -0.4927 -0.0888  0.3125
11319TIP3    H155372   1.627   4.327  11.735 -0.9057 -0.2661  1.1050
11319TIP3    H255373   1.688   4.457  11.689 -1.2175 -0.6775 -0.5226
11320TIP3   OH255374   3.726   1.676   4.123 -0.5072 -0.0149  0.1610
11320TIP3    H155375   3.671   1.755   4.120  1.7509  1.7459  1.8268
11320TIP3    H255376   3.809   1.704   4.085  0.6960 -1.2623  1.7634
11321TIP3   OH255377   2.310   1.977  17.096 -0.2197  0.3878 -0.3753
11321TIP3    H155378   2.389   2.031  17.088 -0.4730  0.5340 -2.4745
11321TIP3    H255379   2.269   1.983  17.009 -2.8917  0.8366  0.8335
11322TIP3   OH255380   1.386   5.157  12.043  0.4212  0.6225  0.6525
11322TIP3    H155381   1.446   5.143  11.969  1.4907 -0.5559  1.7035
11322TIP3    H255382   1.438   5.206  12.107  0.3991 -0.6565  1.6945
11323TIP3   OH255383   0.786   6.728  14.760 -0.1632 -0.6522 -0.2775
11323TIP3    H155384   0.808   6.810  14.715 -0.5638 -0.2915  0.1629
11323TIP3    H255385   0.817   6.659  14.702 -0.0605 -0.1873 -0.7825
11324TIP3   OH255386   5.026   1.744  14.814 -0.6472 -0.6188 -0.0783
11324TIP3    H155387   4.968   1.727  14.889  1.6818  2.0970  2.5790
11324TIP3    H255388   5.110   1.707  14.840  0.4189  1.0582 -0.9894
11325TIP3   OH255389   1.581   0.436   4.579 -0.4101  0.3776 -0.0284
11325TIP3    H155390   1.510   0.498   4.566 -0.6467  0.3376  0.9923
11325TIP3    H255391   1.575   0.411   4.671  1.7287  1.3642  0.4409
11326TIP3   OH255392   0.590   6.160   1.674  0.4743 -0.2026  0.1345
11326TIP3    H155393   0.509   6.202   1.703  0.2266 -0.0672 -0.7165
11326TIP3    H255394   0.561   6.080   1.629  0.7963 -0.1100 -0.2533
11327TIP3   OH255395   2.354   6.275  17.128 -0.5699  0.2036  0.6326
11327TIP3    H155396   2.307   6.200  17.090 -1.6347  1.1557  0.0123
11327TIP3    H255397   2.446   6.256  17.110 -0.6632 -1.7108  1.8891
11328TIP3   OH255398   1.461   6.432  14.918 -0.1104  0.1787  0.0340
11328TIP3    H155399   1.388   6.491  14.937 -0.8221 -0.8954  0.8016
11328TIP3    H255400   1.455   6.365  14.986  1.7794  0.2106  0.2731
11329TIP3   OH255401   5.892   4.572  14.949  0.2431  0.1570  0.1350
11329TIP3    H155402   5.813   4.527  14.919 -0.6277  2.8061 -2.0199
11329TIP3    H255403   5.868   4.665  14.948  2.7874  0.9333  1.4644
11330TIP3   OH255404   4.021   2.111  15.354  0.1860  0.5424 -0.0506
11330TIP3    H155405   3.965   2.066  15.291  1.0603  1.1771 -1.3115
11330TIP3    H255406   3.992   2.202  15.351 -0.1121  0.4897  0.8708
11331TIP3   OH255407   6.253   1.894  15.146 -0.5129 -0.0407  0.6602
11331TIP3    H155408   6.343   1.909  15.119 -0.7062  0.9934  0.5652
11331TIP3    H255409   6.246   1.799  15.156  0.5940 -0.1204  0.7171
11332TIP3   OH255410   1.480   3.935  16.477 -0.4022  0.2125  0.1927
11332TIP3    H155411   1.499   3.977  16.393  1.5542  0.2930  0.6159
11332TIP3    H255412   1.496   3.842  16.462  0.6208  0.3019  0.6038
11333TIP3   OH255413   4.639   6.678   4.496 -0.4186  0.0052 -0.5561
11333TIP3    H155414   4.643   6.710   4.406  0.1147  1.5156 -0.0293
11333TIP3    H255415   4.546   6.683   4.519 -0.4174  0.6531 -0.6780
11334TIP3   OH255416   2.969   2.117  15.624  0.0726 -0.1687  0.0230
11334TIP3    H155417   2.995   2.040  15.674  0.4794 -1.3668 -1.9562
11334TIP3    H255418   3.003   2.191  15.676  1.6599 -1.4011  0.8441
11335TIP3   OH255419   3.185   1.156  17.203 -0.1295  0.1518  0.8140
11335TIP3    H155420   3.171   1.240  17.159 -0.2370 -0.4307 -0.3112
11335TIP3    H255421   3.246   1.109  17.146  0.8665 -0.0957  2.0307
11336TIP3   OH255422   2.398   6.571   4.706 -0.1538 -0.1181  0.5947
11336TIP3    H155423   2.387   6.620   4.625  0.1575 -0.4122  0.3749
11336TIP3    H255424   2.346   6.620   4.770 -1.1909 -0.4289  0.0051
11337TIP3   OH255425   3.276   5.183   4.022 -0.1026  0.2391  0.3099
11337TIP3    H155426   3.199   5.234   3.995 -1.5778 -0.7260  2.4355
11337TIP3    H255427   3.241   5.097   4.045  1.6552 -0.2871  1.1787
11338TIP3   OH255428   0.762   2.831   5.610  0.3616  0.3122 -0.1702
11338TIP3    H155429   0.805   2.903   5.657 -1.0630  1.0285  0.0985
11338TIP3    H255430   0.686   2.872   5.568  0.0179 -0.8729 -0.7411
11339TIP3   OH255431   3.483   0.485   2.720  0.5143  0.2359 -0.0247
11339TIP3    H155432   3.391   0.487   2.748  0.6228  0.2061  0.3421
11339TIP3    H255433   3.532   0.469   2.801  0.7868 -0.5567 -0.3416
11340TIP3   OH255434   1.821   1.953   1.870  0.5635 -0.0818  0.0237
11340TIP3    H155435   1.911   1.929   1.891  0.2748 -1.2941 -0.0075
11340TIP3    H255436   1.774   1.869   1.868 -0.1992  0.3492 -1.7709
11341TIP3   OH255437   0.489   0.868  13.157  0.1620  0.5116 -0.0235
11341TIP3    H155438   0.552   0.930  13.194  0.2305  1.0232 -0.9811
11341TIP3    H255439   0.421   0.861  13.224  1.6900 -0.8171  1.4721
11342TIP3   OH255440   4.098   4.682  12.855  0.6940  0.0507  0.2473
11342TIP3    H155441   4.124   4.593  12.832 -0.2542 -0.0489 -0.5272
11342TIP3    H255442   4.164   4.738  12.814  0.4726 -0.2474 -0.5347
11343TIP3   OH255443   3.839   3.680  16.451 -0.5727 -0.5426 -0.1283
11343TIP3    H155444   3.798   3.638  16.376  0.2629 -1.7915  0.0848
11343TIP3    H255445   3.873   3.608  16.504  2.1457  0.3971 -0.4252
11344TIP3   OH255446   5.414   3.327  12.647 -1.0424 -0.0594  0.3145
11344TIP3    H155447   5.340   3.285  12.691 -1.5686  0.5097 -0.0168
11344TIP3    H255448   5.378   3.359  12.564 -0.8401  1.6336  0.8430
11345TIP3   OH255449   1.080   2.617  14.179 -0.0626  0.0616 -0.1018
11345TIP3    H155450   1.060   2.708  14.161  2.5186  0.8510  0.4820
11345TIP3    H255451   1.003   2.568  14.150 -0.8776  2.2609 -1.9280
11346TIP3   OH255452   0.766   5.946   6.560  0.2167  0.1335 -0.0256
11346TIP3    H155453   0.791   6.037   6.546  1.7006 -0.4821 -1.7286
11346TIP3    H255454   0.818   5.918   6.636 -1.8033  1.2217  1.8697
11347TIP3   OH255455   5.586   6.465  16.276  0.2082  0.0536  0.4691
11347TIP3    H155456   5.533   6.512  16.213 -2.5684  0.3283  2.7853
11347TIP3    H255457   5.535   6.386  16.296  1.7918 -0.8353  1.1674
11348TIP3   OH255458   0.060   6.761  16.145  0.2086  0.1349  0.0694
11348TIP3    H155459   0.010   6.761  16.227  0.5319 -0.4160  0.2732
11348TIP3    H255460   0.143   6.719  16.168  0.2689 -0.1005 -0.5628
11349TIP3   OH255461   1.564   6.532   3.475  0.2001  0.0822 -0.0972
11349TIP3    H155462   1.602   6.482   3.547  1.2726  2.4779  1.1129
11349TIP3    H255463   1.481   6.488   3.456  0.6203 -1.5259  1.5270
11350TIP3   OH255464   6.389   6.034  15.372  0.0204  0.3534  0.1540
11350TIP3    H155465   6.348   6.075  15.296  1.0020  0.0796 -0.5500
11350TIP3    H255466   6.483   6.040  15.354  0.3631  1.8626  2.1741
11351TIP3   OH255467   0.248   2.650   0.434 -0.0135  0.0793 -0.1690
11351TIP3    H155468   0.276   2.606   0.354 -0.4263  0.6665 -0.6410
11351TIP3    H255469   0.152   2.652   0.429  0.0093  1.5658 -0.4622
11352TIP3   OH255470   4.525   6.059   2.711 -0.3867  0.3989  0.0361
11352TIP3    H155471   4.480   5.983   2.749 -0.0625  0.8442  1.3515
11352TIP3    H255472   4.575   6.023   2.638  0.2787 -0.7869  1.0381
11353TIP3   OH255473   4.316   1.152   3.111 -0.0178  0.0402  0.2507
11353TIP3    H155474   4.266   1.232   3.098 -0.9388 -0.5153  0.2775
11353TIP3    H255475   4.328   1.117   3.022  0.6558  0.3603  0.2096
11354TIP3   OH255476   0.559   3.386   3.934 -0.2206 -0.0852 -0.6052
11354TIP3    H155477   0.545   3.296   3.963 -0.1705  0.0468 -0.1492
11354TIP3    H255478   0.522   3.390   3.846  0.8495 -0.8591 -1.1007
11355TIP3   OH255479   2.660   2.494   6.131 -0.3356 -0.4050  0.2175
11355TIP3    H155480   2.696   2.502   6.219  1.4892  0.7118 -0.5803
11355TIP3    H255481   2.722   2.540   6.075 -2.2150  0.2224 -1.4755
11356TIP3   OH255482   1.300   3.444  11.297  0.3207  0.0215 -0.3773
11356TIP3    H155483   1.348   3.436  11.215  1.6283  1.4845  0.2102
11356TIP3    H255484   1.358   3.408  11.363  0.7411  1.9365  0.3614
11357TIP3   OH255485   5.719   0.864  12.312 -0.1556 -0.2676  0.2635
11357TIP3    H155486   5.716   0.887  12.219 -0.0026  1.1151  0.5789
11357TIP3    H255487   5.656   0.924  12.353 -1.2076 -1.7464  0.9001
11358TIP3   OH255488   0.570   1.537   2.951 -0.3693  0.5564 -0.3170
11358TIP3    H155489   0.482   1.525   2.916 -0.1910 -1.7614 -0.0844
11358TIP3    H255490   0.558   1.539   3.046 -0.3143  2.0626 -0.3026
11359TIP3   OH255491   1.834   4.140   1.377 -0.2309  0.0604 -0.0605
11359TIP3    H155492   1.860   4.174   1.291  0.6192 -0.3944  0.0084
11359TIP3    H255493   1.820   4.218   1.430 -0.9920  0.3511 -0.6735
11360TIP3   OH255494   5.346   5.445  13.674 -0.2721 -0.2911  0.7190
11360TIP3    H155495   5.396   5.513  13.719 -0.1059  1.1847 -1.4991
11360TIP3    H255496   5.256   5.458  13.702 -0.2947  1.1279  0.0543
11361TIP3   OH255497   1.075   3.102   5.522  0.3681 -0.6740 -0.4541
11361TIP3    H155498   1.107   3.093   5.612 -1.0127  0.1265  0.1600
11361TIP3    H255499   1.070   3.013   5.489  3.5452 -0.8321 -0.7580
11362TIP3   OH255500   1.181   4.874   5.782 -0.0098  0.2506 -0.0724
11362TIP3    H155501   1.253   4.815   5.761  0.9838  1.7208 -0.9392
11362TIP3    H255502   1.140   4.835   5.860 -0.2195 -2.2467 -1.3412
11363TIP3   OH255503   5.715   2.996   0.053  0.0242 -0.4814  0.5838
11363TIP3    H155504   5.767   2.959   0.124  0.1967 -0.2004  0.6073
11363TIP3    H255505   5.672   2.921   0.012  0.8120 -0.7671  0.2752
11364TIP3   OH255506   5.987   0.959   6.006  0.5476  0.1647 -0.4814
11364TIP3    H155507   6.032   1.041   5.986 -0.1793  0.3700 -1.3288
11364TIP3    H255508   6.054   0.892   5.997  0.3417  0.2556 -3.4830
11365TIP3   OH255509   3.955   3.302   4.390 -0.2575  0.8271  0.3836
11365TIP3    H155510   4.016   3.293   4.316 -2.0115 -0.1095 -1.0110
11365TIP3    H255511   4.009   3.284   4.467  1.5390  1.3862 -0.6612
11366TIP3   OH255512   0.450   2.380   1.237  0.3750  0.7584 -0.4907
11366TIP3    H155513   0.363   2.346   1.218  1.3009 -1.1997 -1.5871
11366TIP3    H255514   0.467   2.444   1.168  0.0404  0.6930 -0.6346
11367TIP3   OH255515   5.616   3.662   0.507  0.4796 -0.6369  0.4728
11367TIP3    H155516   5.690   3.696   0.558 -0.0615  2.6488 -0.6873
11367TIP3    H255517   5.606   3.724   0.435 -0.2438 -3.7838 -2.4054
11368TIP3   OH255518   1.928   6.572  13.063 -0.0235 -0.1730  0.1173
11368TIP3    H155519   1.982   6.647  13.040  0.9411 -0.1796  2.1756
11368TIP3    H255520   1.963   6.500  13.011 -0.9673  0.7467 -1.8865
11369TIP3   OH255521   0.119   1.921   0.332 -0.1631  0.2156 -0.2394
11369TIP3    H155522   0.124   1.910   0.238  0.0408  0.0277 -0.2074
11369TIP3    H255523   0.152   1.838   0.368  0.2089  0.4655 -0.0004
11370TIP3   OH255524   5.832   1.018   0.890  0.3278  0.0496 -0.6835
11370TIP3    H155525   5.749   1.049   0.925  1.2284  0.4092  1.2847
11370TIP3    H255526   5.812   0.990   0.801 -1.3413  2.5476 -1.1681
11371TIP3   OH255527   0.134   5.917   4.316 -0.3737  1.0056 -0.4599
11371TIP3    H155528   0.137   5.962   4.401  1.9685 -1.0906  0.7046
11371TIP3    H255529   0.209   5.951   4.268  0.3957 -0.2742 -0.2381
11372TIP3   OH255530   5.230   4.987   2.253 -0.4634  0.2310 -0.1650
11372TIP3    H155531   5.222   4.964   2.345  1.2663 -0.0150 -0.0460
11372TIP3    H255532   5.141   5.012   2.226 -1.2200 -0.8671  1.2324
11373TIP3   OH255533   4.601   6.054  16.399 -0.1751 -0.2213  0.2229
11373TIP3    H155534   4.622   6.024  16.488 -0.0911  1.1587  0.6894
11373TIP3    H255535   4.685   6.081  16.362 -0.1881 -0.9398 -0.3436
11374TIP3   OH255536   6.316   5.069  13.637  0.7470 -0.1777 -0.0834
11374TIP3    H155537   6.330   5.163  13.640  0.3287 -0.0347 -1.7763
11374TIP3    H255538   6.370   5.039  13.564  0.4962 -1.1834  0.1275
11375TIP3   OH255539   4.427   1.703   3.416  0.0071 -0.0219  0.4959
11375TIP3    H155540   4.369   1.776   3.434  0.0699  0.0413  0.4433
11375TIP3    H255541   4.495   1.710   3.483  0.4898  0.4809 -0.0327
11376TIP3   OH255542   3.440   0.848   2.771  0.1219 -0.6309  0.4064
11376TIP3    H155543   3.421   0.758   2.799 -2.2078 -0.0978  0.6591
11376TIP3    H255544   3.467   0.893   2.851 -0.1163 -0.7331  0.5436
11377TIP3   OH255545   4.328   5.988  14.850 -0.2836  0.1160 -0.3649
11377TIP3    H155546   4.322   5.907  14.901 -1.0749  1.5372  2.0131
11377TIP3    H255547   4.363   6.052  14.912  1.4258  1.3739 -2.5051
11378TIP3   OH255548   1.292   0.253  10.660 -0.6871 -0.7531  0.3800
11378TIP3    H155549   1.362   0.239  10.724 -1.7517 -1.6151  1.4231
11378TIP3    H255550   1.228   0.307  10.707 -1.0156 -0.5221 -0.3281
11379TIP3   OH255551   0.652   4.090  12.491  0.2170  0.3788 -0.0644
11379TIP3    H155552   0.732   4.101  12.440  1.0792  0.9947  1.3530
11379TIP3    H255553   0.660   4.004  12.532 -0.4381 -0.0841 -0.8859
11380TIP3   OH255554   5.637   6.661   2.742 -0.0779 -0.2839 -0.4220
11380TIP3    H155555   5.546   6.677   2.713  0.2088  1.1043 -0.6569
11380TIP3    H255556   5.688   6.663   2.661  0.1655 -1.1557 -0.2989
11381TIP3   OH255557   5.258   1.710  12.787  0.4626  0.1479  0.1091
11381TIP3    H155558   5.328   1.658  12.746  0.3712 -0.2680  0.4695
11381TIP3    H255559   5.264   1.688  12.880 -0.8308 -0.7321  0.0172
11382TIP3   OH255560   0.431   5.815   0.837 -0.3004 -0.0002  0.3641
11382TIP3    H155561   0.512   5.777   0.870 -0.7787  0.1759  1.7866
11382TIP3    H255562   0.459   5.889   0.783  0.4574  1.0230  2.0942
11383TIP3   OH255563   2.408   3.930  11.210 -0.2664  0.4558  0.1734
11383TIP3    H155564   2.357   3.891  11.139  0.4183  1.1060 -0.6948
11383TIP3    H255565   2.471   3.986  11.166  1.0886 -0.1851  1.2200
11384TIP3   OH255566   2.068   2.338   1.040 -0.6120 -0.2366  0.3624
11384TIP3    H155567   2.083   2.354   0.947 -0.9324  2.2745  0.6703
11384TIP3    H255568   2.005   2.405   1.066 -0.2395 -0.6308  2.4829
11385TIP3   OH255569   3.950   2.743   4.573 -0.5952  0.2954 -0.3840
11385TIP3    H155570   3.893   2.735   4.650  0.6016  1.2709  0.6452
11385TIP3    H255571   3.929   2.829   4.537  0.5381  0.8788  0.2974
11386TIP3   OH255572   5.421   0.620  16.442  0.0154  0.1086 -0.0750
11386TIP3    H155573   5.326   0.620  16.431  0.0245 -1.8434 -0.5667
11386TIP3    H255574   5.455   0.639  16.354  0.0580 -0.8265 -0.2739
11387TIP3   OH255575   4.505   0.281   5.409 -0.9035  0.0212  0.1737
11387TIP3    H155576   4.495   0.213   5.477 -1.4335  0.3390  0.4153
11387TIP3    H255577   4.447   0.253   5.338 -0.8491  0.0339  0.1247
11388TIP3   OH255578   5.608   6.519   5.792 -0.1170  0.1485  0.1587
11388TIP3    H155579   5.631   6.595   5.845  1.0609  0.3701 -0.6413
11388TIP3    H255580   5.523   6.542   5.753 -1.1729 -0.1503  2.1394
11389TIP3   OH255581   6.019   4.699   1.633 -0.8804  0.6751  0.2344
11389TIP3    H155582   6.078   4.641   1.681 -1.8779  0.1578  0.8744
11389TIP3    H255583   5.953   4.640   1.597 -0.2105  1.0583 -1.7551
11390TIP3   OH255584   4.612   1.987  16.610  0.2833  0.2120 -0.0062
11390TIP3    H155585   4.691   2.038  16.590  0.5570 -0.5408 -0.9282
11390TIP3    H255586   4.550   2.010  16.540 -0.2663  0.6654  0.6126
11391TIP3   OH255587   0.086   1.754  12.387 -0.1718  0.8088 -0.1393
11391TIP3    H155588   0.158   1.816  12.394  1.2245 -0.7285 -0.2661
11391TIP3    H255589   0.069   1.747  12.293  0.2105  0.4245 -0.1830
11392TIP3   OH255590   1.258   1.176   4.283 -0.5284 -0.4368 -0.2465
11392TIP3    H155591   1.335   1.131   4.247  0.1465 -0.7382  1.5098
11392TIP3    H255592   1.261   1.262   4.242  0.6239 -0.5079 -0.3724
11393TIP3   OH255593   2.371   0.775   0.473 -0.2923  0.3119  0.3919
11393TIP3    H155594   2.395   0.714   0.542 -2.7376  0.7075  1.6872
11393TIP3    H255595   2.322   0.722   0.410 -2.0608  0.7783  1.3146
11394TIP3   OH255596   0.759   5.375  11.180 -0.1046 -0.5326  0.3587
11394TIP3    H155597   0.734   5.461  11.147  0.9279 -0.0819  0.7043
11394TIP3    H255598   0.684   5.346  11.232 -0.0736  0.6066  1.0564
11395TIP3   OH255599   2.385   5.851  15.018 -0.3383 -0.6252  0.4012
11395TIP3    H155600   2.385   5.782  14.952  1.5589 -0.0700 -0.2504
11395TIP3    H255601   2.353   5.928  14.972  0.3575 -0.3887  0.3115
11396TIP3   OH255602   4.856   1.645  13.234  0.8301 -0.0854 -0.5623
11396TIP3    H155603   4.860   1.607  13.146  0.4067  0.9058 -1.0309
11396TIP3    H255604   4.872   1.739  13.219 -3.3422  0.8771 -0.1519
11397TIP3   OH255605   0.573   1.431   5.157 -0.6924 -0.3729 -0.1050
11397TIP3    H155606   0.570   1.356   5.099 -0.8706  0.1429 -0.7681
11397TIP3    H255607   0.564   1.507   5.100 -0.2036  0.1714  0.5178
11398TIP3   OH255608   0.310   5.067  14.302 -0.1203 -0.7479  0.5293
11398TIP3    H155609   0.365   4.991  14.282  2.4491  1.2034 -0.3730
11398TIP3    H255610   0.341   5.097  14.388  1.7828  1.4911 -0.8042
11399TIP3   OH255611   5.954   1.696  13.716  0.0720 -0.1079  0.4553
11399TIP3    H155612   5.906   1.770  13.680  1.2215  0.8471  0.7978
11399TIP3    H255613   5.995   1.730  13.796  0.2075 -1.2633  0.9091
11400TIP3   OH255614   5.659   3.575   2.602 -0.5924 -0.2551  0.3811
11400TIP3    H155615   5.737   3.618   2.636 -1.6575  1.2560  0.9775
11400TIP3    H255616   5.599   3.570   2.676 -1.6165 -0.0958 -0.4087
11401TIP3   OH255617   0.057   0.619   2.947  0.2768 -0.9171  0.0961
11401TIP3    H155618   0.045   0.548   2.884  0.6358 -0.7509 -0.1677
11401TIP3    H255619   0.149   0.643   2.938  0.0532 -0.1123 -0.1490
11402TIP3   OH255620   2.900   4.946  14.944 -0.1563 -0.1141 -0.1484
11402TIP3    H155621   2.903   4.977  14.853  0.1321 -2.8583 -1.1816
11402TIP3    H255622   2.989   4.958  14.976 -0.1412  0.4409 -0.3815
11403TIP3   OH255623   0.986   2.395   5.548 -0.5486 -0.4388 -0.2375
11403TIP3    H155624   0.922   2.377   5.618 -2.8805  1.8861 -1.5765
11403TIP3    H255625   1.041   2.317   5.545 -1.3180 -1.2894  3.1113
11404TIP3   OH255626   5.645   2.100   1.612  0.1304  0.0161 -0.0328
11404TIP3    H155627   5.693   2.153   1.676 -0.7176  0.8172 -0.0421
11404TIP3    H255628   5.567   2.151   1.593 -0.9452 -1.4415  0.3004
11405TIP3   OH255629   1.802   6.305   1.882  0.5646  0.8005 -0.4734
11405TIP3    H155630   1.857   6.227   1.886 -0.0382  0.4050  0.2264
11405TIP3    H255631   1.853   6.367   1.829  0.4102 -0.5693 -2.3360
11406TIP3   OH255632   0.462   4.916  13.986  0.3807 -0.3708  0.2364
11406TIP3    H155633   0.396   4.847  13.997  1.0007 -0.7908  1.4779
11406TIP3    H255634   0.482   4.945  14.075  1.3287  0.2759 -0.1704
11407TIP3   OH255635   3.922   6.228   4.331 -0.2854  0.0137 -0.0207
11407TIP3    H155636   4.011   6.263   4.332 -0.4313  0.3845  0.9843
11407TIP3    H255637   3.928   6.145   4.379 -0.7619  0.8272  1.5343
11408TIP3   OH255638   6.420   1.875   4.639  0.5486 -0.1430  0.2447
11408TIP3    H155639   6.479   1.938   4.681  0.0081  1.7966 -1.6853
11408TIP3    H255640   6.360   1.848   4.708 -0.4357  3.0488  0.8288
11409TIP3   OH255641   1.883   3.131  15.048  0.1161  0.3456 -0.4537
11409TIP3    H155642   1.846   3.211  15.084 -0.4942 -0.2142  0.1994
11409TIP3    H255643   1.839   3.119  14.964 -0.6619  0.0756 -0.0141
11410TIP3   OH255644   0.784   2.609  15.635  0.7886  0.2628 -0.1210
11410TIP3    H155645   0.813   2.672  15.570  1.8092 -0.4962 -0.4210
11410TIP3    H255646   0.725   2.551  15.586  0.4565  0.5136 -0.0256
11411TIP3   OH255647   1.237   4.721   4.677  0.2091  0.5315  0.0155
11411TIP3    H155648   1.201   4.733   4.589  1.5052  0.7566 -0.5136
11411TIP3    H255649   1.330   4.739   4.667  0.1369  2.1607  1.7759
11412TIP3   OH255650   6.490   3.813  13.278 -0.8144  0.0724 -0.7209
11412TIP3    H155651   6.545   3.876  13.232  0.0433 -0.2534 -0.1558
11412TIP3    H255652   6.471   3.746  13.213 -1.3871  0.6847 -1.2038
11413TIP3   OH255653   1.705   5.239  13.404  0.3977  0.2225 -0.4535
11413TIP3    H155654   1.732   5.296  13.332  0.9026 -0.8040 -1.1041
11413TIP3    H255655   1.628   5.282  13.441 -0.6563  0.1743 -2.4097
11414TIP3   OH255656   3.571   5.235  12.308  0.5809 -0.0549 -0.1764
11414TIP3    H155657   3.554   5.272  12.221 -0.4167 -0.3555 -0.1231
11414TIP3    H255658   3.562   5.308  12.368 -0.1099 -0.1170 -0.1972
11415TIP3   OH255659   3.309   1.807   2.911 -0.1359 -0.0129 -0.3822
11415TIP3    H155660   3.311   1.770   3.000 -1.3686  1.9841  0.5524
11415TIP3    H255661   3.400   1.823   2.890  0.1889 -0.6350  0.4721
11416TIP3   OH255662   2.349   5.873  15.517  0.3249 -0.0269 -0.1815
11416TIP3    H155663   2.341   5.839  15.428  1.1169  0.3817 -0.4163
11416TIP3    H255664   2.410   5.814  15.560  0.9784  0.5494 -0.3113
11417TIP3   OH255665   0.953   2.131  12.347  0.0517 -0.5959 -0.3029
11417TIP3    H155666   1.047   2.136  12.335  0.0443  2.4891  0.0467
11417TIP3    H255667   0.917   2.185  12.277 -1.5563 -2.3318 -0.9005
11418TIP3   OH255668   5.212   4.835   5.603 -0.3600 -0.7234  0.1119
11418TIP3    H155669   5.129   4.788   5.616  0.2285 -1.5627  1.0629
11418TIP3    H255670   5.263   4.813   5.681 -0.2944  2.0908  0.9498
11419TIP3   OH255671   5.665   0.778   0.740  0.8413 -0.2645 -0.2221
11419TIP3    H155672   5.602   0.726   0.690  0.5748  1.3415 -1.6543
11419TIP3    H255673   5.648   0.754   0.832 -2.5503  0.7752 -0.4195
11420TIP3   OH255674   5.399   0.429  15.342  0.0923  0.0538  0.0363
11420TIP3    H155675   5.393   0.334  15.333  1.2460 -0.2095  1.5558
11420TIP3    H255676   5.481   0.452  15.299  1.3569 -0.0967  2.2271
11421TIP3   OH255677   0.534   1.209   1.780  0.3191 -0.2933 -0.4778
11421TIP3    H155678   0.574   1.272   1.720  1.3653  0.1449  0.6202
11421TIP3    H255679   0.552   1.246   1.867 -2.4589 -0.1029  0.1058
11422TIP3   OH255680   0.707   6.059   4.672  0.4112 -0.2648  0.3763
11422TIP3    H155681   0.669   6.074   4.759 -0.7931  1.3686 -0.3592
11422TIP3    H255682   0.711   6.146   4.632  2.9033 -0.6765 -0.4716
11423TIP3   OH255683   3.726   4.943   1.341  0.2546  0.0251  0.2362
11423TIP3    H155684   3.658   4.930   1.407 -0.2211 -1.8579 -0.5733
11423TIP3    H255685   3.741   4.857   1.304 -0.0826  1.1322 -2.7139
11424TIP3   OH255686   1.652   4.528  14.194  0.7466  0.1658  0.2051
11424TIP3    H155687   1.598   4.543  14.117  1.8838 -1.4160 -0.9594
11424TIP3    H255688   1.707   4.606  14.201 -0.4243  1.0048  0.3758
11425TIP3   OH255689   0.468   4.685  15.977 -0.1515  0.1242  0.1899
11425TIP3    H155690   0.417   4.617  15.932  0.5106 -0.1731 -0.1227
11425TIP3    H255691   0.547   4.639  16.006  1.1063  1.1365 -1.4917
11426TIP3   OH255692   0.952   1.862   1.351 -0.0918  0.0199  0.6183
11426TIP3    H155693   0.865   1.881   1.316  0.1934 -0.2028 -0.2313
11426TIP3    H255694   1.005   1.938   1.327  0.3306 -0.5382 -0.2438
11427TIP3   OH255695   3.847   1.398  16.518  0.0168 -0.9301 -0.6438
11427TIP3    H155696   3.883   1.432  16.600 -0.5243  0.1789 -0.8610
11427TIP3    H255697   3.836   1.304  16.535  2.6286 -1.2738 -0.4490
11428TIP3   OH255698   3.510   0.824   4.627 -0.0706  0.5114 -0.1812
11428TIP3    H155699   3.601   0.851   4.612  0.0009  2.3354  2.7641
11428TIP3    H255700   3.460   0.905   4.625 -1.6344 -0.4325 -1.3545
11429TIP3   OH255701   6.324   0.359   2.807  0.3468 -0.4361  0.0998
11429TIP3    H155702   6.242   0.341   2.760  1.1409 -0.8611 -1.1697
11429TIP3    H255703   6.301   0.427   2.870 -0.8729 -0.2078 -0.5637
11430TIP3   OH255704   3.824   3.063  15.120 -0.0761  0.5949  0.4956
11430TIP3    H155705   3.786   3.126  15.181 -0.3366  0.3414  0.5943
11430TIP3    H255706   3.754   3.001  15.101 -1.0103  2.3525 -2.4291
11431TIP3   OH255707   0.152   3.574   1.564  0.3462 -0.1322  0.8484
11431TIP3    H155708   0.228   3.628   1.540  0.5000 -0.4080  0.7162
11431TIP3    H255709   0.184   3.484   1.561  0.0298 -0.2459  0.8553
11432TIP3   OH255710   6.698   5.991   5.207 -0.1014  0.0278 -0.2252
11432TIP3    H155711   6.623   5.933   5.219 -1.5035  1.8647  0.3673
11432TIP3    H255712   6.682   6.035   5.123 -0.2095  1.0925  0.3268
11433TIP3   OH255713   1.919   4.891   5.034  0.0403  0.1242 -0.1065
11433TIP3    H155714   1.843   4.877   4.978 -1.9447 -0.5413  2.5187
11433TIP3    H255715   1.976   4.816   5.018  0.6476  1.0397 -2.7040
11434TIP3   OH255716   2.798   5.387  16.324 -0.1282  0.1951 -0.1948
11434TIP3    H155717   2.840   5.406  16.240 -0.1503  0.6987 -0.0964
11434TIP3    H255718   2.792   5.472  16.367  0.3768 -0.1346  0.5500
11435TIP3   OH255719   3.790   2.891  11.508 -0.1066  0.3551 -0.2702
11435TIP3    H155720   3.794   2.851  11.595 -0.5959 -1.5860 -1.0832
11435TIP3    H255721   3.700   2.876  11.479  0.3646 -0.1116 -1.5728
11436TIP3   OH255722   0.862   1.179  15.604 -0.5755 -0.2673 -0.0174
11436TIP3    H155723   0.913   1.109  15.563 -0.1082  0.3423 -0.4739
11436TIP3    H255724   0.922   1.219  15.666 -1.0791 -0.7554  0.8114
11437TIP3   OH255725   3.881   4.156  11.772  0.2306  0.4719  0.1577
11437TIP3    H155726   3.817   4.205  11.825  2.1321  1.1492  1.9784
11437TIP3    H255727   3.902   4.079  11.825 -2.0601 -2.0190 -2.2869
11438TIP3   OH255728   4.159   1.574   5.735 -0.3315  0.1230 -0.0040
11438TIP3    H155729   4.200   1.631   5.801  1.2015 -0.0200 -0.7856
11438TIP3    H255730   4.135   1.495   5.783  0.4874  0.1388  0.4439
11439TIP3   OH255731   4.826   5.611   4.965 -0.1456  0.0228  0.1736
11439TIP3    H155732   4.897   5.663   5.001 -0.1393 -0.3776  0.7560
11439TIP3    H255733   4.747   5.662   4.983 -0.1238 -0.0957  0.6042
11440TIP3   OH255734   4.795   2.032   4.332  0.0753 -0.1136  0.4365
11440TIP3    H155735   4.824   2.118   4.302  1.8099 -0.7678  0.1195
11440TIP3    H255736   4.868   1.999   4.385 -1.1861 -0.7724  1.8547
11441TIP3   OH255737   4.308   0.549  14.255 -0.1683 -0.2454 -0.6187
11441TIP3    H155738   4.335   0.460  14.230  2.0846  0.8929 -2.6289
11441TIP3    H255739   4.388   0.601  14.248 -1.3438  1.9140  0.8601
11442TIP3   OH255740   2.884   1.097  15.699 -0.4252  0.3093  0.0292
11442TIP3    H155741   2.949   1.168  15.700  0.2764 -0.2989  1.5563
11442TIP3    H255742   2.842   1.103  15.786 -1.7502  0.0767 -0.5712
11443TIP3   OH255743   0.030   0.233   1.021  0.0953  0.3638  0.3367
11443TIP3    H155744   0.121   0.261   1.011  0.2876  0.3948  1.9329
11443TIP3    H255745  -0.013   0.308   1.063 -0.6674  0.3267 -0.3547
11444TIP3   OH255746   4.792   6.151   1.149 -0.1161 -0.0320  0.0322
11444TIP3    H155747   4.812   6.059   1.132  0.4337 -0.2197  1.5760
11444TIP3    H255748   4.817   6.165   1.240 -1.7810  1.2166  0.3368
11445TIP3   OH255749   5.033   4.793  15.303 -0.1022 -0.0031  0.0909
11445TIP3    H155750   5.013   4.883  15.328 -1.3048  0.0814 -1.0994
11445TIP3    H255751   4.987   4.739  15.367  1.3639  0.1709  1.3781
11446TIP3   OH255752   5.633   1.521  14.918 -0.7281 -0.7950  0.0631
11446TIP3    H155753   5.635   1.562  15.005  3.2787 -0.5006  0.0190
11446TIP3    H255754   5.610   1.592  14.858  2.3127  0.6460  0.4040
11447TIP3   OH255755   4.006   2.627   2.193 -0.2375  0.0494 -0.2566
11447TIP3    H155756   4.008   2.721   2.173  1.0859  0.4061  1.2503
11447TIP3    H255757   3.938   2.619   2.260  0.1393  0.0740  0.1352
11448TIP3   OH255758   5.978   1.338   1.944 -0.5164  0.3232 -0.1607
11448TIP3    H155759   5.934   1.255   1.926  0.7911  0.0809 -2.7018
11448TIP3    H255760   6.051   1.314   2.002  0.6273 -0.6147 -1.8957
11449TIP3   OH255761   4.912   5.510  15.147  0.0459  0.1322 -0.4867
11449TIP3    H155762   5.000   5.491  15.178  0.2440  2.0531  0.2042
11449TIP3    H255763   4.878   5.424  15.120  2.5874 -0.4936 -2.1128
11450TIP3   OH255764   6.417   3.534  10.848 -0.2379  0.5500 -0.2220
11450TIP3    H155765   6.443   3.482  10.772  0.6294  1.1329 -0.3347
11450TIP3    H255766   6.380   3.614  10.811  2.2672  1.8507 -0.0654
11451TIP3   OH255767   1.059   4.126   1.767  0.6948  0.1304 -0.3684
11451TIP3    H155768   1.153   4.131   1.753  0.9505 -1.3049  0.6122
11451TIP3    H255769   1.020   4.149   1.683  1.9618 -1.3019 -1.3790
11452TIP3   OH255770   6.220   0.826  13.438  0.0601 -0.2326 -0.0099
11452TIP3    H155771   6.224   0.735  13.406 -3.8283  0.0871 -2.0350
11452TIP3    H255772   6.187   0.819  13.527 -1.3678 -0.8818 -0.5488
11453TIP3   OH255773   3.068   2.583   5.872 -0.6280 -0.3227 -0.4206
11453TIP3    H155774   3.086   2.676   5.862 -1.1993 -0.2671 -1.0334
11453TIP3    H255775   3.154   2.543   5.885 -0.4761  0.4115  1.0095
11454TIP3   OH255776   4.653   6.385   1.090  0.8767 -0.3332  0.3032
11454TIP3    H155777   4.706   6.305   1.090  1.5083  0.0804  0.6574
11454TIP3    H255778   4.575   6.361   1.039  1.3619 -0.9695 -0.1704
11455TIP3   OH255779   3.344   6.306   2.721 -0.1207  0.3720  0.3393
11455TIP3    H155780   3.356   6.214   2.744  1.5404  0.8895  1.7632
11455TIP3    H255781   3.303   6.345   2.799  0.0704  1.0263  0.1193
11456TIP3   OH255782   1.205   2.007  13.701  0.0452 -1.0321 -0.1955
11456TIP3    H155783   1.115   1.994  13.671 -0.3059 -1.0846  0.8233
11456TIP3    H255784   1.218   1.939  13.767  0.5862 -0.5643  0.1892
11457TIP3   OH255785   6.314   0.929   3.512 -0.2200  0.1371 -0.5151
11457TIP3    H155786   6.404   0.897   3.520 -1.1197 -2.8464 -1.0114
11457TIP3    H255787   6.322   1.024   3.508  2.9357 -0.0556 -1.0481
11458TIP3   OH255788   6.565   6.106  13.110 -0.1840 -0.2209  0.5903
11458TIP3    H155789   6.580   6.151  13.027 -0.9573  1.9327  1.5406
11458TIP3    H255790   6.650   6.071  13.135 -0.2421 -2.4309 -1.8663
11459TIP3   OH255791   5.352   2.432  13.907 -0.6323  0.3793 -0.0247
11459TIP3    H155792   5.444   2.417  13.930 -0.3402  0.9487 -0.7920
11459TIP3    H255793   5.322   2.497  13.970 -0.7486 -0.3799  0.7283
11460TIP3   OH255794   4.410   5.464   2.750 -0.2161  0.2833 -1.0589
11460TIP3    H155795   4.413   5.368   2.747 -0.5207  0.2842 -1.6100
11460TIP3    H255796   4.371   5.489   2.666 -0.2035  0.8886 -0.8889
11461TIP3   OH255797   2.736   3.922  13.817  0.0744 -0.0957  0.6001
11461TIP3    H155798   2.719   3.830  13.835  2.8471 -0.7097  0.4551
11461TIP3    H255799   2.771   3.957  13.898 -0.3145  0.6922  0.4447
11462TIP3   OH255800   2.701   1.177  12.742 -0.3430 -0.6969 -0.4043
11462TIP3    H155801   2.739   1.239  12.805 -0.9880  1.1165 -1.6946
11462TIP3    H255802   2.758   1.101  12.745  1.3408  0.5329  0.2353
11463TIP3   OH255803   1.491   3.370   2.162 -0.3004  0.4010 -0.0574
11463TIP3    H155804   1.433   3.441   2.132  0.7025  1.8197  1.1795
11463TIP3    H255805   1.579   3.407   2.154  0.4173 -1.4896 -1.3079
11464TIP3   OH255806   3.002   0.699   4.553  0.4462  0.6693 -0.1505
11464TIP3    H155807   3.094   0.676   4.567  0.3165 -1.2157 -1.8408
11464TIP3    H255808   2.963   0.696   4.640  1.5419 -0.7701  0.3444
11465TIP3   OH255809   1.880   2.705   2.611  0.4429 -0.6824 -0.4269
11465TIP3    H155810   1.976   2.704   2.607  0.4051 -1.0856 -1.5953
11465TIP3    H255811   1.855   2.614   2.594 -0.1324 -0.7910  0.8851
11466TIP3   OH255812   0.832   4.636  12.780 -0.3291 -0.3505 -0.7479
11466TIP3    H155813   0.832   4.584  12.700  0.0752  2.0752 -2.4264
11466TIP3    H255814   0.919   4.677  12.782 -1.4389  2.2160 -0.9379
11467TIP3   OH255815   2.928   5.492   3.732  0.5174 -0.0923  0.6503
11467TIP3    H155816   2.962   5.581   3.737  1.3851 -0.3459 -0.3772
11467TIP3    H255817   2.932   5.459   3.822  1.6134  0.3999  0.7943
11468TIP3   OH255818   6.642   4.274  10.490 -0.4636  0.5115 -0.1673
11468TIP3    H155819   6.586   4.255  10.414  0.1398 -0.2739 -0.4242
11468TIP3    H255820   6.731   4.259  10.458 -0.2067  0.0788  0.7272
11469TIP3   OH255821   6.750   5.880  10.971 -0.0364 -0.3792  0.0505
11469TIP3    H155822   6.724   5.854  10.882  1.5151 -0.2641 -0.4704
11469TIP3    H255823   6.820   5.819  10.994  0.8913  0.7978  0.4130
11470TIP3   OH255824   0.542   0.469  14.583 -0.3547 -0.2088  0.0328
11470TIP3    H155825   0.605   0.477  14.511 -0.0433  1.7393  0.4721
11470TIP3    H255826   0.465   0.519  14.554 -1.2062 -1.4626  0.0561
11471TIP3   OH255827   1.147   6.094   2.746 -0.1957 -0.0627  0.0868
11471TIP3    H155828   1.056   6.113   2.723 -0.3984 -1.4129 -0.3057
11471TIP3    H255829   1.141   6.034   2.820  0.3870  0.1480  0.3117
11472TIP3   OH255830   2.153   2.217  13.183 -0.1708 -0.1057  0.1806
11472TIP3    H155831   2.192   2.252  13.103  0.4384 -3.5825 -1.2366
11472TIP3    H255832   2.073   2.269  13.197 -1.0202 -0.1969 -3.4846
11473TIP3   OH255833   5.881   1.580   5.681  0.3126 -0.0029  0.6483
11473TIP3    H155834   5.953   1.575   5.617 -0.2059  0.6158  0.0012
11473TIP3    H255835   5.822   1.509   5.656  0.4723 -0.2197  0.8906
11474TIP3   OH255836   1.642   0.254   3.816 -0.0062 -0.7555  0.6772
11474TIP3    H155837   1.687   0.175   3.847 -1.3211 -2.1041 -0.6185
11474TIP3    H255838   1.565   0.261   3.873  0.2374 -0.2257  0.9524
11475TIP3   OH255839   2.444   6.744   2.093  0.5937  0.0822  0.0540
11475TIP3    H155840   2.410   6.786   2.172  2.2278 -1.3598  1.6019
11475TIP3    H255841   2.420   6.652   2.102  0.2510  0.0046 -1.4590
11476TIP3   OH255842   5.995   4.967   5.668  0.0280 -0.0954  0.2291
11476TIP3    H155843   6.041   5.018   5.735  0.4545 -0.3661  0.1409
11476TIP3    H255844   5.913   4.941   5.710 -0.7280  1.6109 -0.0819
11477TIP3   OH255845   3.059   4.286   2.513  0.7490  0.0256  0.3698
11477TIP3    H155846   3.090   4.293   2.423 -0.3872 -0.0589 -0.0363
11477TIP3    H255847   3.135   4.253   2.561  1.2358 -0.3568 -0.6302
11478TIP3   OH255848   0.480   5.659   5.075  0.3176  0.2599 -0.7123
11478TIP3    H155849   0.406   5.716   5.054 -0.8520 -0.3087  1.5921
11478TIP3    H255850   0.513   5.631   4.989 -1.0003  1.9326 -1.8385
11479TIP3   OH255851   1.466   4.708  14.956 -0.5889  0.3797  0.4030
11479TIP3    H155852   1.391   4.687  15.012 -0.5395  0.0127  0.3293
11479TIP3    H255853   1.429   4.720  14.869 -0.1027 -4.4667 -0.7569
11480TIP3   OH255854   0.006   3.012   4.468  0.6310 -0.3003  0.1698
11480TIP3    H155855   0.048   3.058   4.395  1.8220 -0.5367  0.6947
11480TIP3    H255856   0.026   3.065   4.545 -0.0131 -0.4380  0.4390
11481TIP3   OH255857   0.573   6.193   3.695  0.5511  0.4431 -0.2918
11481TIP3    H155858   0.583   6.278   3.652 -0.4448  0.4368 -0.5581
11481TIP3    H255859   0.567   6.213   3.788  1.0262  0.5999 -0.2921
11482TIP3   OH255860   3.883   4.696  11.035  0.4381 -0.0851 -0.1433
11482TIP3    H155861   3.953   4.713  11.098 -0.6236  0.2197  0.9781
11482TIP3    H255862   3.897   4.605  11.008  1.4229  0.0572 -0.1679
11483TIP3   OH255863   5.390   3.708  12.695 -0.3456  0.2603  0.8258
11483TIP3    H155864   5.351   3.771  12.634  0.1193  1.8098  2.0401
11483TIP3    H255865   5.482   3.705  12.672 -0.4537 -0.3760  0.4577
11484TIP3   OH255866   4.187   1.145  12.286  0.5020 -0.0067  0.1740
11484TIP3    H155867   4.121   1.128  12.219  0.4359 -0.9411  0.4509
11484TIP3    H255868   4.145   1.118  12.368  1.2060 -0.6083  0.3541
11485TIP3   OH255869   5.542   0.753  10.918 -0.1467  1.0008  0.6642
11485TIP3    H155870   5.555   0.744  11.013  2.3085 -0.2344  0.2816
11485TIP3    H255871   5.455   0.717  10.902  0.6644 -1.8489  2.0910
11486TIP3   OH255872   4.610   0.443   4.995 -0.1238  0.3178 -0.0570
11486TIP3    H155873   4.551   0.499   4.943 -0.9744 -0.0518  0.4991
11486TIP3    H255874   4.552   0.395   5.053  0.8631  1.2761  1.8002
11487TIP3   OH255875   2.770   3.792   3.764 -0.0990  0.0700 -0.4270
11487TIP3    H155876   2.855   3.830   3.743  0.3749 -0.8038 -0.1606
11487TIP3    H255877   2.770   3.784   3.860 -0.1396 -0.6745 -0.4789
11488TIP3   OH255878   6.725   3.875   1.704  0.3866 -0.1609  0.1564
11488TIP3    H155879   6.660   3.889   1.773  0.2861  1.7408 -0.2753
11488TIP3    H255880   6.674   3.859   1.625  0.4999 -1.3317  0.2949
11489TIP3   OH255881   1.855   2.532   0.982 -0.3648 -0.2540  0.7418
11489TIP3    H155882   1.806   2.475   0.924 -0.8357  2.2347 -1.5376
11489TIP3    H255883   1.876   2.609   0.928 -0.5817  2.1400  3.7873
11490TIP3   OH255884   1.005   6.707   6.655  0.1161 -0.1130 -0.2703
11490TIP3    H155885   0.980   6.778   6.596  1.7718  0.1460 -0.7302
11490TIP3    H255886   1.097   6.725   6.675  0.1150 -1.2592  0.8840
11491TIP3   OH255887   2.670   6.402  17.251  0.2448 -0.0951  0.3466
11491TIP3    H155888   2.719   6.354  17.317  1.1398 -2.3076 -1.7430
11491TIP3    H255889   2.674   6.346  17.173  1.3571  3.3367 -2.3698
11492TIP3   OH255890   3.147   3.763   4.006 -0.3122  1.0904 -0.0043
11492TIP3    H155891   3.208   3.827   4.041 -0.5441  2.9424 -2.6469
11492TIP3    H255892   3.192   3.725   3.930 -1.1326 -0.1139  0.0720
11493TIP3   OH255893   0.633   2.899  17.143  0.2515  0.0278  0.5824
11493TIP3    H155894   0.727   2.882  17.152  0.2207 -0.6137 -0.2611
11493TIP3    H255895   0.628   2.989  17.111  0.6426 -0.4379 -0.8333
11494TIP3   OH255896   6.083   3.382  16.659 -0.1263  0.1391  0.5459
11494TIP3    H155897   6.041   3.363  16.743 -0.0649  0.5764  0.6735
11494TIP3    H255898   6.048   3.467  16.633 -1.4458 -0.7306 -0.6869
11495TIP3   OH255899   1.210   6.439  11.358  0.1902 -0.3346 -0.2846
11495TIP3    H155900   1.258   6.363  11.325  0.9196  0.6204 -1.5195
11495TIP3    H255901   1.194   6.493  11.280 -1.5734  0.1064  0.3359
11496TIP3   OH255902   1.454   2.779  14.331  0.2121 -0.4037  0.1366
11496TIP3    H155903   1.440   2.688  14.307 -0.6794 -0.2184 -0.1189
11496TIP3    H255904   1.367   2.810  14.358  0.5627  0.2808  0.5048
11497TIP3   OH255905   2.012   1.256  12.089  0.2338 -0.2942 -0.1631
11497TIP3    H155906   2.033   1.212  12.172 -0.6209 -0.3615  0.0287
11497TIP3    H255907   2.084   1.234  12.031  0.6012 -0.6483  0.4180
11498TIP3   OH255908   0.070   2.643   3.421 -0.0030 -0.3179 -0.5555
11498TIP3    H155909   0.134   2.668   3.354  0.6195 -1.2664 -0.3454
11498TIP3    H255910   0.087   2.550   3.436 -1.8509 -0.7585 -0.9255
11499TIP3   OH255911   1.311   5.757  16.988 -0.0792 -0.1801 -0.1121
11499TIP3    H155912   1.229   5.806  16.984  1.6156  2.8482 -0.7285
11499TIP3    H255913   1.334   5.743  16.896  0.8791  0.5043  0.0073
11500TIP3   OH255914   1.329   2.313   1.758 -0.0560  0.2413 -0.2997
11500TIP3    H155915   1.357   2.336   1.847  0.0680  0.9355 -0.5146
11500TIP3    H255916   1.331   2.395   1.710 -2.2765  0.3126 -0.3833
11501TIP3   OH255917   5.969   4.015   5.646 -0.3265  0.4741  0.0746
11501TIP3    H155918   6.063   4.033   5.654 -0.4156  0.4236  1.3918
11501TIP3    H255919   5.938   4.079   5.582 -0.0153  2.9088  2.2042
11502TIP3   OH255920   4.974   2.190  16.111  0.3164  0.0032  0.3438
11502TIP3    H155921   5.008   2.119  16.166 -0.3040  0.7656  1.7629
11502TIP3    H255922   4.938   2.145  16.035  1.3730 -1.0752  0.4389
11503TIP3   OH255923   2.090   1.642   6.215  0.4673  0.1071 -0.3239
11503TIP3    H155924   2.140   1.567   6.248 -0.8893 -0.3514  0.8346
11503TIP3    H255925   2.156   1.708   6.196  1.5521 -0.6464  0.6261
11504TIP3   OH255926   6.548   0.674   0.074 -0.4251 -0.2963 -0.0557
11504TIP3    H155927   6.627   0.714   0.110 -2.6689  2.8975  1.7517
11504TIP3    H255928   6.514   0.619   0.145 -1.1470  0.3779  0.1296
11505TIP3   OH255929   1.598   1.547  10.581  0.3796  0.6378 -0.4176
11505TIP3    H155930   1.522   1.600  10.608 -1.1160 -1.0601 -1.1087
11505TIP3    H255931   1.599   1.474  10.643  1.0278  0.2616 -0.8640
11506TIP3   OH255932   5.024   0.232  11.718 -0.0482  0.2193  0.2510
11506TIP3    H155933   5.047   0.275  11.636  0.8221  3.2947  1.9335
11506TIP3    H255934   4.973   0.297  11.766 -1.4594 -1.8704  1.7527
11507TIP3   OH255935   1.959   2.012  10.882  0.6129  0.2980 -0.3591
11507TIP3    H155936   1.896   2.068  10.835  0.5085  0.1061 -0.4532
11507TIP3    H255937   1.991   1.952  10.815  0.3573 -0.0715 -0.1537
11508TIP3   OH255938   3.886   6.564  15.748 -0.2169 -0.0426 -0.4118
11508TIP3    H155939   3.969   6.524  15.722  0.2281  1.0322 -0.7113
11508TIP3    H255940   3.912   6.643  15.797 -1.0622 -0.2334  0.3662
11509TIP3   OH255941   1.823   4.165  11.775  0.6995  0.0716  0.2583
11509TIP3    H155942   1.800   4.102  11.842  0.9605  0.7150  0.9655
11509TIP3    H255943   1.879   4.229  11.819 -1.7325  2.3366  0.3196
11510TIP3   OH255944   1.730   0.692  15.446  0.0979  0.4724  0.2224
11510TIP3    H155945   1.822   0.680  15.421  0.2577  0.3979  0.8283
11510TIP3    H255946   1.696   0.755  15.383  1.0851  1.9929  1.1359
11511TIP3   OH255947   1.651   4.872  12.747 -0.0592  0.1059 -0.2523
11511TIP3    H155948   1.601   4.851  12.826  1.0069 -0.9578  0.1690
11511TIP3    H255949   1.593   4.930  12.697 -0.9133  0.4778  1.1083
11512TIP3   OH255950   0.818   6.409   5.012  0.0671  0.2742 -0.3415
11512TIP3    H155951   0.851   6.398   5.102 -0.4805  2.3496  0.1735
11512TIP3    H255952   0.728   6.378   5.016 -0.4233  1.6794  0.2445
11513TIP3   OH255953   0.275   3.770   4.581  0.6803  0.4586  0.2318
11513TIP3    H155954   0.297   3.847   4.528  2.6300 -0.7601 -0.8042
11513TIP3    H255955   0.297   3.796   4.671  1.3107  1.1137 -0.1043
11514TIP3   OH255956   5.770   2.636  12.388  0.0535 -0.3623 -0.9030
11514TIP3    H155957   5.736   2.568  12.447 -0.0991  0.2225 -0.3149
11514TIP3    H255958   5.696   2.655  12.330 -0.6646  0.8865  0.3539
11515TIP3   OH255959   1.936   4.428   2.305  0.4314  0.1885  0.7216
11515TIP3    H155960   2.002   4.380   2.255 -0.7061 -1.9118  1.1099
11515TIP3    H255961   1.978   4.510   2.329  0.9014  1.6436 -4.1045
11516TIP3   OH255962   6.707   4.329  12.599  0.0863 -0.7333 -0.5965
11516TIP3    H155963   6.790   4.377  12.592 -0.3193  0.1158  0.0550
11516TIP3    H255964   6.687   4.331  12.693  0.2975 -2.6588 -0.4755
11517TIP3   OH255965   2.638   0.802  12.048 -0.2629 -0.5291 -0.1419
11517TIP3    H155966   2.610   0.783  12.137  0.5193  0.6569  0.3840
11517TIP3    H255967   2.612   0.725  11.997 -1.4673 -0.8683  0.9388
11518TIP3   OH255968   3.964   3.631   0.937  0.0798 -0.4791  0.0069
11518TIP3    H155969   3.875   3.649   0.966 -0.0181 -0.6816 -0.1625
11518TIP3    H255970   4.012   3.712   0.953  0.0581 -0.6208  0.8397
11519TIP3   OH255971   4.429   2.057   5.207  0.3713 -0.4988 -0.2414
11519TIP3    H155972   4.500   2.044   5.270  0.9039 -2.0041 -1.0749
11519TIP3    H255973   4.467   2.029   5.123 -1.3229 -1.7670 -0.6407
11520TIP3   OH255974   0.898   1.390   2.865  0.1371 -0.1598 -0.5011
11520TIP3    H155975   0.860   1.458   2.809  0.6805  1.1765  0.6667
11520TIP3    H255976   0.916   1.317   2.807  2.7657  1.9590 -2.5977
11521TIP3   OH255977   6.548   3.000  15.710 -0.1178  0.1563  0.2432
11521TIP3    H155978   6.611   3.072  15.720 -0.1981  0.4812 -1.3209
11521TIP3    H255979   6.465   3.043  15.688 -0.2367 -0.3959 -0.4175
11522TIP3   OH255980   2.441   2.454  15.694  0.0531 -0.2819  0.1922
11522TIP3    H155981   2.434   2.525  15.758 -2.0406 -1.4508  1.3737
11522TIP3    H255982   2.399   2.380  15.736  0.9123 -1.8574 -1.5698
11523TIP3   OH255983   2.940   4.005  14.162 -0.3682 -0.0509  0.2016
11523TIP3    H155984   3.009   3.940  14.145 -0.5501 -0.5433  1.2397
11523TIP3    H255985   2.962   4.040  14.249 -0.0321  1.6122 -0.5046
11524TIP3   OH255986   3.912   4.271  12.966 -0.0072 -0.2059  0.3073
11524TIP3    H155987   4.001   4.270  12.931  0.0465 -0.1472  0.4415
11524TIP3    H255988   3.860   4.226  12.900  0.1039 -0.1469  0.1791
11525TIP3   OH255989   2.277   6.666   1.650  0.3761  0.1154 -0.2444
11525TIP3    H155990   2.289   6.609   1.573 -0.3562  0.7023 -0.8114
11525TIP3    H255991   2.325   6.622   1.720  0.0464 -1.0682 -0.7343
11526TIP3   OH255992   3.058   1.635  15.973  0.6927  0.3567  0.6068
11526TIP3    H155993   3.039   1.560  16.030 -0.1671 -0.8832 -1.2517
11526TIP3    H255994   2.974   1.678  15.960  1.3327  2.3975  2.5465
11527TIP3   OH255995   2.695   2.436  12.334 -0.2391  0.2536  0.1083
11527TIP3    H155996   2.619   2.382  12.313  0.2241 -1.3392  2.2377
11527TIP3    H255997   2.755   2.422  12.260 -1.7345  1.1265 -1.3406
11528TIP3   OH255998   1.586   3.963   3.071  0.3640  0.0885  0.1213
11528TIP3    H155999   1.617   3.901   3.137  0.3238  0.8221  0.8483
11528TIP3    H256000   1.664   4.011   3.044 -0.0544  2.0060  2.0269
11529TIP3   OH256001   3.201   1.232  13.541  0.3238  0.2445  0.2518
11529TIP3    H156002   3.139   1.186  13.484 -0.7233  2.5101 -0.5632
11529TIP3    H256003   3.147   1.296  13.588  1.9795  2.2889 -0.4825
11530TIP3   OH256004   4.500   0.237  10.919 -0.3921  0.5738 -0.1291
11530TIP3    H156005   4.429   0.235  10.854 -1.3079 -1.4971  0.8442
11530TIP3    H256006   4.457   0.264  11.000  0.0526 -0.1200  0.3426
11531TIP3   OH256007   6.647   1.622  14.075 -0.1594 -0.3561  0.4663
11531TIP3    H156008   6.570   1.617  14.131  0.4362 -1.1754  1.2470
11531TIP3    H256009   6.721   1.627  14.135  0.5243 -1.6027 -0.2181
11532TIP3   OH256010   1.400   5.009   2.267 -0.8022  0.4073 -0.0132
11532TIP3    H156011   1.325   5.049   2.310 -0.1545  1.0836  0.5022
11532TIP3    H256012   1.439   4.951   2.333 -1.5270 -0.8274 -0.6424
11533TIP3   OH256013   4.416   2.976  13.229 -0.0930  0.1668 -0.0191
11533TIP3    H156014   4.460   3.052  13.266 -0.4223  0.4576 -0.2194
11533TIP3    H256015   4.411   2.994  13.135  0.3213 -0.3540 -0.1412
11534TIP3   OH256016   6.003   6.382  15.156  0.1585 -0.2407  0.4095
11534TIP3    H156017   5.960   6.376  15.070  0.9664 -2.3848  0.0890
11534TIP3    H256018   5.938   6.424  15.212 -0.5623  0.7898 -1.1218
11535TIP3   OH256019   0.491   6.329  16.794 -0.4017 -0.4695 -0.4088
11535TIP3    H156020   0.434   6.312  16.719  1.7530 -0.1824 -2.2579
11535TIP3    H256021   0.555   6.257  16.792  0.2201  0.0313  0.6239
11536TIP3   OH256022   4.888   0.045   1.143 -1.1567 -0.1378 -0.0314
11536TIP3    H156023   4.841   0.104   1.202 -0.6905  0.5037 -0.2813
11536TIP3    H256024   4.823  -0.020   1.117 -1.1362 -0.9969  1.9144
11537TIP3   OH256025   0.632   6.097   0.168 -0.2754  0.6045  1.2457
11537TIP3    H156026   0.595   6.126   0.084  0.4926  0.0252  0.6931
11537TIP3    H256027   0.569   6.031   0.199  0.4947 -0.7451  0.0643
11538TIP3   OH256028   3.934   5.474   1.583 -0.0362  0.1453  0.1604
11538TIP3    H156029   4.019   5.446   1.548 -0.2943 -0.2718 -0.1437
11538TIP3    H256030   3.955   5.548   1.640  0.7278 -0.9465  1.3662
11539TIP3   OH256031   1.486   3.879   4.448  0.6268  0.3031 -0.1041
11539TIP3    H156032   1.577   3.901   4.466  0.7167 -0.6291  0.7109
11539TIP3    H256033   1.489   3.789   4.415  0.0168  0.2779 -0.1013
11540TIP3   OH256034   3.379   6.733  16.367 -0.0964 -0.2369 -0.1531
11540TIP3    H156035   3.425   6.650  16.364 -0.2156 -0.2998 -2.6667
11540TIP3    H256036   3.447   6.799  16.356 -0.1800 -0.1017  0.1322
11541TIP3   OH256037   5.245   3.337  14.383  0.6422 -0.3150  0.4417
11541TIP3    H156038   5.182   3.408  14.370 -0.4078 -1.3652 -0.4510
11541TIP3    H256039   5.283   3.323  14.297  0.4001 -1.2081  0.4666
11542TIP3   OH256040   4.975   4.349   1.859 -0.0890  0.3270 -0.2886
11542TIP3    H156041   4.935   4.312   1.781  0.0242 -0.8415  0.1871
11542TIP3    H256042   5.062   4.377   1.831  1.3298 -3.2484  0.1203
11543TIP3   OH256043   5.753   1.575  12.979 -0.3262  0.5923  0.3145
11543TIP3    H156044   5.812   1.517  12.931 -1.5004 -0.3039 -0.1001
11543TIP3    H256045   5.764   1.550  13.071 -0.4189  0.0674  0.1889
11544TIP3   OH256046   5.236   6.525   2.406  0.3395 -0.1398 -0.5268
11544TIP3    H156047   5.177   6.474   2.351  0.1763  0.1442 -0.6158
11544TIP3    H256048   5.263   6.465   2.475 -0.4594 -0.1206 -0.1845
11545TIP3   OH256049   2.226   3.411   4.553 -0.5206  0.1327  0.1632
11545TIP3    H156050   2.257   3.338   4.500 -1.6246 -0.2572  0.0256
11545TIP3    H256051   2.248   3.387   4.643 -3.2212 -1.7076  0.4538
11546TIP3   OH256052   5.847   5.104  15.640  0.0745  0.0347  0.2266
11546TIP3    H156053   5.819   5.116  15.731 -0.7194  0.2262 -0.0321
11546TIP3    H256054   5.768   5.121  15.588  0.6673  0.5237 -0.5338
11547TIP3   OH256055   1.543   1.093  10.711  0.2212 -0.0389  0.1102
11547TIP3    H156056   1.566   1.170  10.762 -1.7523  0.7968 -0.1817
11547TIP3    H256057   1.622   1.039  10.713  1.8551  2.2100 -0.1381
11548TIP3   OH256058   0.427   2.867  17.294  0.2536  0.3990  0.1593
11548TIP3    H156059   0.499   2.854  17.232 -1.6186 -1.6783 -1.7299
11548TIP3    H256060   0.361   2.917  17.245 -0.2610  0.9291  1.3428
11549TIP3   OH256061   2.548   2.846   3.077  0.1554 -0.2706 -0.1910
11549TIP3    H156062   2.588   2.771   3.123 -1.7753 -1.1071  0.2029
11549TIP3    H256063   2.614   2.915   3.084  1.4572 -1.5184  0.5959
11550TIP3   OH256064   4.849   1.712  15.006  0.3147 -0.5220  0.3460
11550TIP3    H156065   4.780   1.774  15.031  0.4675 -0.4095  0.4881
11550TIP3    H256066   4.802   1.632  14.981  0.1414 -0.4855  0.5586
11551TIP3   OH256067   4.280   6.088  11.368  0.3251  0.2712 -0.2017
11551TIP3    H156068   4.321   6.070  11.453 -0.1691  3.5014  0.8830
11551TIP3    H256069   4.352   6.117  11.312  0.5025 -0.8733 -0.5777
11552TIP3   OH256070   3.120   4.552   0.087 -0.1907  0.4446  0.0112
11552TIP3    H156071   3.029   4.530   0.107 -0.2051 -0.0302 -0.5449
11552TIP3    H256072   3.148   4.608   0.160 -0.3981 -0.8166  1.1048
11553TIP3   OH256073   6.169   2.989  13.257  0.8114  0.0259 -0.1775
11553TIP3    H156074   6.168   3.071  13.208 -0.2453  0.3244  0.3063
11553TIP3    H256075   6.161   2.921  13.190 -1.0642  0.4405 -0.4350
11554TIP3   OH256076   5.800   1.311   6.478  0.0461  0.6891 -0.1763
11554TIP3    H156077   5.829   1.251   6.547  0.8371 -1.0114 -1.8754
11554TIP3    H256078   5.711   1.334   6.501 -0.3698 -1.3626  0.4626
11555TIP3   OH256079   4.623   3.888  13.926 -0.2684  0.0085  0.0157
11555TIP3    H156080   4.651   3.924  14.011 -1.5314  0.7510  0.1327
11555TIP3    H256081   4.652   3.797  13.929  0.4491  0.2387  0.8957
11556TIP3   OH256082   3.036   4.837   2.969  0.3434 -0.2132 -0.7202
11556TIP3    H156083   3.091   4.841   2.891  0.1700 -0.6977 -0.8677
11556TIP3    H256084   2.955   4.881   2.944 -0.7174 -2.5334 -1.6520
11557TIP3   OH256085   2.802   1.582  17.005  0.2614 -0.1983 -0.1643
11557TIP3    H156086   2.763   1.503  17.041 -2.0971  1.4374  1.1229
11557TIP3    H256087   2.826   1.635  17.081  1.6010  0.4573 -0.9911
11558TIP3   OH256088   2.625   4.921   4.696  0.5596 -0.5115 -0.3211
11558TIP3    H156089   2.549   4.956   4.742  0.2525 -2.6459  0.9365
11558TIP3    H256090   2.699   4.972   4.729  0.0242 -0.3968  0.7500
11559TIP3   OH256091   0.618   2.869   1.921 -0.8401 -1.3328  0.2455
11559TIP3    H156092   0.621   2.924   1.842 -1.4826 -2.0486 -0.2892
11559TIP3    H256093   0.624   2.931   1.994 -0.9205 -0.6051 -0.3569
11560TIP3   OH256094   1.298   1.681  14.886  0.5993  0.3228 -0.0733
11560TIP3    H156095   1.271   1.720  14.803  1.1671  0.0060 -0.4148
11560TIP3    H256096   1.225   1.624  14.912 -0.0922  1.3341  0.2603
11561TIP3   OH256097   4.364   0.874  16.150  0.1122  0.4182 -0.3874
11561TIP3    H156098   4.352   0.925  16.230  1.9356 -1.4988  1.2111
11561TIP3    H256099   4.427   0.924  16.098 -0.0751  1.0228 -0.0421
11562TIP3   OH256100   4.595   5.030  13.798  0.3926  0.0488  0.1596
11562TIP3    H156101   4.536   5.105  13.788 -2.0409 -1.4488  2.0213
11562TIP3    H256102   4.671   5.065  13.844 -0.9650  1.3251  1.5647
11563TIP3   OH256103   0.977   3.066  15.697  0.5628 -0.0413 -0.2351
11563TIP3    H156104   0.956   3.157  15.676 -0.3343 -0.4867 -1.3541
11563TIP3    H256105   0.997   3.026  15.613  1.1976 -0.8324  0.2767
11564TIP3   OH256106   1.070   5.468  13.996  0.0534  0.2521  0.6039
11564TIP3    H156107   1.047   5.474  14.089 -1.0916  0.0440  0.3526
11564TIP3    H256108   1.143   5.405  13.994 -0.4625 -0.3952  1.2877
11565TIP3   OH256109   5.573   3.201  15.470  0.3338  0.6178  0.5478
11565TIP3    H156110   5.507   3.235  15.530  0.7680  0.6843  0.9937
11565TIP3    H256111   5.532   3.126  15.428  0.1631  0.3375  1.2146
11566TIP3   OH256112   3.257   2.784   1.549  0.3302  0.4953  0.4161
11566TIP3    H156113   3.324   2.848   1.571  0.1909  1.2606 -1.2622
11566TIP3    H256114   3.302   2.719   1.496  0.0537  0.2058  0.5295
11567TIP3   OH256115   6.444   3.660  16.365  0.1169  0.0695 -0.3669
11567TIP3    H156116   6.410   3.732  16.417 -1.5383  0.2857 -1.6547
11567TIP3    H256117   6.400   3.582  16.399 -1.1248  0.2365 -1.4771
11568TIP3   OH256118   6.260   0.074   2.422  0.1993 -0.3570 -0.4921
11568TIP3    H156119   6.323   0.126   2.471 -2.3379  2.3340  0.1752
11568TIP3    H256120   6.247   0.122   2.341  0.6257 -2.1123 -1.6611
11569TIP3   OH256121   2.453   0.608   3.923 -0.1099  0.3175  0.9040
11569TIP3    H156122   2.443   0.534   3.982  1.3622  0.1654  0.9831
11569TIP3    H256123   2.450   0.685   3.980  0.9657  0.1860  1.1554
11570TIP3   OH256124   0.576   0.165  13.597  0.0630  0.1515  0.7554
11570TIP3    H156125   0.617   0.207  13.672  1.5415  0.8145 -0.3836
11570TIP3    H256126   0.620   0.203  13.521 -2.5398  0.7394 -0.5500
11571TIP3   OH256127   1.823   6.577   3.432  1.0129  0.0659  0.0753
11571TIP3    H156128   1.823   6.652   3.372  2.2703  0.5096  0.5927
11571TIP3    H256129   1.735   6.540   3.425  0.6614  1.0439 -0.8734
11572TIP3   OH256130   2.957   4.490  15.206 -0.0036 -0.8486 -0.4056
11572TIP3    H156131   3.049   4.479  15.230 -0.3756  0.8260  2.2989
11572TIP3    H256132   2.953   4.574  15.160 -0.1470 -1.0219 -0.7122
11573TIP3   OH256133   1.567   1.028   3.934 -0.1073  0.0672 -0.3750
11573TIP3    H156134   1.652   1.015   3.975  0.3829  1.1356 -1.0181
11573TIP3    H256135   1.576   0.993   3.846 -1.4255 -3.0462  0.5838
11574TIP3   OH256136   4.527   5.609  16.536 -0.2984 -0.4018 -0.2543
11574TIP3    H156137   4.544   5.537  16.475 -1.0994 -0.9892  0.1944
11574TIP3    H256138   4.465   5.665  16.489  0.6642  0.2405 -0.7776
11575TIP3   OH256139   1.035   5.102  12.696  0.6983  0.0168 -0.2301
11575TIP3    H156140   1.003   5.041  12.630  2.5031  0.1117 -1.2257
11575TIP3    H256141   0.956   5.148  12.726 -0.2749 -0.7001 -1.6114
11576TIP3   OH256142   0.301   2.484   2.995  0.2661  0.1114  0.2475
11576TIP3    H156143   0.261   2.511   2.912 -1.8624  0.3857  1.2867
11576TIP3    H256144   0.372   2.425   2.969 -1.5290 -1.3398 -1.7646
11577TIP3   OH256145   1.547   2.707  12.213 -0.6648  0.3078  0.1271
11577TIP3    H156146   1.589   2.638  12.264  1.8815  0.1686 -1.9456
11577TIP3    H256147   1.473   2.664  12.170 -0.6205 -0.4797  0.8180
11578TIP3   OH256148   1.174   3.726  16.370  0.3645 -0.4924  0.0839
11578TIP3    H156149   1.260   3.686  16.360  1.0361  0.7137  0.7693
11578TIP3    H256150   1.116   3.673  16.315  1.4032 -1.7258  0.1328
11579TIP3   OH256151   0.662   2.054  16.401 -0.0849  0.2651 -0.3093
11579TIP3    H156152   0.726   2.083  16.336  0.1275  0.9595  0.1943
11579TIP3    H256153   0.714   2.017  16.472 -0.0613  2.6077  0.9978
11580TIP3   OH256154   3.997   1.288  17.035 -0.3644  0.1230  0.2083
11580TIP3    H156155   4.021   1.271  17.126 -0.8969 -0.3910  0.2520
11580TIP3    H256156   4.017   1.207  16.988 -0.1254  0.3722 -0.1372
11581TIP3   OH256157   4.389   5.843   1.109  0.3720 -0.1021  0.1768
11581TIP3    H156158   4.370   5.783   1.182  0.6822  0.0431  0.3786
11581TIP3    H256159   4.306   5.886   1.091  0.3885  0.1680  0.7258
11582TIP3   OH256160   1.296   2.362   0.675  0.2500  0.4712  0.0430
11582TIP3    H156161   1.366   2.363   0.609 -0.3938  2.1369 -0.6665
11582TIP3    H256162   1.222   2.322   0.629 -1.1112  4.1860 -1.3680
11583TIP3   OH256163   3.366   6.423   5.517  0.0458 -0.4593 -0.4939
11583TIP3    H156164   3.448   6.435   5.469  0.5595 -1.1672  0.1773
11583TIP3    H256165   3.393   6.417   5.609 -0.3780 -3.5450 -0.4594
11584TIP3   OH256166   6.680   1.644   3.228  0.0405 -0.0667 -0.0132
11584TIP3    H156167   6.741   1.597   3.286 -0.2348  0.2717  0.5608
11584TIP3    H256168   6.639   1.575   3.176 -0.0176 -0.4210  0.4913
11585TIP3   OH256169   2.926   4.650   2.527 -0.3083  0.2456  0.1041
11585TIP3    H156170   2.983   4.619   2.456 -1.2619  0.6265 -0.8638
11585TIP3    H256171   2.983   4.653   2.604  1.0059  0.7447 -0.8503
11586TIP3   OH256172   4.967   2.407   6.393  0.0699 -0.0102  0.1897
11586TIP3    H156173   5.039   2.455   6.352  0.0200  2.1447  2.3582
11586TIP3    H256174   4.998   2.317   6.399  2.2445  0.6835  0.2964
11587TIP3   OH256175   1.019   3.194  12.917  0.0637 -0.0279  0.1762
11587TIP3    H156176   1.108   3.229  12.924  0.6210 -1.2441 -0.4062
11587TIP3    H256177   0.962   3.270  12.925  1.1218  0.6852  1.3117
11588TIP3   OH256178   5.820   4.614   5.707  0.0175 -0.0153  0.4704
11588TIP3    H156179   5.787   4.699   5.677 -0.7982 -0.0689  1.1848
11588TIP3    H256180   5.742   4.565   5.733  0.5664 -0.5643  1.1533
11589TIP3   OH256181   6.629   6.650  11.735 -0.0964  0.3620  0.2801
11589TIP3    H156182   6.692   6.587  11.771 -0.8719 -0.4509  0.2447
11589TIP3    H256183   6.648   6.653  11.642 -0.0026  0.2530  0.2957
11590TIP3   OH256184   4.399   2.471   1.350  0.1124  0.1904 -0.4330
11590TIP3    H156185   4.332   2.404   1.343 -0.6019  0.8012  0.3829
11590TIP3    H256186   4.469   2.430   1.402 -0.1036 -0.0750 -0.3515
11591TIP3   OH256187   5.763   3.961   4.591 -0.3998  0.5470 -0.0350
11591TIP3    H156188   5.703   3.933   4.522 -0.6684  0.0193  0.4065
11591TIP3    H256189   5.805   3.880   4.622 -0.3251  0.7669  0.4598
11592TIP3   OH256190   0.350   5.122   6.591  0.2695 -0.8443  0.4071
11592TIP3    H156191   0.354   5.030   6.618  3.1384 -0.9935 -0.2212
11592TIP3    H256192   0.385   5.171   6.665  0.5329 -0.4698  0.0436
11593TIP3   OH256193   4.122   6.613  14.288 -0.1537 -0.3463 -0.6673
11593TIP3    H156194   4.158   6.674  14.223  2.8007 -0.7284  0.4481
11593TIP3    H256195   4.143   6.653  14.372 -1.4142 -1.2086  0.0947
11594TIP3   OH256196   1.363   1.837   0.176 -0.2785 -0.1351 -0.2210
11594TIP3    H156197   1.283   1.860   0.224 -0.6469 -0.2454 -0.7743
11594TIP3    H256198   1.334   1.774   0.110 -0.4306  2.3885 -2.7565
11595TIP3   OH256199   3.983   4.272  17.312 -0.7332  0.2913  0.2796
11595TIP3    H156200   4.057   4.274  17.251  0.4768 -1.5819  1.5992
11595TIP3    H256201   3.929   4.199  17.283 -1.4032  0.8370  0.1094
11596TIP3   OH256202   3.019   2.460   0.520 -0.4912 -0.1707 -0.2135
11596TIP3    H156203   3.103   2.478   0.562 -0.8301  2.3973 -0.4709
11596TIP3    H256204   2.954   2.483   0.586 -1.0417 -1.6669 -0.1911
11597TIP3   OH256205   2.084   6.302   1.680 -0.3753 -0.2042  0.8130
11597TIP3    H156206   2.103   6.209   1.685  0.5353 -0.0724  0.1634
11597TIP3    H256207   2.169   6.345   1.685 -0.4699  0.4479 -1.5706
11598TIP3   OH256208   0.581   6.166   3.964 -0.2950 -0.3667  0.2576
11598TIP3    H156209   0.488   6.180   3.982 -0.3449 -1.2962  0.8347
11598TIP3    H256210   0.611   6.113   4.038  0.9501  0.8194  0.6350
11599TIP3   OH256211   4.346   3.170   2.493  0.3100  0.8669 -0.6674
11599TIP3    H156212   4.427   3.138   2.453 -0.6292 -1.0958 -1.1497
11599TIP3    H256213   4.283   3.172   2.422 -0.5616  0.4321  0.0646
11600TIP3   OH256214   0.808   5.219  12.062  0.1984 -0.2533 -0.3014
11600TIP3    H156215   0.730   5.173  12.093  1.0843 -1.6931 -0.1591
11600TIP3    H256216   0.868   5.150  12.033  0.6079  0.9067 -2.4148
11601TIP3   OH256217   1.610   6.080   5.650  0.1198  0.2005  0.2833
11601TIP3    H156218   1.606   6.009   5.714 -0.1967 -0.7899 -0.7949
11601TIP3    H256219   1.518   6.106   5.637 -0.2952 -2.0410 -2.3159
11602TIP3   OH256220   6.627   2.088  13.565  0.2232 -0.2544  0.6491
11602TIP3    H156221   6.556   2.036  13.528 -0.3056  0.3380  0.8072
11602TIP3    H256222   6.618   2.077  13.659 -0.7636  1.1911  0.7653
11603TIP3   OH256223   2.460   2.892   1.029 -0.1928  0.2081 -0.6852
11603TIP3    H156224   2.552   2.901   1.052 -0.5095  0.1044  0.7338
11603TIP3    H256225   2.437   2.802   1.055 -0.3987 -0.2010 -2.1876
11604TIP3   OH256226   3.469   4.427  15.023 -0.4343  0.7461  0.4187
11604TIP3    H156227   3.443   4.353  14.968 -2.4971  1.5465  0.2281
11604TIP3    H256228   3.505   4.491  14.961  1.1533  0.0539  0.5596
11605TIP3   OH256229   6.478   1.389  11.269 -0.3194  0.0904 -0.2468
11605TIP3    H156230   6.526   1.458  11.224 -0.2872  0.7471  0.7653
11605TIP3    H256231   6.437   1.433  11.344  0.6733 -1.2024  1.1095
11606TIP3   OH256232   4.082   1.654   1.342  0.4333  0.6305  0.0467
11606TIP3    H156233   4.025   1.729   1.324 -0.0932  0.0361 -0.7912
11606TIP3    H256234   4.039   1.607   1.413 -0.4862 -0.1712 -1.0078
11607TIP3   OH256235   0.716   1.933  13.461 -0.7284 -0.4298 -0.1761
11607TIP3    H156236   0.634   1.977  13.440 -1.7941 -2.4166 -0.4162
11607TIP3    H256237   0.689   1.853  13.506  1.1991  0.0123  1.9423
11608TIP3   OH256238   1.785   0.304   4.452 -0.0445  0.0188 -0.2789
11608TIP3    H156239   1.790   0.354   4.371  1.5971  0.0020 -0.2192
11608TIP3    H256240   1.703   0.333   4.493 -0.5991  0.4572 -1.6401
11609TIP3   OH256241   5.191   3.409  11.362 -0.0374  0.5599  0.1858
11609TIP3    H156242   5.209   3.341  11.297 -2.3598 -0.9432  0.9878
11609TIP3    H256243   5.242   3.382  11.439  0.5930  0.8477 -0.1234
11610TIP3   OH256244   3.262   2.859  12.236  0.0328  0.2563 -0.5909
11610TIP3    H156245   3.262   2.934  12.295 -0.8454 -1.0626  1.1655
11610TIP3    H256246   3.269   2.898  12.148  0.1510  2.3325  0.2809
11611TIP3   OH256247   2.610   6.512   1.662  0.6367  0.3390  0.1207
11611TIP3    H156248   2.564   6.560   1.731 -2.6940 -1.1706 -0.8136
11611TIP3    H256249   2.684   6.471   1.706  0.3802  1.8636  2.0909
11612TIP3   OH256250   0.854   4.764   1.567  0.1832 -0.1000  0.0075
11612TIP3    H156251   0.833   4.827   1.498  2.9262 -0.1501 -0.9898
11612TIP3    H256252   0.812   4.683   1.538  0.0681  0.2504 -0.8639
11613TIP3   OH256253   0.788   3.623   6.847 -0.6025 -0.1699  0.0457
11613TIP3    H156254   0.730   3.549   6.869  0.3461 -1.6537 -2.1480
11613TIP3    H256255   0.743   3.669   6.777 -0.4265  0.3949  0.2979
11614TIP3   OH256256   5.930   3.163  11.735  0.1473  0.1514 -0.1946
11614TIP3    H156257   5.967   3.126  11.815  1.5423  1.1906 -0.3127
11614TIP3    H256258   5.836   3.165  11.751  0.2981 -0.7334  0.9466
11615TIP3   OH256259   0.702   1.803   0.493  0.4018  0.4494  0.5240
11615TIP3    H156260   0.642   1.800   0.419  0.6742 -0.6269  0.3352
11615TIP3    H256261   0.672   1.734   0.552  0.0499  1.4340  1.5495
11616TIP3   OH256262   1.352   6.064   4.898  0.2653 -0.1150 -0.3811
11616TIP3    H156263   1.295   6.039   4.825  0.6192 -2.1754 -0.0171
11616TIP3    H256264   1.387   6.149   4.873 -1.7825  0.5330 -1.3052
11617TIP3   OH256265   3.736   5.603  11.270 -0.0171  0.3772  0.0412
11617TIP3    H156266   3.643   5.624  11.279 -0.0209  0.3191  0.1451
11617TIP3    H256267   3.739   5.534  11.204 -0.0991  0.0122  0.4076
11618TIP3   OH256268   5.253   4.378   5.260 -0.1747  0.3349 -0.4105
11618TIP3    H156269   5.299   4.461   5.249 -0.1483  0.4541  0.5566
11618TIP3    H256270   5.170   4.390   5.215  0.2467  0.5221 -1.1629
11619TIP3   OH256271   3.272   0.256  13.129 -0.5661 -0.3110 -0.5534
11619TIP3    H156272   3.250   0.313  13.203 -3.5212 -1.8840 -0.0760
11619TIP3    H256273   3.228   0.295  13.054  2.0917  1.0527 -1.5158
11620TIP3   OH256274   3.068   5.546   3.416 -0.0050  0.6566  0.1370
11620TIP3    H156275   3.162   5.555   3.433  0.1253  2.4157 -1.1381
11620TIP3    H256276   3.026   5.577   3.496  0.4820 -0.3765  0.8102
11621TIP3   OH256277   6.239   5.991  12.286  0.2257 -0.0734  0.2725
11621TIP3    H156278   6.184   6.039  12.348 -1.6055 -0.8345 -0.6592
11621TIP3    H256279   6.282   6.060  12.235 -0.9510  0.6115  0.1501
11622TIP3   OH256280   4.628   0.421  16.603  0.1819  0.2391  0.9368
11622TIP3    H156281   4.571   0.497  16.590 -0.1233 -0.2078 -0.4864
11622TIP3    H256282   4.604   0.387  16.689 -1.0903  0.5637  0.7239
11623TIP3   OH256283   0.910   1.429   0.643 -0.1884 -0.2755  0.0751
11623TIP3    H156284   0.996   1.417   0.603 -0.2676 -0.0900 -0.1497
11623TIP3    H256285   0.929   1.465   0.730 -0.0300 -0.4497  0.1140
11624TIP3   OH256286   2.239   6.603  15.253  0.1739 -0.1612  0.2127
11624TIP3    H156287   2.243   6.670  15.184 -1.3614 -2.0708 -1.8933
11624TIP3    H256288   2.187   6.644  15.322  0.0914  1.1583 -0.5835
11625TIP3   OH256289   1.620   6.497  12.223  0.2099  0.0094  0.0307
11625TIP3    H156290   1.600   6.571  12.166  3.1474  0.8619 -0.0425
11625TIP3    H256291   1.677   6.533  12.291  1.3853 -2.0794  0.2357
11626TIP3   OH256292   3.048   3.114   3.239  0.2237 -0.2096  0.0183
11626TIP3    H156293   3.021   3.180   3.303 -0.7013 -1.7825  1.3060
11626TIP3    H256294   3.027   3.154   3.154  1.2983  1.8237  0.6426
11627TIP3   OH256295   0.466   5.903   0.469  0.3426 -0.6377  0.2434
11627TIP3    H156296   0.438   5.921   0.379  0.0013  0.8973  0.6282
11627TIP3    H256297   0.423   5.971   0.522  1.4431 -0.8213  1.4188
11628TIP3   OH256298   1.864   0.284  16.806  0.6230  0.0788 -0.6647
11628TIP3    H156299   1.942   0.338  16.821  0.6839 -0.3798  0.7970
11628TIP3    H256300   1.894   0.215  16.747  1.2279  0.1176 -0.4105
11629TIP3   OH256301   1.070   0.934  12.232 -0.1705 -0.5215  0.0575
11629TIP3    H156302   1.041   0.995  12.164  1.1105 -0.8499 -0.8202
11629TIP3    H256303   1.000   0.937  12.298  0.2356  2.5996  0.5209
11630TIP3   OH256304   1.731   6.655  12.409  0.3426 -0.2055 -0.1045
11630TIP3    H156305   1.772   6.735  12.376  0.9329 -0.5848 -0.3025
11630TIP3    H256306   1.729   6.666  12.504 -1.6791  1.0514 -0.2218
11631TIP3   OH256307   0.102   2.304   0.220 -0.5747 -0.1211  0.1632
11631TIP3    H156308   0.116   2.323   0.128  0.9430 -2.8370 -0.2932
11631TIP3    H256309   0.153   2.370   0.267  0.2495  0.1159 -1.0361
11632TIP3   OH256310   3.836   2.923  11.919  0.3120  0.4859  0.2632
11632TIP3    H156311   3.803   2.999  11.968  0.5257 -0.1233  1.3883
11632TIP3    H256312   3.929   2.942  11.905  0.2030  0.7584 -0.0967
11633TIP3   OH256313   0.475   1.570   4.745 -0.1070  0.2129 -0.0126
11633TIP3    H156314   0.399   1.512   4.745 -1.5639  2.0090  0.6296
11633TIP3    H256315   0.492   1.587   4.652  0.4866 -1.3756 -0.2140
11634TIP3   OH256316   2.046   2.852  17.368 -0.1449 -0.6151 -0.7863
11634TIP3    H156317   2.020   2.895  17.287  0.9472  1.8576  0.0856
11634TIP3    H256318   1.968   2.857  17.424  0.1357  0.8863 -0.4830
11635TIP3   OH256319   4.991   3.359  12.068 -0.2507  0.1095  0.1929
11635TIP3    H156320   5.001   3.367  11.974  0.3259  0.6774  0.3014
11635TIP3    H256321   5.045   3.284  12.092  0.5586  0.6869  0.2234
11636TIP3   OH256322   4.571   1.858   4.235 -0.0331 -0.1429  0.2970
11636TIP3    H156323   4.604   1.770   4.254  0.5604  0.2125  1.0044
11636TIP3    H256324   4.631   1.916   4.282 -0.4260  0.6393 -0.1484
11637TIP3   OH256325   1.712   1.043  12.197  0.0331  0.3355  0.2960
11637TIP3    H156326   1.781   1.093  12.240  0.5865 -0.1075 -0.0616
11637TIP3    H256327   1.636   1.052  12.254  0.9173 -0.7527  1.7064
11638TIP3   OH256328   2.298   5.376   3.573 -0.1838 -0.4040 -0.1297
11638TIP3    H156329   2.203   5.367   3.570 -0.2502  0.1182  0.3712
11638TIP3    H256330   2.316   5.418   3.657  0.4967 -0.5763 -0.1824
11639TIP3   OH256331   3.436   4.852   1.168  0.0326  0.1184  0.6323
11639TIP3    H156332   3.481   4.811   1.242  0.0051  2.1714  1.8383
11639TIP3    H256333   3.357   4.798   1.155  1.4177 -1.9348  0.1932
11640TIP3   OH256334   2.203   5.343  12.777 -0.6844  0.2243  0.3323
11640TIP3    H156335   2.131   5.279  12.780 -1.2971  0.9174  0.7644
11640TIP3    H256336   2.243   5.339  12.863  1.1139 -1.5873 -0.4926
11641TIP3   OH256337   3.768   3.813   4.114  0.4373 -0.0331  0.3581
11641TIP3    H156338   3.839   3.763   4.074  0.1354 -0.1996  0.0265
11641TIP3    H256339   3.801   3.837   4.201  1.0867  0.3036  0.0253
11642TIP3   OH256340   2.984   2.616   1.793  0.1282 -0.1658  0.2060
11642TIP3    H156341   3.071   2.577   1.789  0.4334  0.4099  0.9864
11642TIP3    H256342   2.925   2.541   1.804  0.5513 -0.5303  0.0496
11643TIP3   OH256343   6.582   4.027  13.137  1.1222  0.0078  0.2226
11643TIP3    H156344   6.501   4.075  13.120  1.5447  2.0442  3.2064
11643TIP3    H256345   6.638   4.047  13.063  0.0514  1.3718 -0.2635
11644TIP3   OH256346   4.925   2.667   1.937  0.0963 -0.2776  0.0335
11644TIP3    H156347   4.968   2.723   1.871  0.4114 -0.2562  0.2580
11644TIP3    H256348   4.833   2.692   1.932  0.1783 -0.0023 -0.1350
11645TIP3   OH256349   1.724   0.139  11.167  0.5068 -0.0495 -0.1910
11645TIP3    H156350   1.657   0.081  11.130  0.5223 -0.4181  0.3470
11645TIP3    H256351   1.800   0.128  11.109  0.4359 -0.4106 -0.2201
11646TIP3   OH256352   3.623   3.848  10.789  0.5230 -0.6670  0.0594
11646TIP3    H156353   3.530   3.827  10.790  0.4684 -0.4545 -0.5453
11646TIP3    H256354   3.630   3.926  10.843  0.6626 -1.9045  1.9421
11647TIP3   OH256355   4.822   0.458  16.359  0.1725 -0.4377 -0.6400
11647TIP3    H156356   4.766   0.434  16.433  0.2224 -2.3974 -1.1817
11647TIP3    H256357   4.906   0.418  16.379  1.6633  2.8181  0.3712
11648TIP3   OH256358   5.652   0.870  16.689  0.1291 -0.1274  0.4222
11648TIP3    H156359   5.718   0.876  16.620  0.3750 -0.1965  0.6529
11648TIP3    H256360   5.702   0.864  16.770 -0.1148 -1.8610  0.4924
11649TIP3   OH256361   6.101   5.564  11.437 -0.3022  0.2303 -0.4723
11649TIP3    H156362   6.160   5.606  11.375  1.9124  0.0729  1.3711
11649TIP3    H256363   6.158   5.505  11.487 -2.0282  0.0599  1.4185
11650TIP3   OH256364   4.765   1.056  10.894 -0.0332  0.2823 -0.8246
11650TIP3    H156365   4.722   1.139  10.872  0.8530  0.2127 -3.1284
11650TIP3    H256366   4.693   0.997  10.915 -0.7905  1.1673 -0.8276
11651TIP3   OH256367   6.636   6.465   4.253  0.4799 -0.1866  0.2554
11651TIP3    H156368   6.693   6.538   4.277  0.1973 -0.2358  1.0808
11651TIP3    H256369   6.689   6.387   4.267  0.8064 -0.1574 -0.6933
11652TIP3   OH256370   0.015   4.272   5.308  0.0160 -0.1622  0.4094
11652TIP3    H156371   0.061   4.276   5.224 -0.3728 -0.9038  0.1613
11652TIP3    H256372  -0.032   4.189   5.307 -0.0655 -0.1419  1.3259
11653TIP3   OH256373   3.795   1.212  14.021 -0.0981 -0.0565  0.2645
11653TIP3    H156374   3.844   1.235  13.943 -0.5689  0.5924  0.1475
11653TIP3    H256375   3.704   1.232  13.999 -0.4360 -1.2926  0.4554
11654TIP3   OH256376   5.037   6.122   3.305 -0.3461 -0.1731 -0.0227
11654TIP3    H156377   5.087   6.190   3.350  1.1544 -1.3121  0.0961
11654TIP3    H256378   5.052   6.139   3.212 -0.7671  0.2209 -0.0225
11655TIP3   OH256379   0.122   0.200  12.713  0.0173 -0.1790  0.1421
11655TIP3    H156380   0.104   0.294  12.725  0.9850  0.6313 -3.6208
11655TIP3    H256381   0.217   0.193  12.722 -0.0510 -0.8493  0.4067
11656TIP3   OH256382   0.333   2.007  13.068 -0.0268  0.4763 -0.2585
11656TIP3    H156383   0.256   1.991  13.013 -0.5306  0.3002  0.4921
11656TIP3    H256384   0.304   1.987  13.157  0.6413  1.2235  0.1376
11657TIP3   OH256385   0.316   3.032  14.019 -0.1160  0.0321 -0.0146
11657TIP3    H156386   0.375   2.977  14.071 -1.3717  0.2670  1.7452
11657TIP3    H256387   0.228   3.010  14.050 -1.1636 -1.1520 -3.3609
11658TIP3   OH256388   4.424   5.956   6.397 -0.0158 -0.3671 -0.3620
11658TIP3    H156389   4.479   5.972   6.473  0.6114  1.7384 -1.1723
11658TIP3    H256390   4.478   5.900   6.341  0.1125 -0.7240  0.1127
11659TIP3   OH256391   0.744   3.407   3.368  0.0807  0.2452 -0.0365
11659TIP3    H156392   0.835   3.409   3.338  0.8681 -1.0429  2.0690
11659TIP3    H256393   0.704   3.334   3.320  0.5647 -0.0712  0.0343
11660TIP3   OH256394   6.272   0.502   3.441 -0.2459 -0.4185  0.3525
11660TIP3    H156395   6.294   0.536   3.354  0.0320 -1.4989 -0.0261
11660TIP3    H256396   6.335   0.431   3.455 -1.7137 -1.7750  0.4337
11661TIP3   OH256397   1.450   2.676  14.886  0.6630  0.0134  0.1197
11661TIP3    H156398   1.382   2.654  14.823 -0.1697  0.5508  0.8222
11661TIP3    H256399   1.519   2.610  14.871 -0.6365 -1.4660  0.3959
11662TIP3   OH256400   3.906   4.984  11.819 -0.0994  0.4001 -0.2930
11662TIP3    H156401   3.962   4.937  11.881 -0.8766 -0.4284 -0.1932
11662TIP3    H256402   3.887   5.067  11.861 -0.8285 -0.2558  0.7103
11663TIP3   OH256403   6.336   2.064  17.355  0.1689  0.6702 -0.3336
11663TIP3    H156404   6.266   2.007  17.386  1.7628 -1.8631 -0.9935
11663TIP3    H256405   6.343   2.133  17.420  0.1103 -1.6104  2.2553
11664TIP3   OH256406   1.315   3.064   4.964 -0.0249  0.7413 -0.1259
11664TIP3    H156407   1.387   3.118   4.931  0.8842  0.1734  0.8341
11664TIP3    H256408   1.287   3.108   5.044 -0.2663  0.5763 -0.1186
11665TIP3   OH256409   5.584   5.247  17.275 -0.2059  0.5732  0.2227
11665TIP3    H156410   5.547   5.169  17.317 -0.5020 -0.2922 -1.5531
11665TIP3    H256411   5.671   5.220  17.247 -0.1908  0.9776 -0.1282
11666TIP3   OH256412   5.992   6.327   6.157 -0.5022  0.0153 -0.0595
11666TIP3    H156413   5.957   6.319   6.246 -0.5392 -0.9122 -0.1488
11666TIP3    H256414   5.938   6.267   6.105 -0.5498  0.6276 -0.7344
11667TIP3   OH256415   0.451   2.787  13.594 -0.4107 -0.4038  0.4006
11667TIP3    H156416   0.456   2.820  13.684 -0.7239  0.2189  0.1957
11667TIP3    H256417   0.434   2.694  13.604 -3.1596  0.0579  1.0282
11668TIP3   OH256418   3.883   1.015   1.633 -0.0034 -0.2328 -0.4806
11668TIP3    H156419   3.857   1.004   1.541 -1.5164 -1.1845  0.0163
11668TIP3    H256420   3.800   1.032   1.678  0.3239 -2.4771  1.0804
11669TIP3   OH256421   3.580   4.558  16.619 -0.5303  0.1647  0.2006
11669TIP3    H156422   3.540   4.635  16.578 -0.2246 -0.3266 -1.0511
11669TIP3    H256423   3.674   4.577  16.619 -0.4072 -0.4150 -0.5684
11670TIP3   OH256424   5.002   3.852   0.959 -0.1759 -0.2895 -0.0846
11670TIP3    H156425   5.043   3.886   0.880  1.3304 -1.7675  0.0073
11670TIP3    H256426   4.933   3.794   0.928 -3.4612  3.2815 -0.2608
11671TIP3   OH256427   3.207   1.717  15.750  0.1567 -0.2148  0.1668
11671TIP3    H156428   3.179   1.647  15.808  0.3011  0.8317  1.5757
11671TIP3    H256429   3.142   1.786  15.763  0.5190  0.2621 -0.4839
11672TIP3   OH256430   5.289   5.665   4.683 -0.2582  0.0263  0.4274
11672TIP3    H156431   5.379   5.664   4.650  0.1528  1.8625  1.3250
11672TIP3    H256432   5.252   5.582   4.654  0.9464  0.2679 -2.0799
11673TIP3   OH256433   1.731   5.761  12.362 -0.1573 -0.1134  0.3154
11673TIP3    H156434   1.781   5.839  12.387 -0.4611 -0.6577  2.8381
11673TIP3    H256435   1.659   5.756  12.425 -1.3542 -1.3141 -1.0707
11674TIP3   OH256436   2.947   5.747  13.594  0.2373 -0.1533  0.1706
11674TIP3    H156437   2.963   5.840  13.580 -1.0851 -0.0021 -0.4816
11674TIP3    H256438   2.904   5.742  13.680 -1.2843  0.0448 -0.5530
11675TIP3   OH256439   2.833   6.055   2.124  0.4221  0.2240 -0.4295
11675TIP3    H156440   2.905   6.089   2.070  0.5628  0.9032  0.1753
11675TIP3    H256441   2.823   5.964   2.095 -0.1487  0.8187 -2.2881
11676TIP3   OH256442   5.449   1.746  14.227 -0.5851  0.4948 -0.0839
11676TIP3    H156443   5.463   1.679  14.160 -0.5598  0.3850  0.0298
11676TIP3    H256444   5.367   1.721  14.269  0.5358 -0.7618  1.4651
11677TIP3   OH256445   5.030   2.345  12.799 -0.4380 -0.3208 -0.5679
11677TIP3    H156446   4.935   2.351  12.796 -0.3710  1.8814 -0.1017
11677TIP3    H256447   5.055   2.316  12.711 -1.5096 -0.0597 -0.9789
11678TIP3   OH256448   1.797   1.061   4.128  0.7650 -0.1446 -0.5593
11678TIP3    H156449   1.778   1.073   4.221 -0.5955 -1.6906 -0.5889
11678TIP3    H256450   1.872   1.118   4.111  2.2175 -1.1783  1.8904
11679TIP3   OH256451   3.156   6.326  17.111 -0.0343 -0.6777  0.2918
11679TIP3    H156452   3.167   6.416  17.139  1.4962 -0.8749  0.4339
11679TIP3    H256453   3.245   6.295  17.096 -0.3773 -2.6637  1.8702
11680TIP3   OH256454   5.479   5.808   2.270  0.0799  0.2625  0.1536
11680TIP3    H156455   5.386   5.788   2.278  0.1331  0.2915  1.0199
11680TIP3    H256456   5.484   5.877   2.205 -0.3321 -0.9169 -1.1916
11681TIP3   OH256457   3.722   0.800  13.558  0.1617  0.3534 -0.3977
11681TIP3    H156458   3.763   0.885  13.546 -0.5433  0.5177 -1.8762
11681TIP3    H256459   3.655   0.815  13.626  0.5718  0.7730 -0.0820
11682TIP3   OH256460   2.108   6.041  12.791  0.5239 -0.1620 -0.0614
11682TIP3    H156461   2.187   6.011  12.747 -0.0796 -0.7725 -0.7400
11682TIP3    H256462   2.072   5.963  12.832 -0.0960 -0.0268 -0.3365
11683TIP3   OH256463   0.524   0.107  14.141 -0.2333 -0.0504  0.2028
11683TIP3    H156464   0.469   0.147  14.207 -1.0658 -0.0671 -0.4624
11683TIP3    H256465   0.462   0.069  14.078  0.5338 -0.9105 -0.0525
11684TIP3   OH256466   3.602   0.738   1.489 -0.5091 -0.1170  0.4765
11684TIP3    H156467   3.657   0.782   1.424 -0.4630  2.0824  1.8822
11684TIP3    H256468   3.557   0.809   1.534 -0.6059 -1.5167  2.7838
11685TIP3   OH256469   5.899   6.410  14.225  0.6069 -0.7291 -0.4400
11685TIP3    H156470   5.826   6.428  14.166  2.6290  1.8928 -2.3726
11685TIP3    H256471   5.858   6.368  14.301 -2.6151 -1.0086 -2.1545
11686TIP3   OH256472   5.923   6.004  15.890  1.1087  0.2431 -0.0597
11686TIP3    H156473   5.855   5.976  15.952  0.1364  0.2067 -1.1182
11686TIP3    H256474   5.998   6.025  15.946  1.6678 -3.5787  0.9437
11687TIP3   OH256475   5.726   4.276  17.022  0.8875  0.2977 -0.4016
11687TIP3    H156476   5.659   4.327  17.066 -1.2908 -0.0357 -3.0071
11687TIP3    H256477   5.807   4.325  17.035 -0.1453  1.6379  1.4421
11688TIP3   OH256478   0.187   4.443  12.527 -0.3117 -0.9570 -0.0901
11688TIP3    H156479   0.217   4.528  12.559 -3.2750  0.3383 -0.4010
11688TIP3    H256480   0.213   4.441  12.435 -1.7279  0.5049 -0.5757
11689TIP3   OH256481   3.084   3.130   0.217 -0.2847 -0.8578  0.0209
11689TIP3    H156482   3.173   3.102   0.198 -0.3590  0.1891 -2.1117
11689TIP3    H256483   3.090   3.175   0.301  1.8229  1.7466 -1.3822
11690TIP3   OH256484   4.706   6.198   4.492 -0.0796 -0.6154 -0.7877
11690TIP3    H156485   4.751   6.235   4.417  1.6971 -1.9824 -0.4552
11690TIP3    H256486   4.704   6.269   4.557 -1.0096  0.3497 -1.8286
11691TIP3   OH256487   3.885   2.310   0.051 -0.0110 -0.3803  0.1826
11691TIP3    H156488   3.818   2.373   0.025  0.3351 -0.4943 -1.0740
11691TIP3    H256489   3.846   2.261   0.123 -1.2133 -0.3191 -0.4116
11692TIP3   OH256490   0.947   2.340  14.339 -0.1131  0.0549  0.2180
11692TIP3    H156491   1.025   2.310  14.293 -0.4046  1.1108 -1.0430
11692TIP3    H256492   0.926   2.270  14.400  1.3717 -0.5786  0.0373
11693TIP3   OH256493   6.335   1.177   1.459 -0.3049 -0.1471  0.6327
11693TIP3    H156494   6.242   1.178   1.437  0.0200  0.2917 -0.8741
11693TIP3    H256495   6.377   1.225   1.388  1.2517 -1.7804  0.3599
11694TIP3   OH256496   2.837   2.762   2.827  0.5937 -0.1586  0.3251
11694TIP3    H156497   2.819   2.741   2.919 -0.7188  0.8036  0.3093
11694TIP3    H256498   2.928   2.791   2.827  0.7566 -0.6197  1.2370
11695TIP3   OH256499   0.003   1.206  15.390  0.9991  0.0288 -0.3559
11695TIP3    H156500  -0.011   1.267  15.318 -2.0324 -0.2734 -0.1593
11695TIP3    H256501   0.024   1.262  15.465  1.2397  0.5689 -0.8141
11696TIP3   OH256502   3.944   1.173   6.196  0.1682  0.1764  0.1824
11696TIP3    H156503   4.031   1.205   6.172  0.1950  0.5599  0.7778
11696TIP3    H256504   3.884   1.240   6.164 -0.0185 -0.6123 -1.2391
11697TIP3   OH256505   2.182   4.780   2.477  0.5661  0.8172 -0.2370
11697TIP3    H156506   2.101   4.826   2.456  0.1281  0.5070  0.6915
11697TIP3    H256507   2.194   4.719   2.405 -1.1135 -0.5324  0.5459
11698TIP3   OH256508   4.339   1.589  12.921  0.3488  0.1261 -0.5899
11698TIP3    H156509   4.364   1.658  12.860  1.1979  0.2312 -0.1411
11698TIP3    H256510   4.266   1.545  12.879 -1.0668  2.0822 -0.3385
11699TIP3   OH256511   2.896   6.113   4.348 -0.0462 -0.1766  0.1632
11699TIP3    H156512   2.899   6.021   4.373  1.0391 -0.2811 -0.2980
11699TIP3    H256513   2.978   6.149   4.381 -0.6370  0.7263  0.6827
11700TIP3   OH256514   3.616   5.568   3.434  0.2143 -0.5029  0.0558
11700TIP3    H156515   3.680   5.497   3.445 -0.2639 -0.9390  0.0645
11700TIP3    H256516   3.669   5.647   3.431  0.7714 -0.8715 -0.0966
11701TIP3   OH256517   0.058   1.659  12.141  0.1918  0.3717  0.0872
11701TIP3    H156518   0.038   1.572  12.175  2.2992 -0.1072  0.2297
11701TIP3    H256519   0.092   1.643  12.053 -2.6923  1.3956 -1.3596
11702TIP3   OH256520   1.896   5.527  15.314 -0.4252 -0.9156 -0.0581
11702TIP3    H156521   1.942   5.591  15.369 -0.0450 -0.9705 -0.3057
11702TIP3    H256522   1.819   5.573  15.283  0.0429 -0.4452 -0.5435
11703TIP3   OH256523   6.740   4.846  14.492  0.3074 -0.1392 -0.0661
11703TIP3    H156524   6.792   4.867  14.570 -0.5914  0.5019  0.3780
11703TIP3    H256525   6.762   4.755  14.473 -1.1762 -1.1323  2.3727
11704TIP3   OH256526   0.160   4.024   3.018 -0.4815  1.0494 -0.2592
11704TIP3    H156527   0.125   3.980   2.941 -0.4904  0.3239  0.1485
11704TIP3    H256528   0.086   4.071   3.056 -0.8822  0.0288  0.2492
11705TIP3   OH256529   1.080   4.548  15.990  0.0040  0.0881  0.0134
11705TIP3    H156530   1.036   4.479  15.939  1.2138 -0.7388  0.0537
11705TIP3    H256531   1.010   4.584  16.045 -0.9435 -0.1977 -0.9551
11706TIP3   OH256532   5.646   1.122  10.844 -0.0585 -0.0901 -0.4090
11706TIP3    H156533   5.739   1.136  10.826  0.3073 -1.7612  0.0346
11706TIP3    H256534   5.615   1.069  10.771  0.0065 -1.7721  0.7080
11707TIP3   OH256535   0.019   1.860   5.806  0.3278 -0.4802  0.0640
11707TIP3    H156536   0.099   1.878   5.856 -0.4686  1.6377  0.6844
11707TIP3    H256537  -0.009   1.774   5.837  1.5221 -0.5564  1.0044
11708TIP3   OH256538   2.393   1.461   4.058  0.2407  0.5681  0.2087
11708TIP3    H156539   2.394   1.419   3.972 -0.0293 -1.1786  1.0145
11708TIP3    H256540   2.305   1.498   4.066 -0.2708 -0.6125  0.3163
11709TIP3   OH256541   3.030   5.224   4.313  0.5860  0.2959 -0.3872
11709TIP3    H156542   3.019   5.318   4.299  0.5629  0.5853  1.3579
11709TIP3    H256543   3.108   5.216   4.367 -1.1041 -0.3978  2.1198
11710TIP3   OH256544   5.715   5.182  16.118  0.0310  0.8186 -0.2602
11710TIP3    H156545   5.675   5.266  16.098  1.3664  1.7352  0.7421
11710TIP3    H256546   5.760   5.195  16.201 -1.7020 -1.5924  1.1865
11711TIP3   OH256547   4.106   3.536   2.976  0.1625 -0.8640  0.1996
11711TIP3    H156548   4.043   3.491   2.920 -1.2098  1.0081  0.1264
11711TIP3    H256549   4.137   3.609   2.923  1.8577 -1.2945  0.5234
11712TIP3   OH256550   5.207   5.086  11.600  0.1206 -0.3802  0.4137
11712TIP3    H156551   5.228   5.029  11.674  0.1316  1.0433  1.5655
11712TIP3    H256552   5.121   5.123  11.622  1.4452  2.4183  1.3017
11713TIP3   OH256553   0.781   6.689  13.018 -0.3324 -0.6331  0.2880
11713TIP3    H156554   0.775   6.711  13.111 -0.1771 -0.4800  0.2606
11713TIP3    H256555   0.875   6.675  13.003 -0.2007  0.6337 -0.1471
11714TIP3   OH256556   2.895   4.576  12.527 -0.3089 -0.3628 -0.1523
11714TIP3    H156557   2.942   4.569  12.610 -1.0095 -0.7380  0.2230
11714TIP3    H256558   2.845   4.495  12.521 -2.0798  0.6447  0.1981
11715TIP3   OH256559   0.032   5.542   3.615 -0.1885  0.7096  0.1863
11715TIP3    H156560  -0.026   5.619   3.619 -0.7097  0.2987  0.6133
11715TIP3    H256561   0.119   5.579   3.601 -0.4984  1.3560 -0.0872
11716TIP3   OH256562   2.722   4.475   6.327  0.0977 -0.1048  0.0633
11716TIP3    H156563   2.798   4.523   6.293  0.6652 -0.7104  0.4591
11716TIP3    H256564   2.727   4.390   6.284 -0.4747 -0.0828 -0.0533
11717TIP3   OH256565   5.505   3.015   1.025 -0.0984  0.0204 -0.4074
11717TIP3    H156566   5.520   3.108   1.043  0.5272  0.2543 -1.9267
11717TIP3    H256567   5.416   3.012   0.990 -0.6586 -0.1792  0.9974
11718TIP3   OH256568   1.043   2.753  15.235  0.3081  0.4298  0.0028
11718TIP3    H156569   1.117   2.802  15.272  1.5785 -0.7558 -0.8451
11718TIP3    H256570   1.074   2.723  15.150 -1.4089  0.4341 -0.6645
11719TIP3   OH256571   1.709   0.339   1.261 -0.2359 -0.6616 -0.1722
11719TIP3    H156572   1.794   0.298   1.243 -1.2753 -1.9342 -2.6949
11719TIP3    H256573   1.705   0.412   1.200 -0.3641  0.3594  1.0215
11720TIP3   OH256574   3.206   6.600   4.123  0.6986 -0.5710 -0.0716
11720TIP3    H156575   3.260   6.571   4.049  0.0909  0.2977 -0.8789
11720TIP3    H256576   3.255   6.673   4.160 -0.6813  1.4070 -1.9086
11721TIP3   OH256577   2.079   6.613  12.604  0.0200 -0.3531 -0.2188
11721TIP3    H156578   2.132   6.545  12.562  1.7347  2.0748 -2.2163
11721TIP3    H256579   2.037   6.659  12.532 -0.3737  1.2998  0.9957
11722TIP3   OH256580   4.996   6.542   4.400  0.7079  0.1873 -0.0410
11722TIP3    H156581   5.084   6.516   4.374  1.1590  2.5905 -1.2002
11722TIP3    H256582   4.940   6.518   4.325  1.2057  2.6935 -1.3346
11723TIP3   OH256583   3.237   4.735  12.338 -0.3859  0.0199 -0.2416
11723TIP3    H156584   3.297   4.664  12.319  0.9217  0.8113  0.7427
11723TIP3    H256585   3.272   4.776  12.417  0.1505  3.0701 -1.9057
11724TIP3   OH256586   4.003   6.717  10.737 -0.2071  0.0586  0.7442
11724TIP3    H156587   3.963   6.636  10.706 -1.2800  0.5269  0.8525
11724TIP3    H256588   4.091   6.717  10.700 -1.3593  0.5395 -2.2216
11725TIP3   OH256589   2.647   5.761   1.992  0.0609  0.2769  0.0136
11725TIP3    H156590   2.663   5.750   2.086 -1.2258 -0.3927  0.1815
11725TIP3    H256591   2.708   5.700   1.950 -0.0398 -0.1509  0.4758
11726TIP3   OH256592   3.344   1.735   6.157  0.4434 -0.2622 -0.4745
11726TIP3    H156593   3.255   1.702   6.165  0.3319  0.1874  0.1913
11726TIP3    H256594   3.334   1.827   6.131  0.7170 -0.2427 -0.5165
11727TIP3   OH256595   3.657   2.762   2.065  0.5003  0.5286 -0.1475
11727TIP3    H156596   3.637   2.815   1.988  0.3846  0.0688 -0.4358
11727TIP3    H256597   3.583   2.702   2.073  0.1582  1.0497  0.7482
11728TIP3   OH256598   4.848   3.919  15.161 -0.0341  0.1562 -0.8131
11728TIP3    H156599   4.788   3.987  15.190 -0.9903 -0.5322 -1.1386
11728TIP3    H256600   4.796   3.863  15.103  0.9903 -0.3037 -1.3277
11729TIP3   OH256601   1.377   2.458  14.294  0.2220  0.0567 -0.1988
11729TIP3    H156602   1.350   2.445  14.203  0.7744 -1.5487 -0.1559
11729TIP3    H256603   1.296   2.479  14.340 -0.4285 -1.3133 -0.6742
11730TIP3   OH256604   3.193   3.628   2.927 -0.2688 -0.0102 -0.3230
11730TIP3    H156605   3.116   3.571   2.924 -0.2152 -0.1616  0.8182
11730TIP3    H256606   3.266   3.570   2.906 -0.2734 -0.2698  0.3423
11731TIP3   OH256607   2.214   3.315  12.050 -0.5298  0.4985  0.3093
11731TIP3    H156608   2.218   3.327  12.145  1.3527  1.7095  0.1256
11731TIP3    H256609   2.249   3.226  12.036  1.2711  1.1118  0.6501
11732TIP3   OH256610   3.269   0.810   5.058  0.0941  0.6663 -0.3105
11732TIP3    H156611   3.285   0.747   4.988  2.0615  0.0258  0.6528
11732TIP3    H256612   3.229   0.885   5.014  1.1319  0.2221 -2.1097
11733TIP3   OH256613   4.590   3.869   3.473  0.1606  0.0326 -0.1538
11733TIP3    H156614   4.675   3.829   3.490  0.6759  1.3684  0.5667
11733TIP3    H256615   4.527   3.798   3.487  1.0003 -0.4435  1.5564
11734TIP3   OH256616   5.715   3.678   5.292 -0.1403 -0.2640  0.0947
11734TIP3    H156617   5.786   3.716   5.241 -1.1202 -0.0513 -1.1568
11734TIP3    H256618   5.722   3.584   5.276 -1.5098 -0.0882 -1.9722
11735TIP3   OH256619   2.354   1.795  12.452  0.2822  0.5085  0.0326
11735TIP3    H156620   2.295   1.791  12.527 -1.9846  0.1982 -1.6804
11735TIP3    H256621   2.303   1.837  12.383  1.2933 -1.6161 -2.1598
11736TIP3   OH256622   5.887   5.485   4.637  0.3755  0.6759  0.2462
11736TIP3    H156623   5.856   5.539   4.565  1.7120 -0.5162 -1.2827
11736TIP3    H256624   5.974   5.455   4.610  0.1804 -1.2916  1.5359
11737TIP3   OH256625   5.219   0.298  11.077 -0.5194 -0.1904  0.0284
11737TIP3    H156626   5.159   0.328  11.009 -0.4971 -0.5578 -0.1532
11737TIP3    H256627   5.175   0.224  11.118 -0.6064  0.1303  0.5259
11738TIP3   OH256628   1.728   1.722   5.137 -0.0165 -0.5654 -0.3881
11738TIP3    H156629   1.663   1.652   5.137  1.8575 -2.4161 -0.6797
11738TIP3    H256630   1.772   1.714   5.052  0.7656  0.4565 -0.1004
11739TIP3   OH256631   0.712   1.568   3.463  0.0096  0.3131  0.2472
11739TIP3    H156632   0.651   1.566   3.536 -0.2735  0.6349  0.0224
11739TIP3    H256633   0.741   1.477   3.454 -0.4281  0.1593  0.3641
11740TIP3   OH256634   4.473   6.534   5.618  0.8331 -0.2232 -0.3294
11740TIP3    H156635   4.416   6.486   5.557 -1.3963  0.4679  1.0630
11740TIP3    H256636   4.517   6.465   5.668 -1.0846 -0.9136  0.5392
11741TIP3   OH256637   0.549   6.626   4.700 -0.1644  0.6560 -0.2067
11741TIP3    H156638   0.533   6.624   4.794  0.5690  0.8061 -0.0767
11741TIP3    H256639   0.471   6.668   4.663 -2.0391 -2.3490 -0.0182
11742TIP3   OH256640   1.108   0.504   2.349  0.0961  0.5012  0.0076
11742TIP3    H156641   1.068   0.552   2.276 -0.9249  2.6506  1.8691
11742TIP3    H256642   1.183   0.557   2.375  0.8621 -0.6074  0.1255
11743TIP3   OH256643   6.030   6.314  12.749 -0.0247  0.4722 -1.0062
11743TIP3    H156644   6.119   6.290  12.773 -0.5709 -0.0860  0.5911
11743TIP3    H256645   6.013   6.395  12.797 -0.4596  0.4442 -1.1084
11744TIP3   OH256646   1.052   0.328   1.112  0.1460  0.1172  0.1160
11744TIP3    H156647   1.146   0.338   1.127 -0.1679 -0.4486  2.9275
11744TIP3    H256648   1.023   0.415   1.083  1.5786  0.1351 -1.4175
11745TIP3   OH256649   4.479   4.966  16.628  0.4212  0.4461 -0.2541
11745TIP3    H156650   4.397   4.919  16.617 -0.4339  1.8104  0.0308
11745TIP3    H256651   4.526   4.953  16.546  0.0740 -0.6257 -0.2856
11746TIP3   OH256652   3.450   5.116   3.594 -0.7326 -0.1226  0.1617
11746TIP3    H156653   3.411   5.162   3.520  0.2814  1.5923  0.6382
11746TIP3    H256654   3.425   5.169   3.670  0.4234 -0.3940  0.7464
11747TIP3   OH256655   6.737   5.304  15.874  0.0108  0.2161  0.0922
11747TIP3    H156656   6.678   5.379  15.875 -1.3945 -0.8444  0.6523
11747TIP3    H256657   6.824   5.341  15.891 -0.4841  1.8161 -0.7163
11748TIP3   OH256658   3.519   5.118   1.116 -0.1614  0.4414  0.2970
11748TIP3    H156659   3.529   5.120   1.021  1.9890 -0.2157  0.4657
11748TIP3    H256660   3.499   5.027   1.137  0.3858  0.3733  0.5419
11749TIP3   OH256661   5.228   0.758  12.431 -0.3094 -0.1094 -0.1207
11749TIP3    H156662   5.190   0.846  12.433  3.0899  1.5304  1.3782
11749TIP3    H256663   5.228   0.730  12.523  0.8941 -0.5135 -0.2190
11750TIP3   OH256664   2.571   1.449  15.360  0.2422 -0.5059 -0.2187
11750TIP3    H156665   2.622   1.531  15.354 -1.3387  0.7040  1.6483
11750TIP3    H256666   2.632   1.387  15.401  0.8522  0.3386  0.2107
11751TIP3   OH256667   5.272   0.264  12.210 -0.3223  0.4825 -0.1977
11751TIP3    H156668   5.318   0.216  12.279  0.4791  0.6745 -0.5926
11751TIP3    H256669   5.241   0.196  12.150  1.5190  0.4591 -1.1943
11752TIP3   OH256670   2.898   4.932  14.414  0.1234 -0.3335  0.3077
11752TIP3    H156671   2.839   4.865  14.379  0.5097 -0.1695 -0.6778
11752TIP3    H256672   2.855   5.015  14.394  0.2593 -0.2428  0.3869
11753TIP3   OH256673   0.526   3.010  12.424  0.4372  0.2259 -0.6413
11753TIP3    H156674   0.574   3.090  12.448  0.0012  0.0027  1.1733
11753TIP3    H256675   0.546   2.949  12.495  1.4528 -1.6125 -2.4307
11754TIP3   OH256676   5.961   2.775   4.783  0.2631 -0.1214  0.1817
11754TIP3    H156677   5.891   2.712   4.766  0.1034  0.0886  0.0408
11754TIP3    H256678   6.028   2.726   4.830 -1.5851  0.5111  3.8223
11755TIP3   OH256679   1.735   3.187  16.068 -0.2794  0.3204 -0.4499
11755TIP3    H156680   1.817   3.171  16.021  0.4762  1.9615  0.1968
11755TIP3    H256681   1.668   3.143  16.016  0.9889 -0.9990 -1.0421
11756TIP3   OH256682   1.514   2.619   1.015  0.0814 -0.8195  0.4776
11756TIP3    H156683   1.532   2.610   0.922  0.1661 -1.8372  0.5808
11756TIP3    H256684   1.601   2.621   1.056  0.0427 -1.3719  0.6050
11757TIP3   OH256685   6.587   2.930   0.367  0.3449 -0.2780 -0.2793
11757TIP3    H156686   6.576   2.923   0.272 -1.4088 -0.4069 -0.1047
11757TIP3    H256687   6.498   2.945   0.400  1.0641  0.8756  1.2540
11758TIP3   OH256688   2.312   5.554  13.689 -0.2302  0.0461  0.1679
11758TIP3    H156689   2.245   5.560  13.622  1.0712 -0.2560 -1.1974
11758TIP3    H256690   2.382   5.613  13.660  0.7393 -0.7450  0.7899
11759TIP3   OH256691   6.277   6.596  16.806 -0.7964 -0.1339 -0.4294
11759TIP3    H156692   6.256   6.681  16.845 -2.1858 -0.9868  0.8070
11759TIP3    H256693   6.192   6.555  16.790 -0.1762 -1.8399  0.3143
11760TIP3   OH256694   3.295   3.233  17.048  0.2658  0.5228 -0.4516
11760TIP3    H156695   3.269   3.146  17.018  0.5265  0.4628 -0.5041
11760TIP3    H256696   3.213   3.283  17.051 -0.2778 -0.3468  1.7124
11761TIP3   OH256697   3.195   1.564   1.060  0.1376 -0.0801  0.4047
11761TIP3    H156698   3.132   1.494   1.076  1.8030 -1.4055  1.5199
11761TIP3    H256699   3.200   1.571   0.965 -1.2254 -0.3609  0.2939
11762TIP3   OH256700   2.320   5.771  15.262 -0.4607  0.2702 -0.4292
11762TIP3    H156701   2.346   5.812  15.180 -0.5611  1.7150  0.2327
11762TIP3    H256702   2.265   5.697  15.235  0.3890  0.0638 -1.6804
11763TIP3   OH256703   5.425   2.714   2.163  0.2600  0.5461  0.2630
11763TIP3    H156704   5.495   2.685   2.221  1.4073  3.2669  0.3958
11763TIP3    H256705   5.454   2.799   2.131 -0.6261 -0.5176 -3.8769
11764TIP3   OH256706   4.617   0.845  15.040 -0.7574 -0.4865  0.3468
11764TIP3    H156707   4.557   0.771  15.027 -2.2965  0.6615  0.6317
11764TIP3    H256708   4.582   0.914  14.984  1.1519 -0.2025 -0.5701
11765TIP3   OH256709   3.625   0.158  16.615  0.1067  0.2089  0.7579
11765TIP3    H156710   3.557   0.212  16.655 -0.5166  0.5941 -0.7532
11765TIP3    H256711   3.684   0.137  16.687 -0.2503  1.9481  1.6190
11766TIP3   OH256712   3.504   2.833   5.942 -0.6055 -0.5759  0.5714
11766TIP3    H156713   3.479   2.890   6.015 -0.3181 -2.0170  1.8690
11766TIP3    H256714   3.436   2.765   5.941 -1.0987 -0.1119 -1.1156
11767TIP3   OH256715   2.606   4.416  17.274 -0.0018  0.3645 -0.4781
11767TIP3    H156716   2.587   4.431  17.366  0.4721  2.6017 -0.6751
11767TIP3    H256717   2.700   4.432  17.266 -0.0017  0.0001 -1.3014
11768TIP3   OH256718   5.615   0.086  16.304  0.0819  0.4273 -0.0168
11768TIP3    H156719   5.643   0.176  16.320 -1.0518  0.9723 -0.9981
11768TIP3    H256720   5.603   0.081  16.209  1.4610 -1.1656 -0.1651
11769TIP3   OH256721   1.045   5.959   5.104 -0.2868  0.4413  0.4360
11769TIP3    H156722   1.064   5.867   5.123 -1.1456  0.5376  1.8626
11769TIP3    H256723   1.130   5.997   5.084  0.0035 -0.8105 -0.9997
11770TIP3   OH256724   4.527   3.789  13.464  0.3513  0.2461  0.4781
11770TIP3    H156725   4.509   3.696  13.456 -0.6191  0.4321  0.3893
11770TIP3    H256726   4.493   3.814  13.550 -0.7203  0.7996 -0.0896
11771TIP3   OH256727   2.591   5.983   6.631 -0.4733  0.0836 -0.6295
11771TIP3    H156728   2.534   6.015   6.560 -0.9054  2.1361  0.5712
11771TIP3    H256729   2.535   5.926   6.683 -0.2603 -1.1300 -1.6824
11772TIP3   OH256730   5.156   3.951  17.222 -0.2726 -0.1363 -0.0746
11772TIP3    H156731   5.160   3.886  17.152 -1.5390 -0.8716  0.4894
11772TIP3    H256732   5.105   4.023  17.184 -0.2602 -0.1777 -0.1711
11773TIP3   OH256733   3.998   2.825   2.528 -0.1720  0.1404 -0.0561
11773TIP3    H156734   3.987   2.897   2.466 -1.2377  2.4993  2.6289
11773TIP3    H256735   3.924   2.767   2.512  0.6914 -0.4213 -2.2611
11774TIP3   OH256736   6.250   3.538  10.602  0.0356 -0.1671  0.3812
11774TIP3    H156737   6.255   3.586  10.519 -0.8862 -0.8327 -0.0672
11774TIP3    H256738   6.334   3.492  10.607  1.3186  2.0906  1.2313
11775TIP3   OH256739   2.344   4.480  12.314  0.4358 -0.0244 -0.6113
11775TIP3    H156740   2.344   4.427  12.234  1.5845  0.3351 -0.8592
11775TIP3    H256741   2.432   4.515  12.320  0.4115 -0.1430  0.8933
11776TIP3   OH256742   5.313   2.801  10.798  0.5071 -0.7931  0.0634
11776TIP3    H156743   5.307   2.880  10.853  0.4420 -0.8792  0.1792
11776TIP3    H256744   5.406   2.781  10.797  0.5141 -0.7662  0.1079
11777TIP3   OH256745   2.012   1.157  14.496 -0.1067 -0.2654 -0.4030
11777TIP3    H156746   2.084   1.188  14.551 -0.1681  0.0227 -0.4814
11777TIP3    H256747   2.049   1.083  14.448  0.3505  0.2947 -0.9453
11778TIP3   OH256748   2.605   2.419  15.489  0.0631  0.0222  0.9529
11778TIP3    H156749   2.560   2.450  15.568 -0.5205 -1.3014  1.1665
11778TIP3    H256750   2.565   2.334  15.471  1.3782 -0.4639  0.2219
11779TIP3   OH256751   1.582   2.709   0.568 -0.0207  0.4083  0.5521
11779TIP3    H156752   1.654   2.719   0.505  0.6803 -0.7786  1.1317
11779TIP3    H256753   1.512   2.668   0.519  0.2947  0.0632  0.3882
11780TIP3   OH256754   4.883   4.751  16.246 -0.0949  0.8077 -0.1922
11780TIP3    H156755   4.802   4.750  16.296 -0.2337 -1.5798 -0.3652
11780TIP3    H256756   4.953   4.743  16.311 -0.1104  0.7166 -0.1878
11781TIP3   OH256757   1.152   1.361  14.924  0.1621 -0.1161 -0.1094
11781TIP3    H156758   1.228   1.309  14.899  0.8434  0.8515 -0.0861
11781TIP3    H256759   1.165   1.379  15.017  0.6731  1.3060 -0.4432
11782TIP3   OH256760   5.620   0.029   2.152 -0.3865  0.6227 -0.0769
11782TIP3    H156761   5.545   0.072   2.111 -0.0850  0.3746 -0.8994
11782TIP3    H256762   5.589  -0.060   2.172  0.0669  0.0963 -1.5997
11783TIP3   OH256763   2.324   0.821   5.149 -0.0842 -0.6351 -0.4018
11783TIP3    H156764   2.288   0.734   5.167  0.0899 -1.0642 -1.9955
11783TIP3    H256765   2.379   0.809   5.072  1.2581  0.5779  0.3293
11784TIP3   OH256766   0.304   0.557   5.145 -0.5077 -0.0069 -0.2261
11784TIP3    H156767   0.286   0.518   5.230  0.5856 -1.3919 -0.5861
11784TIP3    H256768   0.230   0.531   5.091 -0.6363 -0.1149  0.0014
11785TIP3   OH256769   0.590   5.828   3.367 -0.2452  0.5946 -0.2750
11785TIP3    H156770   0.554   5.820   3.455 -0.1362  0.4999 -0.2391
11785TIP3    H256771   0.621   5.919   3.362  0.7019  0.3083  0.1505
11786TIP3   OH256772   5.794   3.887   1.394 -0.2139  0.4208 -0.8130
11786TIP3    H156773   5.850   3.875   1.471  1.0972 -1.1282 -1.9369
11786TIP3    H256774   5.775   3.980   1.393 -1.0611  0.3691  1.8922
11787TIP3   OH256775   1.074   1.403   3.272  0.1233 -0.0080  0.2450
11787TIP3    H156776   1.013   1.402   3.198 -0.4503 -1.4133  0.6963
11787TIP3    H256777   1.086   1.496   3.292  0.5283  0.4260 -1.7814
11788TIP3   OH256778   4.572   2.494   2.383  0.1039  0.0660  0.4951
11788TIP3    H156779   4.595   2.552   2.456 -0.0865 -0.2326  0.7961
11788TIP3    H256780   4.484   2.464   2.404 -0.5973  1.2097 -0.6517
11789TIP3   OH256781   4.293   2.474  12.883  0.1522 -0.0652  0.9164
11789TIP3    H156782   4.369   2.418  12.902  0.2513 -1.1825 -2.1824
11789TIP3    H256783   4.283   2.469  12.788 -3.1126  1.0098  1.0904
11790TIP3   OH256784   3.170   6.114  14.321  0.1501  0.1813 -0.6480
11790TIP3    H156785   3.205   6.189  14.274 -1.4556  2.7189  1.8492
11790TIP3    H256786   3.243   6.082  14.373  1.0420 -0.5091 -2.2836
11791TIP3   OH256787   5.219   3.012   3.095  0.6717  0.0743 -0.4848
11791TIP3    H156788   5.171   2.967   3.165 -0.1247 -0.9233 -1.6272
11791TIP3    H256789   5.255   2.942   3.042 -0.3399  0.7399 -2.1422
11792TIP3   OH256790   2.768   3.520  15.208 -0.0135 -0.0173  0.4104
11792TIP3    H156791   2.687   3.482  15.175  0.3021  1.4565 -2.3691
11792TIP3    H256792   2.770   3.495  15.300 -4.3466  1.0259  1.0407
11793TIP3   OH256793   5.435   5.874  15.511 -0.3635  0.5785 -0.1254
11793TIP3    H156794   5.442   5.821  15.432 -1.6697 -1.4940  1.0626
11793TIP3    H256795   5.462   5.816  15.582 -2.3812  1.2524  1.3025
11794TIP3   OH256796   4.088   2.726  15.110 -0.5001 -0.0321 -0.1531
11794TIP3    H156797   4.177   2.715  15.077 -0.0125 -0.0629  1.1242
11794TIP3    H256798   4.040   2.763  15.035  0.4646 -0.4147 -0.9938
11795TIP3   OH256799   1.278   5.968   5.328 -0.1519 -0.8432 -0.4308
11795TIP3    H156800   1.326   5.893   5.364  0.0894  0.1379  1.3678
11795TIP3    H256801   1.199   5.974   5.381 -0.3408 -0.0230 -0.7859
11796TIP3   OH256802   4.332   1.838   1.985 -0.2157 -0.3022 -0.1528
11796TIP3    H156803   4.360   1.927   1.964 -1.0376 -0.4620 -2.1997
11796TIP3    H256804   4.412   1.793   2.012  0.6814  0.4134 -1.5218
11797TIP3   OH256805   2.949   5.081  15.270 -0.6806  0.0916 -0.1097
11797TIP3    H156806   3.008   5.150  15.301 -1.2045  0.1683  0.7751
11797TIP3    H256807   2.862   5.111  15.297 -0.9114 -0.9202  0.3185
11798TIP3   OH256808   1.771   2.786   2.192 -0.2995  0.6148  0.7926
11798TIP3    H156809   1.747   2.700   2.227  1.4918  0.2917  1.3368
11798TIP3    H256810   1.693   2.816   2.146 -1.7046 -0.3227  2.4621
11799TIP3   OH256811   3.307   5.242   0.075 -0.1902 -0.3205 -0.2701
11799TIP3    H156812   3.333   5.157   0.108 -0.0537 -0.4430 -0.6931
11799TIP3    H256813   3.365   5.259   0.001  1.1427  1.0194  0.9942
11800TIP3   OH256814   6.585   1.994  11.901 -0.0425 -0.2641  0.6594
11800TIP3    H156815   6.517   2.040  11.950 -1.1292 -2.0862  0.9480
11800TIP3    H256816   6.540   1.962  11.822  0.3705 -1.7654  1.0065
11801TIP3   OH256817   1.085   1.511   6.796  0.3600  0.7228 -0.3074
11801TIP3    H156818   1.156   1.562   6.836  1.2407 -0.2099 -0.6358
11801TIP3    H256819   1.122   1.478   6.714 -0.0584 -0.7223  0.0540
11802TIP3   OH256820   2.211   5.273  13.358 -0.1409  0.2553 -0.4487
11802TIP3    H156821   2.295   5.310  13.385  0.5035 -2.5360  1.9299
11802TIP3    H256822   2.232   5.186  13.324 -1.9644 -0.1046 -0.7668
11803TIP3   OH256823   5.829   5.799   1.189  0.0868  0.3940  0.5347
11803TIP3    H156824   5.771   5.864   1.151 -0.4002  0.6009  1.6016
11803TIP3    H256825   5.873   5.845   1.261 -0.9265 -0.6725  1.8837
11804TIP3   OH256826   5.881   1.177   5.388  0.3268 -0.1507 -0.0253
11804TIP3    H156827   5.831   1.211   5.463 -1.1105  1.4892 -1.6416
11804TIP3    H256828   5.911   1.091   5.417 -2.9359 -0.9840  1.2966
11805TIP3   OH256829   5.206   3.745   4.346  0.1836 -0.0366 -0.7423
11805TIP3    H156830   5.210   3.651   4.364  0.8550  0.2443  0.7639
11805TIP3    H256831   5.282   3.761   4.290 -0.1345 -0.4459 -1.2954
11806TIP3   OH256832   2.597   3.551  12.617  0.3516 -0.1825 -0.1451
11806TIP3    H156833   2.573   3.629  12.567  0.0109  0.2141  0.6100
11806TIP3    H256834   2.637   3.586  12.697  0.8016 -0.7967 -0.1046
11807TIP3   OH256835   6.381   3.846   2.970 -0.6636 -0.4651 -0.1228
11807TIP3    H156836   6.422   3.904   2.906 -0.6368 -1.1753 -0.7500
11807TIP3    H256837   6.405   3.884   3.055 -1.1803  0.8211 -0.5198
11808TIP3   OH256838   2.733   3.894  12.160 -0.4631 -0.0823 -0.3820
11808TIP3    H156839   2.698   3.944  12.085 -1.3353 -0.2799 -0.1204
11808TIP3    H256840   2.793   3.955  12.204  0.7750 -0.2561 -1.7437
11809TIP3   OH256841   3.614   4.363   4.579  0.9406 -0.7436 -0.1121
11809TIP3    H156842   3.671   4.341   4.505 -0.3740 -1.5546 -0.9095
11809TIP3    H256843   3.535   4.400   4.539  0.2417 -1.1114  0.8878
11810TIP3   OH256844   1.175   3.133   5.227 -0.6970  0.8630  0.3561
11810TIP3    H156845   1.143   3.111   5.314 -1.8399  0.8025 -0.0555
11810TIP3    H256846   1.262   3.169   5.241  0.1658 -1.4112  1.2948
11811TIP3   OH256847   3.744   1.081  10.985 -0.0570  0.3667  0.0315
11811TIP3    H156848   3.744   1.113  10.895  0.5368 -0.6246 -0.3310
11811TIP3    H256849   3.820   1.123  11.025  0.3256 -0.0511 -0.2498
11812TIP3   OH256850   4.285   4.664   2.750  0.1502 -0.2198 -0.0919
11812TIP3    H156851   4.315   4.694   2.837  1.7393  2.4416 -1.4098
11812TIP3    H256852   4.191   4.679   2.751  0.0454 -0.7929  1.3605
11813TIP3   OH256853   1.575   6.583   1.136  0.0596  0.1832 -0.1175
11813TIP3    H156854   1.661   6.543   1.122 -0.1803  0.0514 -1.3599
11813TIP3    H256855   1.562   6.582   1.231 -0.7114 -4.3524 -0.0585
11814TIP3   OH256856   5.961   2.381   5.378  0.4018  0.0811 -0.1940
11814TIP3    H156857   5.994   2.323   5.310 -1.2762 -1.0370 -0.1207
11814TIP3    H256858   5.958   2.327   5.457  0.9370  0.9344  0.4281
11815TIP3   OH256859   6.407   2.885   1.022  0.2753 -0.0045  0.5376
11815TIP3    H156860   6.425   2.952   0.956  0.8161 -0.0100  0.6716
11815TIP3    H256861   6.481   2.824   1.015  2.1972  1.7652  3.4047
11816TIP3   OH256862   4.667   1.271  11.937  0.3306 -0.0152  0.3371
11816TIP3    H156863   4.612   1.269  12.016 -0.4206 -0.0330 -0.1767
11816TIP3    H256864   4.611   1.310  11.870  1.5352  1.6311  0.2370
11817TIP3   OH256865   1.038   1.789  13.087 -0.2678 -0.0059 -0.4348
11817TIP3    H156866   1.133   1.776  13.087 -0.1759  0.5156 -1.8215
11817TIP3    H256867   1.027   1.884  13.079 -0.9121 -0.0598 -0.2284
11818TIP3   OH256868   5.622   4.330  15.304 -0.6461 -0.2931 -0.2469
11818TIP3    H156869   5.695   4.382  15.339 -0.4838 -1.5181  1.3399
11818TIP3    H256870   5.664   4.263  15.251 -0.7455  0.0226 -0.7353
11819TIP3   OH256871   5.291   4.809  16.864 -0.3633 -0.7747  0.5719
11819TIP3    H156872   5.366   4.796  16.805 -0.1187  0.5878  0.5380
11819TIP3    H256873   5.215   4.781  16.813 -0.1745  0.5085 -0.4968
11820TIP3   OH256874   5.326   3.943  14.616  0.4303  0.2577  0.4106
11820TIP3    H156875   5.392   3.956  14.548  0.7348 -0.7970  0.4841
11820TIP3    H256876   5.251   3.907  14.569  0.4265  0.0909  0.5447
11821TIP3   OH256877   3.080   6.277   0.966  0.2252 -0.7021  0.1921
11821TIP3    H156878   3.131   6.240   0.893  0.4706 -0.8359  0.4270
11821TIP3    H256879   3.088   6.211   1.035  1.3925  0.1685  0.9271
11822TIP3   OH256880   5.193   3.288  16.797  0.8396 -0.2302  0.4618
11822TIP3    H156881   5.184   3.205  16.844 -1.7800 -0.3970 -0.1274
11822TIP3    H256882   5.154   3.270  16.711  0.7614  1.4370  0.1202
11823TIP3   OH256883   4.609   5.234  11.203 -0.2407 -0.3503  0.2512
11823TIP3    H156884   4.627   5.324  11.177  1.8209 -1.3043 -2.0032
11823TIP3    H256885   4.528   5.211  11.156 -0.9537  0.3934  1.0923
11824TIP3   OH256886   1.553   4.878   6.244 -0.5879  0.2111 -0.4319
11824TIP3    H156887   1.639   4.835   6.243 -0.5084  0.2919  0.8391
11824TIP3    H256888   1.521   4.864   6.333 -1.8964  0.1960 -0.8886
11825TIP3   OH256889   4.886   6.399   2.607  0.3429  0.0271 -0.4508
11825TIP3    H156890   4.918   6.488   2.592 -0.6416  0.2445 -1.4284
11825TIP3    H256891   4.801   6.397   2.563 -1.2524 -0.3568  2.4378
11826TIP3   OH256892   4.344   3.414   2.924  0.3271  0.4713  0.0250
11826TIP3    H156893   4.260   3.456   2.943 -1.2685 -2.0229 -0.9578
11826TIP3    H256894   4.409   3.470   2.967 -1.9237  1.8161  1.9662
11827TIP3   OH256895   0.068   0.944  15.906 -0.2352 -0.0137  0.1688
11827TIP3    H156896   0.146   0.998  15.893  0.1444 -0.7698 -0.8570
11827TIP3    H256897   0.063   0.930  16.000  0.5350  0.5247  0.2972
11828TIP3   OH256898   1.188   0.649  11.962  0.1588  0.3221 -0.7986
11828TIP3    H156899   1.247   0.598  11.906  0.9020 -0.3343  0.5362
11828TIP3    H256900   1.246   0.692  12.024 -0.7511 -0.1993  0.4421
11829TIP3   OH256901   2.945   0.578   0.740 -0.7635 -0.5779 -0.0584
11829TIP3    H156902   3.001   0.648   0.773 -0.8981 -0.1099 -0.8070
11829TIP3    H256903   2.867   0.623   0.708 -0.9095 -1.0807 -0.4181
11830TIP3   OH256904   2.280   1.397  13.064 -0.0580  0.3616 -0.7180
11830TIP3    H156905   2.260   1.469  13.124  0.9408 -0.5674  0.8141
11830TIP3    H256906   2.354   1.352  13.105 -1.2768 -2.1386 -1.0750
11831TIP3   OH256907   2.196   6.144   2.199  0.4480 -0.0841 -0.2073
11831TIP3    H156908   2.186   6.127   2.293  1.1226  0.7700  0.0242
11831TIP3    H256909   2.119   6.103   2.160 -0.8498  1.1732  0.9131
11832TIP3   OH256910   3.094   2.247   4.564  0.6222  0.0171  0.3446
11832TIP3    H156911   3.118   2.161   4.530  1.6967  0.6216 -0.4879
11832TIP3    H256912   3.176   2.283   4.599  0.3048  0.9230  0.1761
11833TIP3   OH256913   2.029   2.768  11.474 -0.3527  0.0747 -0.0632
11833TIP3    H156914   1.951   2.809  11.514 -0.9969  0.0200 -1.2227
11833TIP3    H256915   2.080   2.737  11.549 -0.6982  1.4462  0.7852
11834TIP3   OH256916   5.013   6.042  11.483 -0.3368  0.4839 -0.4510
11834TIP3    H156917   4.976   5.962  11.519 -0.1185  1.2218  1.5352
11834TIP3    H256918   4.991   6.039  11.390 -0.1276 -1.9783 -0.4954
11835TIP3   OH256919   0.658   3.018   4.245 -0.7680 -0.6471  0.4370
11835TIP3    H156920   0.736   3.010   4.299 -0.6392 -0.5413  0.2674
11835TIP3    H256921   0.587   3.036   4.307 -0.6494 -0.6931  0.5854
11836TIP3   OH256922   2.034   6.321   6.660 -0.0529  0.6334  0.0807
11836TIP3    H156923   2.119   6.278   6.669 -0.3379 -0.2024 -1.0839
11836TIP3    H256924   2.049   6.388   6.594  0.0858  1.5774  1.0386
11837TIP3   OH256925   0.513   0.631  15.797 -0.2894 -0.5496  0.3758
11837TIP3    H156926   0.492   0.613  15.889  0.4538  1.0144  0.8785
11837TIP3    H256927   0.447   0.582  15.748 -2.6088  0.9850  1.7842
11838TIP3   OH256928   2.313   3.987   5.770  0.3102 -0.1346  0.3692
11838TIP3    H156929   2.381   3.925   5.744 -0.9027 -1.1511 -0.4397
11838TIP3    H256930   2.284   4.027   5.688 -0.6215 -0.2878  0.6172
11839TIP3   OH256931   1.036   0.609   3.662 -0.2814 -0.3657 -0.2965
11839TIP3    H156932   1.120   0.628   3.620 -0.1236  0.3445  0.3304
11839TIP3    H256933   0.971   0.626   3.594  0.0042  0.2194 -0.4252
11840TIP3   OH256934   3.160   5.669   5.294  0.7287 -0.2440 -0.3545
11840TIP3    H156935   3.073   5.629   5.290 -0.2306  1.4692  1.6434
11840TIP3    H256936   3.212   5.608   5.346 -0.4697  0.5868  1.9277
11841TIP3   OH256937   3.704   2.071  12.201 -0.2772  0.7294 -0.2984
11841TIP3    H156938   3.776   2.009  12.210  0.0432  1.3636  2.2416
11841TIP3    H256939   3.727   2.123  12.124  0.6375 -0.7269 -1.0531
11842TIP3   OH256940   1.981   4.335   6.138  0.6493  0.1564 -0.2048
11842TIP3    H156941   2.062   4.373   6.171  0.1196  1.8646 -0.7411
11842TIP3    H256942   2.002   4.305   6.050  0.8383  0.0570 -0.1260
11843TIP3   OH256943   3.811   1.214  12.340  0.0818  0.1366  0.2747
11843TIP3    H156944   3.826   1.254  12.426  0.3836  0.7963 -0.0763
11843TIP3    H256945   3.857   1.271  12.278 -0.1699 -0.3022 -0.3336
11844TIP3   OH256946   6.580   3.981   3.827  0.6353  0.4398  0.5657
11844TIP3    H156947   6.592   4.005   3.735 -0.0954  2.2137  0.8863
11844TIP3    H256948   6.668   3.964   3.859  1.0430  1.1688 -0.1251
11845TIP3   OH256949   5.975   3.022   0.356  0.2441  0.0783  0.7740
11845TIP3    H156950   5.974   3.084   0.428 -0.9773  1.2372 -0.1983
11845TIP3    H256951   6.041   3.057   0.295  0.1776 -0.0561  0.6238
11846TIP3   OH256952   3.358   2.785  16.865 -0.3768  0.3992 -0.2603
11846TIP3    H156953   3.325   2.753  16.781  0.2931  0.1382 -0.4282
11846TIP3    H256954   3.396   2.708  16.907 -0.8120  0.5022  0.3404
11847TIP3   OH256955   5.994   4.957  12.549  0.3913 -0.2794 -0.5985
11847TIP3    H156956   6.087   4.961  12.525  0.3808  0.5224 -0.5386
11847TIP3    H256957   5.985   4.873  12.594  1.1493 -0.2559 -0.3794
11848TIP3   OH256958   2.248   1.395   3.269 -0.8272 -0.1091 -0.0713
11848TIP3    H156959   2.331   1.383   3.223 -1.4855  1.1003 -1.6727
11848TIP3    H256960   2.223   1.307   3.296  0.1556 -0.7179 -1.0603
11849TIP3   OH256961   0.711   1.317   5.411  0.2237 -0.0933 -0.1313
11849TIP3    H156962   0.733   1.405   5.441  0.6947 -0.1982 -0.1592
11849TIP3    H256963   0.661   1.331   5.330  0.8109  0.1396 -0.4626
11850TIP3   OH256964   2.264   4.630  11.532 -0.0696 -0.7791 -0.0157
11850TIP3    H156965   2.306   4.638  11.446  1.6530 -2.4909  0.5836
11850TIP3    H256966   2.336   4.611  11.591 -1.5374 -2.4716  1.3368
11851TIP3   OH256967   6.558   5.197   2.440  0.0432  0.2358 -0.4823
11851TIP3    H156968   6.485   5.201   2.379  0.2280 -0.1651 -0.7342
11851TIP3    H256969   6.589   5.288   2.446 -1.3425  0.6665  0.7124
11852TIP3   OH256970   6.584   4.553   3.351 -0.4311 -0.1395 -0.2006
11852TIP3    H156971   6.677   4.573   3.339 -0.4908 -0.6618 -1.7649
11852TIP3    H256972   6.575   4.533   3.444  0.5187  2.3740  0.5058
11853TIP3   OH256973   3.147   1.062   4.048 -0.3876  0.6394 -0.4706
11853TIP3    H156974   3.114   1.145   4.014 -0.9067  0.0632 -1.4359
11853TIP3    H256975   3.216   1.086   4.109 -1.6591  1.8382  0.5439
11854TIP3   OH256976   3.369   5.384  15.767 -0.9354  0.0052 -0.2828
11854TIP3    H156977   3.449   5.347  15.805 -1.0435  0.0649  0.0097
11854TIP3    H256978   3.313   5.309  15.750 -1.1111  0.0184  0.2079
11855TIP3   OH256979   4.116   3.453  14.126 -0.6396  0.4033  0.1863
11855TIP3    H156980   4.176   3.413  14.062 -0.0759  1.6478 -0.1075
11855TIP3    H256981   4.059   3.509  14.073 -0.0992  1.5326  0.7592
11856TIP3   OH256982   3.936   4.442  14.550  0.1277  0.2707  0.1437
11856TIP3    H156983   4.003   4.464  14.615 -2.2107 -1.1090  3.2522
11856TIP3    H256984   3.967   4.359  14.512  1.3143  0.8799 -0.2952
11857TIP3   OH256985   1.599   3.763   3.350 -0.2682 -0.1999 -0.6669
11857TIP3    H156986   1.596   3.852   3.385 -1.0587 -0.2356 -0.6317
11857TIP3    H256987   1.681   3.760   3.300  0.5261  0.0630  0.5777
11858TIP3   OH256988   4.916   5.751   2.210  0.0666  0.6774  0.5022
11858TIP3    H156989   4.937   5.664   2.174 -1.7732  0.2752  0.2997
11858TIP3    H256990   4.918   5.809   2.134 -2.7365  0.0223 -0.1994
11859TIP3   OH256991   6.440   1.246  12.654  0.4192  0.6882 -0.1244
11859TIP3    H156992   6.383   1.172  12.632  0.6774  0.7083 -0.8838
11859TIP3    H256993   6.379   1.318  12.672  0.1831  0.9829 -1.9049
11860TIP3   OH256994   3.433   5.474  16.539 -0.2367 -0.0326 -0.0573
11860TIP3    H156995   3.348   5.482  16.495  0.3432  0.7764 -1.0719
11860TIP3    H256996   3.412   5.439  16.626 -1.5732 -0.1185 -0.3955
11861TIP3   OH256997   0.548   3.775  15.253  0.0328  0.1261 -0.1978
11861TIP3    H156998   0.522   3.749  15.164 -1.6798 -1.2317  0.6347
11861TIP3    H256999   0.530   3.869  15.257 -2.4970 -0.2728 -0.5027
11862TIP3   OH257000   4.289   2.434   1.654  0.1399 -0.1158 -0.1247
11862TIP3    H157001   4.293   2.464   1.563 -0.1289  1.8559  0.4731
11862TIP3    H257002   4.198   2.408   1.667  0.2005 -0.4905 -0.4386
11863TIP3   OH257003   6.047   3.390   4.358 -0.5164  0.4369  0.2211
11863TIP3    H157004   6.080   3.304   4.383  0.3915  0.8593  0.4984
11863TIP3    H257005   5.966   3.400   4.409 -1.3984 -0.8195 -0.8690
11864TIP3   OH257006   1.362   0.528   2.452 -0.0350  0.5605  0.4171
11864TIP3    H157007   1.363   0.516   2.547  0.2942 -1.0339  0.2418
11864TIP3    H257008   1.454   0.540   2.429 -0.1557  1.3996  0.3269
11865TIP3   OH257009   1.240   5.105  11.806  0.6659 -0.4343 -0.0017
11865TIP3    H157010   1.276   5.104  11.894 -1.9227 -1.6025  1.1596
11865TIP3    H257011   1.223   5.198  11.788  3.1196  0.0372 -0.1985
11866TIP3   OH257012   3.228   2.704  13.210  0.2063  0.0533  0.6144
11866TIP3    H157013   3.240   2.773  13.146 -0.9601 -0.5090 -0.2463
11866TIP3    H257014   3.245   2.746  13.294 -0.6849  1.4443  0.1305
11867TIP3   OH257015   1.426   2.008  14.083  0.4103 -0.2413 -0.0852
11867TIP3    H157016   1.456   2.082  14.137 -0.3122  0.4931 -0.6790
11867TIP3    H257017   1.415   2.045  13.996 -0.1289 -1.0174 -0.3500
11868TIP3   OH257018   3.667   2.590  14.720  0.3538 -0.3124  0.3592
11868TIP3    H157019   3.651   2.612  14.812  0.1407 -1.7283  0.6843
11868TIP3    H257020   3.582   2.600  14.678  0.8431  2.3487 -0.1718
11869TIP3   OH257021   4.378   2.175   5.814 -0.1330 -0.3594  0.2493
11869TIP3    H157022   4.316   2.128   5.870 -0.3422  1.2018  1.4202
11869TIP3    H257023   4.338   2.261   5.802  1.4270  0.4107  0.3770
11870TIP3   OH257024   0.447   4.457  12.352  0.2341  0.2313  0.0751
11870TIP3    H157025   0.516   4.464  12.286  1.7307  0.3915  1.5854
11870TIP3    H257026   0.485   4.495  12.431 -1.3314 -0.3449  1.1683
11871TIP3   OH257027   2.587   1.110  14.589  0.3763 -0.1736  0.0487
11871TIP3    H157028   2.594   1.068  14.675  1.2602  0.4927  0.3085
11871TIP3    H257029   2.524   1.181  14.602  0.6081  0.0076  0.1739
11872TIP3   OH257030   6.432   6.415   4.712  0.1732 -0.1696  0.0996
11872TIP3    H157031   6.498   6.348   4.729  0.3810 -0.6477 -2.2886
11872TIP3    H257032   6.430   6.424   4.617 -4.3387 -1.3436 -0.1568
11873TIP3   OH257033   0.949   3.374  10.792 -0.4355 -0.2020 -0.1337
11873TIP3    H157034   1.035   3.379  10.833  1.1646 -1.7075 -2.9917
11873TIP3    H257035   0.895   3.327  10.856  1.6450 -1.6673  0.6560
11874TIP3   OH257036   1.126   5.178   4.325 -0.3344 -0.0478  0.3254
11874TIP3    H157037   1.050   5.120   4.326 -0.5791  0.2795  1.1615
11874TIP3    H257038   1.155   5.181   4.416 -0.0107  0.7476  0.2010
11875TIP3   OH257039   1.520   5.621  15.186  0.4596 -0.0476 -0.6380
11875TIP3    H157040   1.466   5.558  15.233  1.0330  0.8234  1.2954
11875TIP3    H257041   1.610   5.600  15.211  0.8342  0.1587 -1.7344
11876TIP3   OH257042   4.386   6.023   1.639 -0.2185  0.0087  0.3062
11876TIP3    H157043   4.480   6.026   1.656 -0.1940  1.3063  0.0307
11876TIP3    H257044   4.345   6.040   1.724 -0.2034 -0.0842  0.3324
11877TIP3   OH257045   2.377   5.607  16.341  0.7892 -0.5370 -0.3426
11877TIP3    H157046   2.453   5.576  16.291  0.4393 -1.7129 -0.1706
11877TIP3    H257047   2.319   5.645  16.275  1.4457  0.2348 -0.4948
11878TIP3   OH257048   1.839   1.998  11.768  0.5127 -0.2428 -0.0686
11878TIP3    H157049   1.823   1.943  11.691  1.4211 -0.6134 -0.0125
11878TIP3    H257050   1.900   2.065  11.737 -0.3959  0.5994 -0.0731
11879TIP3   OH257051   6.519   5.541  13.328  0.7152 -0.7949  0.0297
11879TIP3    H157052   6.526   5.624  13.375  1.5820 -0.2730 -0.9930
11879TIP3    H257053   6.547   5.561  13.239 -0.2515 -1.9201 -0.5561
11880TIP3   OH257054   2.070   4.023   3.153  0.7226 -0.1619 -0.1636
11880TIP3    H157055   2.165   4.039   3.154  0.2300  3.3629  0.8048
11880TIP3    H257056   2.036   4.073   3.227 -2.0001 -0.9223 -0.7881
11881TIP3   OH257057   2.623   3.666  15.753 -0.4111 -0.0926  0.1740
11881TIP3    H157058   2.608   3.689  15.845  0.2139  0.7546  0.0761
11881TIP3    H257059   2.649   3.574  15.755  0.5652  0.1844  0.9511
11882TIP3   OH257060   0.300   2.243  15.288  0.0369 -0.1794  0.4195
11882TIP3    H157061   0.214   2.225  15.249 -0.8410  0.9872  1.7011
11882TIP3    H257062   0.358   2.259  15.214 -1.1316  0.1627 -0.4535
11883TIP3   OH257063   4.328   2.393   0.695  0.4324  0.1293  0.3252
11883TIP3    H157064   4.374   2.409   0.777  2.8592  1.3270 -1.1559
11883TIP3    H257065   4.372   2.317   0.657 -0.1359  0.0698 -0.2350
11884TIP3   OH257066   1.542   2.853   2.044  0.8975  0.1489 -1.2239
11884TIP3    H157067   1.485   2.828   1.971  0.9476  0.1801 -1.2736
11884TIP3    H257068   1.495   2.925   2.086 -0.3210 -1.4445  0.2526
11885TIP3   OH257069   2.235   6.327  14.339  0.2577  0.2034  0.7229
11885TIP3    H157070   2.279   6.348  14.257  0.4007 -2.0776  0.1513
11885TIP3    H257071   2.179   6.402  14.356  1.3115  1.3673 -0.6818
11886TIP3   OH257072   5.084   2.553   2.114 -0.5352  0.6385 -0.3447
11886TIP3    H157073   5.170   2.557   2.072 -0.9137 -0.6486 -1.3158
11886TIP3    H257074   5.027   2.606   2.058 -0.3495  1.6719  0.4187
11887TIP3   OH257075   1.924   5.103  12.103  0.5088  0.3429  0.2386
11887TIP3    H157076   1.877   5.173  12.057  2.0790  0.0890 -1.9300
11887TIP3    H257077   1.932   5.034  12.037  0.5781 -1.1654  1.7693
11888TIP3   OH257078   3.061   3.306   4.618  0.4595  0.1441 -0.0191
11888TIP3    H157079   3.011   3.346   4.547  0.2992  0.0241  0.0286
11888TIP3    H257080   3.153   3.318   4.592  0.4948  2.0918  0.7957
11889TIP3   OH257081   2.278   1.883   0.415  0.4413  0.9514 -0.2880
11889TIP3    H157082   2.364   1.871   0.375  0.7020 -1.3942  0.8270
11889TIP3    H257083   2.221   1.906   0.341  1.4782 -0.3254 -1.5507
11890TIP3   OH257084   5.787   1.432  13.693 -0.3658 -0.1747 -0.3111
11890TIP3    H157085   5.810   1.514  13.736  1.1919 -0.9880  0.4969
11890TIP3    H257086   5.747   1.458  13.610  0.5457  1.3929 -0.2924
11891TIP3   OH257087   2.616   6.260   5.488 -0.0513  0.2452 -0.1164
11891TIP3    H157088   2.536   6.286   5.442 -0.0125  1.8473  0.6584
11891TIP3    H257089   2.649   6.341   5.527  1.8196 -0.4382 -0.1836
11892TIP3   OH257090   3.178   2.629  12.614  0.0378 -0.0715 -0.2892
11892TIP3    H157091   3.181   2.597  12.524 -2.7498 -0.4805 -0.3177
11892TIP3    H257092   3.110   2.696  12.614  1.6121  1.6290  1.0710
11893TIP3   OH257093   5.039   5.453   6.576  0.2977 -0.5633  0.2282
11893TIP3    H157094   4.946   5.452   6.558  0.0341  2.0147  1.0277
11893TIP3    H257095   5.052   5.383   6.641 -1.6422  0.8259  2.2470
11894TIP3   OH257096   4.044   2.114  12.740  0.5824  0.0105  0.4525
11894TIP3    H157097   4.055   2.155  12.826 -0.9504  0.8595  0.2787
11894TIP3    H257098   4.133   2.093  12.712  1.1363  0.0186  2.0953
11895TIP3   OH257099   6.098   0.306   2.674  0.0487  0.1252  0.3085
11895TIP3    H157100   6.020   0.362   2.684  0.7740  1.1733  0.2336
11895TIP3    H257101   6.064   0.225   2.637 -0.6745  1.5049 -2.2878
11896TIP3   OH257102   1.661   2.024   3.755 -0.2879  0.0772 -0.9885
11896TIP3    H157103   1.677   1.954   3.693 -0.5692 -0.1172 -0.8415
11896TIP3    H257104   1.747   2.041   3.795 -0.3408 -0.6022 -0.5805
11897TIP3   OH257105   0.393   0.242  15.483 -1.0211 -0.0918  0.5793
11897TIP3    H157106   0.390   0.149  15.464  1.9042 -0.1874  0.1682
11897TIP3    H257107   0.344   0.283  15.412 -0.3027 -1.1792 -0.5677
11898TIP3   OH257108   5.275   3.449  11.659  0.4183  0.0341  0.1299
11898TIP3    H157109   5.251   3.524  11.713  1.6336  0.6743 -0.1835
11898TIP3    H257110   5.340   3.483  11.598 -0.1827 -0.9104 -1.0819
11899TIP3   OH257111   2.050   3.377   1.812 -0.5399 -0.1308 -0.0504
11899TIP3    H157112   2.025   3.449   1.755  2.7646  0.2342 -1.2430
11899TIP3    H257113   2.053   3.301   1.754  0.2518 -0.3105  0.2216
11900TIP3   OH257114   0.080   0.689  16.262  0.1338 -0.7422  0.1605
11900TIP3    H157115   0.017   0.626  16.298  0.2604 -0.1532  1.4977
11900TIP3    H257116   0.037   0.774  16.273  0.0410 -0.5480 -1.4605
11901TIP3   OH257117   4.939   2.309   2.603  0.3220  0.9696 -0.1239
11901TIP3    H157118   4.866   2.278   2.550 -0.0509  1.3391  0.1719
11901TIP3    H257119   4.923   2.403   2.614  0.5345  0.9454  0.4201
11902TIP3   OH257120   0.356   1.590   6.140 -0.6044 -0.3410  0.2418
11902TIP3    H157121   0.421   1.525   6.168  0.9101  0.3567 -1.4996
11902TIP3    H257122   0.325   1.558   6.055  0.0908  1.1359 -0.5952
11903TIP3   OH257123   6.122   5.421  14.958  0.2719 -0.6512  0.1908
11903TIP3    H157124   6.187   5.379  15.014  1.4826  0.4206 -0.3648
11903TIP3    H257125   6.088   5.493  15.010 -0.6902 -1.3437  0.5684
11904TIP3   OH257126   2.960   2.249  13.941  0.0985  0.8721  0.4002
11904TIP3    H157127   2.939   2.342  13.945 -0.4961  0.7109  1.4661
11904TIP3    H257128   3.026   2.236  14.010 -1.8914  0.0343  2.2858
11905TIP3   OH257129   1.389   3.176  13.961 -0.4270 -0.3532 -0.1572
11905TIP3    H157130   1.468   3.130  13.987 -0.1677 -0.5667 -1.2742
11905TIP3    H257131   1.327   3.161  14.032  0.5310 -0.1850  0.7227
11906TIP3   OH257132   3.470   0.252  12.543 -0.5389  0.8842 -0.1684
11906TIP3    H157133   3.463   0.173  12.597  2.3736  0.7667  0.1690
11906TIP3    H257134   3.452   0.324  12.604  1.4443  0.6802  0.7258
11907TIP3   OH257135   4.717   5.498   3.200 -0.4928 -0.1325 -0.2371
11907TIP3    H157136   4.746   5.469   3.286  0.6508  1.5813  0.0151
11907TIP3    H257137   4.772   5.449   3.138  0.6657  0.6639  0.1335
11908TIP3   OH257138   0.754   4.337  11.723  0.0730  0.3927 -0.3172
11908TIP3    H157139   0.847   4.349  11.742  0.0785  0.2186 -0.2279
11908TIP3    H257140   0.753   4.273  11.651 -0.0447 -1.6891  1.4238
11909TIP3   OH257141   5.865   5.346  15.348  0.6921 -0.0174  0.2892
11909TIP3    H157142   5.931   5.390  15.403 -0.8967  1.7494  0.8967
11909TIP3    H257143   5.884   5.377  15.259  1.9481 -1.2042  0.1070
11910TIP3   OH257144   2.250   4.474   4.889  0.2917 -0.4754  0.0600
11910TIP3    H157145   2.189   4.430   4.830  1.6226 -0.8008 -1.1531
11910TIP3    H257146   2.333   4.473   4.841  1.0515  0.6784  1.2997
11911TIP3   OH257147   2.965   6.518  16.748  0.2629 -0.0023  0.2651
11911TIP3    H157148   2.932   6.591  16.800 -1.9339 -1.9858  1.8702
11911TIP3    H257149   2.913   6.519  16.668 -0.4311 -0.3478  0.7075
11912TIP3   OH257150   3.663   2.153   1.492  0.7570  0.0962 -0.2165
11912TIP3    H157151   3.605   2.095   1.442  0.6413  0.5014 -0.5671
11912TIP3    H257152   3.686   2.222   1.429 -0.7580  1.5570  0.7533
11913TIP3   OH257153   3.254   2.371   5.406  0.5623 -0.0454  0.1412
11913TIP3    H157154   3.267   2.306   5.475  1.0699 -0.1478 -0.0451
11913TIP3    H257155   3.169   2.410   5.425  0.1003 -0.9942  0.0665
11914TIP3   OH257156   5.050   4.592  13.213 -0.3076  0.0207 -0.1795
11914TIP3    H157157   5.137   4.579  13.251 -0.5850  2.5277  1.5224
11914TIP3    H257158   4.990   4.569  13.284 -0.9218  1.4907 -0.1951
11915TIP3   OH257159   3.483   3.592   3.808 -0.1199  0.0362  0.2301
11915TIP3    H157160   3.536   3.579   3.729  0.0537  0.5949  0.2509
11915TIP3    H257161   3.414   3.653   3.780  1.0749  1.8406  0.9768
11916TIP3   OH257162   3.803   6.240   5.028  0.4706 -0.5528 -0.4625
11916TIP3    H157163   3.852   6.321   5.020 -2.1757  1.3035  0.6829
11916TIP3    H257164   3.828   6.206   5.114  2.0621 -1.3726 -1.2060
11917TIP3   OH257165   4.673   2.571   3.333 -0.3625  0.0084  0.5134
11917TIP3    H157166   4.756   2.540   3.296  0.4263  1.2361  1.1943
11917TIP3    H257167   4.646   2.642   3.275 -0.1403  0.6192  1.1422
11918TIP3   OH257168   2.772   2.424   5.027  0.5424 -0.4737 -0.3511
11918TIP3    H157169   2.857   2.383   5.008  0.2289 -0.4588 -1.8937
11918TIP3    H257170   2.711   2.351   5.035  0.4720 -0.4304 -0.4886
11919TIP3   OH257171   5.075   6.287  13.459  0.6556  1.0525  0.0211
11919TIP3    H157172   5.147   6.348  13.477  1.1200  1.5763 -3.1286
11919TIP3    H257173   5.075   6.276  13.364  0.2896 -3.5341  0.3284
11920TIP3   OH257174   5.034   5.158  11.871 -0.4221 -0.3044  0.5914
11920TIP3    H157175   5.013   5.091  11.936 -2.2488  0.7980  1.2078
11920TIP3    H257176   4.973   5.229  11.889  2.0244  1.9673  0.5591
11921TIP3   OH257177   2.883   3.680   1.482  0.1093  0.6534  0.0362
11921TIP3    H157178   2.788   3.690   1.487  0.2184  1.1334  2.1445
11921TIP3    H257179   2.897   3.587   1.466 -0.7263  0.4191  0.6021
11922TIP3   OH257180   1.371   4.078  12.337  0.0844 -0.0504 -0.2093
11922TIP3    H157181   1.421   4.049  12.261 -0.6368  2.0236 -1.5738
11922TIP3    H257182   1.322   4.001  12.365  2.0645 -1.4502 -0.4040
11923TIP3   OH257183   3.039   5.375  13.113  0.2252  0.2562 -0.1452
11923TIP3    H157184   3.075   5.331  13.037  0.2851 -1.7080  0.9602
11923TIP3    H257185   2.948   5.393  13.090  0.0629 -0.9023 -0.4569
11924TIP3   OH257186   4.934   6.229   2.800 -0.3324  0.1049 -0.1993
11924TIP3    H157187   4.893   6.277   2.728  1.3838 -0.7380 -1.8498
11924TIP3    H257188   4.866   6.223   2.867 -2.0565  0.8423 -1.7789
11925TIP3   OH257189   2.976   0.036   5.146  0.2618  0.3205  0.1107
11925TIP3    H157190   3.069   0.056   5.132 -0.2387  1.6824 -1.5996
11925TIP3    H257191   2.953  -0.018   5.070 -0.8819  1.9949 -0.7940
11926TIP3   OH257192   5.238   2.604  11.806 -0.0204  1.0255 -0.5284
11926TIP3    H157193   5.189   2.683  11.827 -0.6796 -0.0108  2.2210
11926TIP3    H257194   5.329   2.626  11.824 -0.1290  1.3273 -0.3627
11927TIP3   OH257195   3.553   5.300   3.256  0.1707 -0.4223 -0.2729
11927TIP3    H157196   3.529   5.374   3.200 -1.3662 -1.1525 -0.6249
11927TIP3    H257197   3.537   5.223   3.202  0.1086 -1.0788  0.6643
11928TIP3   OH257198   5.756   0.317   5.285 -0.0811 -0.1100  0.1108
11928TIP3    H157199   5.759   0.264   5.205  0.6385  0.1013 -0.0101
11928TIP3    H257200   5.691   0.385   5.266 -0.6587 -0.6633  0.0902
11929TIP3   OH257201   2.903   3.510   6.001 -0.7267  0.0467 -0.3877
11929TIP3    H157202   2.906   3.573   6.073 -2.5228  1.0036 -1.0553
11929TIP3    H257203   2.960   3.439   6.028 -2.4602 -0.3588  2.6764
11930TIP3   OH257204   0.853   2.588  14.365 -0.7164  0.1048  0.2209
11930TIP3    H157205   0.851   2.586  14.460  2.2410 -0.6920  0.3588
11930TIP3    H257206   0.888   2.503  14.339  0.7384  1.1115 -1.4044
11931TIP3   OH257207   2.835   5.363   3.465  0.1085  0.2968 -0.3351
11931TIP3    H157208   2.862   5.416   3.540  0.0335  0.1710 -0.2190
11931TIP3    H257209   2.757   5.407   3.432  0.5332  0.7454 -0.7617
11932TIP3   OH257210   4.860   5.919  12.392  1.1089  0.1407 -0.8489
11932TIP3    H157211   4.926   5.869  12.440  0.2461 -0.3882 -0.1948
11932TIP3    H257212   4.860   6.005  12.434 -1.0146 -0.8928  1.4862
11933TIP3   OH257213   2.398   5.374  11.606  0.4577 -1.1378  0.3556
11933TIP3    H157214   2.430   5.403  11.692  0.3534 -0.4864  0.1732
11933TIP3    H257215   2.477   5.344  11.561  0.6132 -0.8237  0.4172
11934TIP3   OH257216   2.071   2.200  14.240  0.3214 -0.4856 -0.4037
11934TIP3    H157217   2.048   2.274  14.297  1.4787 -0.5969  0.2259
11934TIP3    H257218   2.115   2.240  14.165  1.9329 -0.5741  0.4462
11935TIP3   OH257219   1.503   6.464   2.257 -0.2649  0.7638  0.3529
11935TIP3    H157220   1.482   6.497   2.170  0.4681 -0.8721 -0.4859
11935TIP3    H257221   1.511   6.369   2.246  2.0048  0.7258  1.7497
11936TIP3   OH257222   4.953   3.605   4.860  0.3139 -0.1418 -0.0989
11936TIP3    H157223   4.861   3.622   4.838  0.1323  1.8953  1.8189
11936TIP3    H257224   4.986   3.552   4.787 -3.3328 -4.4717  0.9468
11937TIP3   OH257225   3.526   2.564   0.270 -0.4261 -0.2729  0.1846
11937TIP3    H157226   3.589   2.635   0.283  0.0364 -0.5763 -0.3406
11937TIP3    H257227   3.506   2.567   0.177  1.7211 -2.5317 -0.4722
11938TIP3   OH257228   2.615   2.857  12.218 -0.0402 -0.6907 -0.1804
11938TIP3    H157229   2.594   2.945  12.188  1.3952 -0.5778 -0.9750
11938TIP3    H257230   2.614   2.804  12.138  1.6553 -0.8392 -0.1512
11939TIP3   OH257231   5.075   4.603   3.172  0.4312 -0.2591  0.0431
11939TIP3    H157232   5.147   4.658   3.140  1.6965 -1.6361  0.4248
11939TIP3    H257233   5.076   4.527   3.114 -0.0491 -0.7793  0.7060
11940TIP3   OH257234   3.781   5.083  16.505  0.1550  0.1114  0.0726
11940TIP3    H157235   3.833   5.150  16.461  0.4094  0.3378  0.7020
11940TIP3    H257236   3.700   5.078  16.454 -1.4215  3.3816  1.8507
11941TIP3   OH257237   0.024   6.616   5.144  0.4692 -0.4400 -0.1946
11941TIP3    H157238   0.109   6.591   5.108  1.1444  0.6330  0.6329
11941TIP3    H257239  -0.034   6.543   5.120  1.4605 -0.8836 -1.3121
11942TIP3   OH257240   6.273   5.699  11.268  0.6351  0.2046  0.1684
11942TIP3    H157241   6.365   5.714  11.291  0.7199  0.4904 -0.3347
11942TIP3    H257242   6.269   5.715  11.174 -0.0691  0.8661  0.2952
11943TIP3   OH257243   3.989   5.955   3.722  0.0103 -0.1653 -0.4488
11943TIP3    H157244   3.902   5.981   3.752 -0.7477 -2.7606 -0.1191
11943TIP3    H257245   3.983   5.955   3.627 -0.3531 -0.3181 -0.4280
11944TIP3   OH257246   5.279   4.493   4.251  0.0600  0.4941  0.9014
11944TIP3    H157247   5.319   4.540   4.324 -0.1850 -0.3469  1.5822
11944TIP3    H257248   5.249   4.410   4.288 -0.2235  0.1253 -0.1128
11945TIP3   OH257249   2.507   4.012  15.644  0.1552 -0.1616 -0.2778
11945TIP3    H157250   2.486   4.104  15.658 -1.7480 -0.7269  0.9759
11945TIP3    H257251   2.482   3.969  15.726 -0.1550 -1.9655 -1.2714
11946TIP3   OH257252   2.500   5.018  17.136  0.4874 -0.3465 -0.2576
11946TIP3    H157253   2.571   5.030  17.199 -0.4417 -0.8525  0.9186
11946TIP3    H257254   2.536   4.957  17.071  1.4039  0.0646 -0.1503
11947TIP3   OH257255   3.648   4.223   0.033 -0.0343  0.3768 -0.3284
11947TIP3    H157256   3.692   4.287   0.089 -1.0611 -0.4465  1.5185
11947TIP3    H257257   3.632   4.148   0.090 -0.7554 -0.6976 -1.8652
11948TIP3   OH257258   1.956   3.271   5.957 -0.3144  0.4756  0.0989
11948TIP3    H157259   1.903   3.200   5.993  0.0426  0.1999  0.0833
11948TIP3    H257260   1.989   3.317   6.034 -2.4277  2.0634  0.1367
11949TIP3   OH257261   3.850   4.045   3.642  0.5454 -0.7247  0.2696
11949TIP3    H157262   3.844   4.098   3.563  1.0563 -0.1553  0.6083
11949TIP3    H257263   3.805   4.096   3.710  1.4029 -0.5238  0.6971
11950TIP3   OH257264   3.038   5.009  12.506 -0.1897 -0.0695  0.3629
11950TIP3    H157265   3.031   5.101  12.531  1.9237  0.7633 -1.7275
11950TIP3    H257266   3.041   4.962  12.589  0.4335  1.9073  1.5343
11951TIP3   OH257267   3.093   4.810  11.433  0.2922  0.1047 -0.4664
11951TIP3    H157268   3.135   4.759  11.364 -1.3138 -1.7126 -0.1843
11951TIP3    H257269   3.000   4.810  11.410 -0.1774  0.0857  1.2909
11952TIP3   OH257270   6.231   2.973  16.213  0.2410  0.4140  0.1829
11952TIP3    H157271   6.305   2.968  16.152  0.6733 -2.9591  0.7531
11952TIP3    H257272   6.154   2.978  16.157  0.7064 -1.1811 -0.6752
11953TIP3   OH257273   2.781   0.002  13.593 -0.7797 -0.4967 -0.1599
11953TIP3    H157274   2.741   0.075  13.546  0.4251  0.3908  0.1425
11953TIP3    H257275   2.781  -0.070  13.530  0.3629  0.5268 -1.3743
11954TIP3   OH257276   5.530   3.987  11.781  0.3816  0.6477  0.1958
11954TIP3    H157277   5.602   4.016  11.725 -1.1072  0.7629 -1.7678
11954TIP3    H257278   5.481   3.924  11.728 -0.5296 -0.0351  1.7634
11955TIP3   OH257279   2.763   4.859  13.867 -0.5069 -0.0159  0.6006
11955TIP3    H157280   2.841   4.839  13.920 -0.8390 -2.7029  0.2285
11955TIP3    H257281   2.699   4.892  13.930 -1.1451 -3.7992  2.2273
11956TIP3   OH257282   2.778   5.482  12.700 -0.5184 -0.0621  0.1517
11956TIP3    H157283   2.709   5.491  12.635 -1.0759 -0.4944  0.6685
11956TIP3    H257284   2.771   5.391  12.729  0.8410 -0.3657 -0.4200
11957TIP3   OH257285   4.414   2.800  15.698 -0.0171 -0.5816 -0.2601
11957TIP3    H157286   4.452   2.883  15.726  1.0615 -0.8249 -0.9670
11957TIP3    H257287   4.360   2.773  15.773  0.0833  0.4551  0.2105
11958TIP3   OH257288   6.117   6.203   2.152 -0.5203  0.5394 -0.1975
11958TIP3    H157289   6.053   6.224   2.219 -0.7104  0.4212 -0.3418
11958TIP3    H257290   6.078   6.234   2.070 -0.9512 -0.6650 -0.4639
11959TIP3   OH257291   1.225   6.281  17.209  0.5020 -0.0117  0.1163
11959TIP3    H157292   1.181   6.312  17.130  2.1692  0.4657 -0.6916
11959TIP3    H257293   1.167   6.215  17.245 -0.5488  0.1354 -1.2190
11960TIP3   OH257294   3.121   4.259   1.328  0.1245 -0.0626  0.2938
11960TIP3    H157295   3.096   4.273   1.236  3.4405  2.1641 -0.4556
11960TIP3    H257296   3.099   4.168   1.345 -3.0372  0.1427 -1.8079
11961TIP3   OH257297   3.194   2.216   5.160  0.0533  0.0434  0.7166
11961TIP3    H157298   3.185   2.284   5.227  0.0310 -0.6152  1.3899
11961TIP3    H257299   3.262   2.157   5.194 -0.1779 -0.4628  0.3122
11962TIP3   OH257300   2.399   6.047   5.997  0.6014 -0.6220 -0.5512
11962TIP3    H157301   2.473   6.080   6.049  1.6467 -1.6217 -1.3417
11962TIP3    H257302   2.430   6.053   5.906  0.0104 -1.7534 -0.8457
11963TIP3   OH257303   1.114   4.070  11.451 -0.5866  0.2389  0.8216
11963TIP3    H157304   1.184   4.114  11.403 -1.1486 -0.6420 -0.9077
11963TIP3    H257305   1.134   4.087  11.543  3.0618 -1.5735  0.5749
11964TIP3   OH257306   4.605   3.148   2.318 -0.0650  0.1482 -0.6715
11964TIP3    H157307   4.699   3.165   2.326  0.6022 -3.1071 -0.2050
11964TIP3    H257308   4.585   3.163   2.226  0.9564  0.6383 -0.8262
11965TIP3   OH257309   6.091   2.377  11.175  0.2032  0.2235  0.1741
11965TIP3    H157310   6.081   2.282  11.177 -0.4918  0.0898 -3.3365
11965TIP3    H257311   6.001   2.411  11.178  0.3895  0.7077  0.3865
11966TIP3   OH257312   5.488   4.600   3.281  0.1253  0.2672  0.0460
11966TIP3    H157313   5.468   4.508   3.264  1.3195  0.1649 -0.9413
11966TIP3    H257314   5.563   4.597   3.341 -0.2519  0.6189  0.5510
11967TIP3   OH257315   5.388   3.914   2.316 -0.3305 -0.6732 -0.1779
11967TIP3    H157316   5.471   3.961   2.304  0.1203 -1.3456  0.2176
11967TIP3    H257317   5.331   3.977   2.360  0.6174 -0.8236  1.3668
11968TIP3   OH257318   6.009   1.636   0.191  0.6655  0.3250 -0.3350
11968TIP3    H157319   6.015   1.583   0.270 -0.6908  0.7477  0.0834
11968TIP3    H257320   6.087   1.691   0.193  1.6888 -1.0823 -0.3795
11969TIP3   OH257321   4.408   0.610  10.717 -0.0457  0.8157 -0.1421
11969TIP3    H157322   4.485   0.597  10.773 -0.8887 -0.9193  0.6812
11969TIP3    H257323   4.334   0.607  10.777 -0.8054  2.0925 -0.9781
11970TIP3   OH257324   1.162   1.941  15.585  0.2140 -0.0000 -0.2672
11970TIP3    H157325   1.070   1.968  15.590  0.0535 -0.4564 -0.6186
11970TIP3    H257326   1.173   1.882  15.659  0.6344  1.2088  0.6523
11971TIP3   OH257327   1.777   4.663   2.908 -0.2505  0.4031  0.1126
11971TIP3    H157328   1.839   4.717   2.859  0.1182 -2.4155 -2.8953
11971TIP3    H257329   1.832   4.610   2.966 -0.1962  0.4888  0.1381
11972TIP3   OH257330   1.556   0.373   4.880  0.2451 -0.6292 -0.1528
11972TIP3    H157331   1.623   0.440   4.892 -0.2234 -0.3790  1.1963
11972TIP3    H257332   1.473   0.417   4.900 -0.2002 -1.2815 -0.5007
11973TIP3   OH257333   4.600   0.395   5.732 -0.3962 -0.1961  0.3374
11973TIP3    H157334   4.675   0.351   5.692  0.3572  0.2971  1.1812
11973TIP3    H257335   4.574   0.461   5.667  0.2717  0.0212  0.2802
11974TIP3   OH257336   3.628   5.663  14.459 -0.1124  0.3025 -0.3245
11974TIP3    H157337   3.716   5.640  14.428  0.2681 -0.0409  0.9553
11974TIP3    H257338   3.642   5.706  14.543 -1.1734  0.1185 -0.0350
11975TIP3   OH257339   0.863   2.896   0.602 -0.2845  0.5756  0.1907
11975TIP3    H157340   0.877   2.882   0.696  1.9808  1.7447  0.1129
11975TIP3    H257341   0.878   2.810   0.562  1.4540  0.5912  0.7147
11976TIP3   OH257342   2.924   4.094  12.230  0.1218 -0.3137  0.5468
11976TIP3    H157343   2.850   4.116  12.286 -0.4124  0.6014 -0.4610
11976TIP3    H257344   3.001   4.127  12.276 -0.2300 -0.1922  1.0512
11977TIP3   OH257345   1.427   4.655  11.156  0.0750  0.2653 -0.2693
11977TIP3    H157346   1.497   4.601  11.118  0.3201  0.8256 -0.6193
11977TIP3    H257347   1.465   4.743  11.162  0.7395 -0.1358  3.0569
11978TIP3   OH257348   2.162   1.989   0.204  0.0311 -0.2249  0.0728
11978TIP3    H157349   2.164   2.084   0.208  0.6124 -0.2091 -0.3477
11978TIP3    H257350   2.138   1.970   0.113 -0.3246 -0.4791  0.2196
11979TIP3   OH257351   2.399   6.451   2.902 -0.7903 -0.6014 -0.2997
11979TIP3    H157352   2.439   6.534   2.877 -1.2448 -0.4267 -0.4529
11979TIP3    H257353   2.456   6.384   2.865 -0.0437 -0.3659  0.4022
11980TIP3   OH257354   1.580   1.050  11.358  0.5297 -0.1405  0.9660
11980TIP3    H157355   1.584   1.054  11.453  1.6610 -1.5153  1.0124
11980TIP3    H257356   1.541   0.964  11.339  2.6865 -1.0159  0.2207
11981TIP3   OH257357   1.431   5.938   1.939 -0.2837  0.0006  0.4674
11981TIP3    H157358   1.423   5.852   1.979  0.7913  0.1299  0.9881
11981TIP3    H257359   1.524   5.959   1.946 -0.2584  0.5103 -1.1075
11982TIP3   OH257360   5.144   4.879   0.725 -0.5004 -0.4920 -0.4654
11982TIP3    H157361   5.210   4.823   0.683  1.0507 -0.9642  2.3388
11982TIP3    H257362   5.079   4.817   0.758 -0.4580 -0.3548 -0.1234
11983TIP3   OH257363   0.878   3.053   5.735  0.3168  0.0692 -0.1983
11983TIP3    H157364   0.960   3.056   5.783 -0.3287  1.3905  0.8937
11983TIP3    H257365   0.836   3.137   5.753 -0.6719 -0.0347 -1.8244
11984TIP3   OH257366   4.451   5.842  15.707  0.5306 -0.1256 -0.1120
11984TIP3    H157367   4.458   5.765  15.650  1.8067 -0.2528  0.1938
11984TIP3    H257368   4.358   5.865  15.705  0.0268 -1.9904  0.2167
11985TIP3   OH257369   1.072   1.011  11.661  0.0952 -0.3519 -0.0758
11985TIP3    H157370   1.026   0.964  11.730 -1.8121 -1.7243 -2.1455
11985TIP3    H257371   1.016   1.087  11.642  1.3188  0.8154  0.7548
11986TIP3   OH257372   3.527   0.378   1.811 -0.0709  0.0002  0.0364
11986TIP3    H157373   3.555   0.419   1.892  1.0083  0.4289 -0.5478
11986TIP3    H257374   3.518   0.450   1.749  0.4362 -0.4801 -0.5999
11987TIP3   OH257375   5.480   4.118   0.401  0.0357 -0.5153  0.1517
11987TIP3    H157376   5.459   4.034   0.362  1.2413 -1.3649  1.2244
11987TIP3    H257377   5.464   4.182   0.332 -0.9052 -1.6166 -0.6843
11988TIP3   OH257378   6.276   1.827   5.404  0.0369  0.1665  0.6879
11988TIP3    H157379   6.282   1.743   5.451 -1.6796 -0.2710  0.1990
11988TIP3    H257380   6.367   1.851   5.386  0.5658 -1.8657  0.4006
11989TIP3   OH257381   6.496   4.667  13.671  0.0459 -0.6339 -0.4978
11989TIP3    H157382   6.493   4.663  13.576  0.0825 -2.1414 -0.4569
11989TIP3    H257383   6.405   4.676  13.698  0.1495  1.4717 -0.6931
11990TIP3   OH257384   4.184   2.896   5.846 -0.6648  0.4471 -0.2208
11990TIP3    H157385   4.278   2.912   5.831 -1.2012  1.5314 -3.0153
11990TIP3    H257386   4.158   2.964   5.907 -0.0298  1.6000 -1.1768
11991TIP3   OH257387   2.255   5.054  11.162 -0.1225 -0.1088  0.0931
11991TIP3    H157388   2.281   5.022  11.248  0.5861  0.3163  0.0439
11991TIP3    H257389   2.256   4.976  11.106  1.4828 -0.0440 -0.0062
11992TIP3   OH257390   2.030   4.901  13.494  0.6491 -0.3869 -0.3608
11992TIP3    H157391   2.045   4.835  13.562  0.7895 -0.6746 -0.6663
11992TIP3    H257392   1.969   4.963  13.533  2.0963  0.4278  0.6707
11993TIP3   OH257393   5.731   6.519   1.387 -0.1325 -0.1893  0.6051
11993TIP3    H157394   5.666   6.559   1.444  0.4447 -0.4352  1.4542
11993TIP3    H257395   5.792   6.475   1.446  1.6516  1.2729 -0.0450
11994TIP3   OH257396   5.561   5.835   1.761 -0.5849  0.2775 -0.3751
11994TIP3    H157397   5.595   5.918   1.795 -1.0385  0.3254 -0.0274
11994TIP3    H257398   5.631   5.772   1.778 -0.9584  0.2067  1.0723
11995TIP3   OH257399   3.573   2.329   3.991  0.6717  0.2317  0.2075
11995TIP3    H157400   3.522   2.405   4.017 -0.3566 -0.8224  1.4543
11995TIP3    H257401   3.628   2.309   4.066 -1.3950 -2.0855  1.2625
11996TIP3   OH257402   4.131   5.753  14.461 -0.1685  0.4224  0.5498
11996TIP3    H157403   4.085   5.831  14.430  0.8051  0.3355 -1.2174
11996TIP3    H257404   4.208   5.786  14.507 -0.6248  0.5235  1.2446
11997TIP3   OH257405   3.911   2.496   1.129 -0.0006 -0.4521 -0.0369
11997TIP3    H157406   3.895   2.509   1.035  2.7081  1.7153 -0.3354
11997TIP3    H257407   3.900   2.583   1.167  1.1386 -0.8478  1.2695
11998TIP3   OH257408   4.076   0.335   4.720  0.4615  0.1173  0.2451
11998TIP3    H157409   3.987   0.369   4.724 -0.2503 -1.6386  0.4163
11998TIP3    H257410   4.123   0.381   4.789 -0.3870  0.8659  0.3349
11999TIP3   OH257411   5.761   4.117  15.150 -0.1346 -0.1888 -0.2582
11999TIP3    H157412   5.728   4.044  15.097 -0.3186  0.4010 -0.9568
11999TIP3    H257413   5.745   4.195  15.097 -0.1724  0.3941  0.5963
12000TIP3   OH257414   0.123   0.148  13.752  0.2837  0.0993 -0.2220
12000TIP3    H157415   0.045   0.189  13.715  1.0237  1.2983 -0.5006
12000TIP3    H257416   0.104   0.141  13.846 -1.6041 -2.9590 -0.7018
12001TIP3   OH257417   1.175   1.534   0.659  0.4866 -0.1122  0.2024
12001TIP3    H157418   1.246   1.493   0.709  1.2222  1.6348  0.6711
12001TIP3    H257419   1.108   1.553   0.725  0.2027 -0.4385  0.0094
12002TIP3   OH257420   0.653   4.903   5.840 -0.7052  0.3426 -0.3107
12002TIP3    H157421   0.735   4.861   5.813 -0.1615  1.9270 -1.2967
12002TIP3    H257422   0.630   4.960   5.766 -2.0016  0.9033  0.4890
12003TIP3   OH257423   2.974   3.988   2.140 -0.1529  0.5743  0.0822
12003TIP3    H157424   2.997   3.898   2.162  1.9264  0.7830 -0.9770
12003TIP3    H257425   3.050   4.039   2.168 -0.3469  1.6945 -1.3387
12004TIP3   OH257426   0.296   6.285   3.636  0.6530  0.3761 -0.4049
12004TIP3    H157427   0.247   6.366   3.647 -0.7333 -0.3289 -1.1983
12004TIP3    H257428   0.362   6.288   3.705 -0.5284  1.3251  0.7295
12005TIP3   OH257429   4.760   1.036  13.411 -0.1060 -0.1910  0.3485
12005TIP3    H157430   4.698   1.088  13.361 -1.4202  0.0919  2.1901
12005TIP3    H257431   4.722   0.948  13.412  1.5669 -1.0396 -1.8370
12006TIP3   OH257432   3.673   6.507   4.049  0.8069 -0.4061 -0.0727
12006TIP3    H157433   3.615   6.457   4.105  0.1090  0.7917  0.3188
12006TIP3    H257434   3.753   6.519   4.101  0.8531 -0.8403 -0.0468
12007TIP3   OH257435   5.296   3.349  13.289 -0.2765  0.0692  0.2222
12007TIP3    H157436   5.217   3.298  13.270 -0.6381  0.3867  0.8029
12007TIP3    H257437   5.358   3.286  13.325 -0.7518  0.0505  1.0243
12008TIP3   OH257438   4.869   0.426  13.966 -0.6065  0.2653 -0.6822
12008TIP3    H157439   4.847   0.457  13.879  1.8234  0.3430 -1.3629
12008TIP3    H257440   4.887   0.332  13.955 -0.9696  0.1177 -0.1044
12009TIP3   OH257441   0.182   3.163   3.487 -0.3141 -0.5360  0.1687
12009TIP3    H157442   0.233   3.127   3.415 -0.8227 -0.5254 -0.2004
12009TIP3    H257443   0.120   3.093   3.511 -0.6951 -0.2466  0.0494
12010TIP3   OH257444   2.310   1.017  12.157 -0.5192 -0.0876 -0.3227
12010TIP3    H157445   2.263   1.051  12.233 -0.7746 -0.0004 -0.5180
12010TIP3    H257446   2.375   1.084  12.136  1.8955 -1.5281  1.8691
12011TIP3   OH257447   4.815   3.183  16.633  0.0174  1.0912 -0.0470
12011TIP3    H157448   4.875   3.225  16.572 -1.3441  1.4169 -1.2297
12011TIP3    H257449   4.745   3.148  16.578  0.2463 -1.2796  1.0612
12012TIP3   OH257450   5.176   6.677  12.626  0.1818 -0.2303 -0.1746
12012TIP3    H157451   5.212   6.765  12.615  0.0393 -0.0606  0.6529
12012TIP3    H257452   5.084   6.685  12.600 -0.3962  0.3833  1.8455
12013TIP3   OH257453   2.982   0.564  17.001 -0.4169  0.6959  0.1705
12013TIP3    H157454   2.905   0.609  16.966 -0.9009  0.5370  1.0006
12013TIP3    H257455   2.946   0.494  17.056  0.3139  0.9251  0.9632
12014TIP3   OH257456   6.045   4.678  13.529  0.2711  0.2183  0.5809
12014TIP3    H157457   6.105   4.643  13.595  0.3151  0.0378  0.4476
12014TIP3    H257458   5.973   4.715  13.580 -0.3501 -1.0985  0.7145
12015TIP3   OH257459   1.163   1.858   5.860 -0.4961  0.1461  0.3214
12015TIP3    H157460   1.072   1.881   5.881 -0.1713  0.3809  1.5567
12015TIP3    H257461   1.203   1.840   5.945  0.6225  0.0845 -0.2067
12016TIP3   OH257462   6.399   4.623   3.166 -0.0697 -0.4817  0.0089
12016TIP3    H157463   6.399   4.719   3.165  2.0030 -0.4104 -1.9370
12016TIP3    H257464   6.458   4.600   3.238  0.0566 -0.2664 -0.0229
12017TIP3   OH257465   6.325   2.634  16.824  0.3131  0.0395 -0.0354
12017TIP3    H157466   6.257   2.691  16.790  0.7891  0.1730 -0.7753
12017TIP3    H257467   6.400   2.691  16.837  0.5831 -0.2875 -0.1317
12018TIP3   OH257468   1.305   2.600   4.552  0.2359  0.4988  0.2831
12018TIP3    H157469   1.348   2.662   4.493 -0.4729  0.1010 -0.6876
12018TIP3    H257470   1.318   2.636   4.639 -0.9558  2.5528 -0.3191
12019TIP3   OH257471   6.044   0.811   3.614  0.0618 -0.0346  0.1672
12019TIP3    H157472   6.129   0.849   3.593 -0.2462 -0.4801 -2.0951
12019TIP3    H257473   6.020   0.760   3.537 -1.8228 -0.7169  1.1333
12020TIP3   OH257474   6.171   2.871  11.788 -0.4965 -0.2648  0.3136
12020TIP3    H157475   6.103   2.822  11.742  1.0247 -0.9874 -1.3060
12020TIP3    H257476   6.242   2.878  11.724  0.1261  2.3561  1.1979
12021TIP3   OH257477   4.712   5.532   2.136  0.0135  0.2906  0.1556
12021TIP3    H157478   4.695   5.438   2.145 -2.8791  0.5924 -0.9380
12021TIP3    H257479   4.635   5.573   2.176  0.1929  2.1174 -1.2629
12022TIP3   OH257480   3.055   3.464   2.253  0.1528  0.3278 -0.3452
12022TIP3    H157481   3.080   3.554   2.232  3.0089 -0.2698  0.1186
12022TIP3    H257482   3.043   3.422   2.167 -2.5400  1.3956 -0.5792
12023TIP3   OH257483   3.188   4.164   3.144 -0.0814 -0.4958 -0.2257
12023TIP3    H157484   3.167   4.249   3.105  1.1928  1.1211  2.3408
12023TIP3    H257485   3.103   4.119   3.152 -0.8298  0.6804 -1.2481
12024TIP3   OH257486   5.036   5.280   5.319  0.0176 -0.0904  0.0155
12024TIP3    H157487   5.056   5.194   5.355  0.1644  0.5159  1.4438
12024TIP3    H257488   5.000   5.262   5.232 -0.8911 -1.6430  0.6714
12025TIP3   OH257489   1.562   6.578   4.654  0.1554 -0.1832  0.1831
12025TIP3    H157490   1.466   6.577   4.652  0.1110  1.6107 -0.5243
12025TIP3    H257491   1.585   6.505   4.712 -1.5955 -1.1938 -0.3048
12026TIP3   OH257492   3.855   4.849  16.848 -0.2998 -0.0372  0.7094
12026TIP3    H157493   3.857   4.770  16.902  1.0176  1.0852  2.3887
12026TIP3    H257494   3.940   4.851  16.805 -0.0356  0.8321  1.2496
12027TIP3   OH257495   5.735   5.316   5.089 -0.1505  0.0808  0.2660
12027TIP3    H157496   5.644   5.342   5.102 -0.3808 -0.2181 -0.6976
12027TIP3    H257497   5.778   5.340   5.171 -0.7430  1.7491  0.1293
12028TIP3   OH257498   2.771   1.357  15.568  0.0593  0.5688 -0.6132
12028TIP3    H157499   2.828   1.288  15.602 -0.3944  0.1278 -0.7282
12028TIP3    H257500   2.814   1.439  15.592 -0.4111  0.2858  1.3415
12029TIP3   OH257501   4.401   3.151   0.788  0.4757  0.3630  0.0877
12029TIP3    H157502   4.338   3.100   0.737  0.2855 -0.3830  1.0215
12029TIP3    H257503   4.428   3.091   0.859  0.4532  1.4736  1.0658
12030TIP3   OH257504   2.444   2.653   1.168 -0.0314  0.0766 -0.7101
12030TIP3    H157505   2.405   2.565   1.167  0.6319 -0.2354 -0.1858
12030TIP3    H257506   2.526   2.642   1.119 -0.3206  0.5921 -1.3184
12031TIP3   OH257507   2.309   5.892   1.307 -0.4710  0.1521 -0.9679
12031TIP3    H157508   2.319   5.799   1.287  0.1420  0.2674 -1.2285
12031TIP3    H257509   2.380   5.934   1.259  0.2482  0.5790  0.4295
12032TIP3   OH257510   6.117   0.833   2.156  0.0731 -0.6587 -0.0027
12032TIP3    H157511   6.151   0.863   2.240  1.6140 -0.0165 -0.8235
12032TIP3    H257512   6.082   0.746   2.174  1.4026 -0.9947  1.0701
12033TIP3   OH257513   4.666   1.927  15.085  0.0541 -0.2308 -0.1609
12033TIP3    H157514   4.630   1.957  15.001  1.1423 -1.2857 -1.0280
12033TIP3    H257515   4.698   2.007  15.126  0.0656  0.2218 -1.0239
12034TIP3   OH257516   4.827   1.828  10.148  0.3592  0.3125 -0.2495
12034TIP3    H157517   4.814   1.734  10.137  0.0692  0.5079 -1.8384
12034TIP3    H257518   4.890   1.835  10.220  0.2807 -1.0850 -0.0120
12035TIP3   OH257519   1.200   0.351   0.680 -0.3078 -0.5788  0.0916
12035TIP3    H157520   1.244   0.313   0.756 -0.9438  0.6963  1.1321
12035TIP3    H257521   1.153   0.277   0.641 -0.0906 -1.2290  1.0196
12036TIP3   OH257522   6.688   4.358  14.333 -0.0677  0.5472  0.2647
12036TIP3    H157523   6.754   4.401  14.388  0.4385 -0.4463  0.4436
12036TIP3    H257524   6.738   4.310  14.268 -0.4563 -2.3432  1.9342
12037TIP3   OH257525   5.865   5.472   5.816 -0.4018 -0.8386 -0.1728
12037TIP3    H157526   5.890   5.507   5.731  0.4544  1.6726  0.9862
12037TIP3    H257527   5.771   5.456   5.810 -0.3755 -0.5439 -1.5265
12038TIP3   OH257528   1.129   5.855   0.117  0.0854 -0.1664 -0.1796
12038TIP3    H157529   1.181   5.780   0.144  0.7733  0.0112 -0.9542
12038TIP3    H257530   1.102   5.897   0.198 -0.4900 -1.3605  0.2698
12039TIP3   OH257531   0.908   1.115   5.321  0.4011 -0.2598  0.1324
12039TIP3    H157532   0.851   1.174   5.370  0.3106 -0.0235 -0.2541
12039TIP3    H257533   0.872   1.113   5.233  0.3750 -0.9311  0.1478
12040TIP3   OH257534   2.432   1.605  15.571  0.2347  0.2886 -0.0986
12040TIP3    H157535   2.470   1.588  15.484 -0.9939 -0.9096 -0.4363
12040TIP3    H257536   2.441   1.522  15.618  1.3715  1.0767  1.1461
12041TIP3   OH257537   5.498   0.148   2.486  0.8466 -0.3671  0.0334
12041TIP3    H157538   5.516   0.225   2.539  0.3885  0.4904 -1.0053
12041TIP3    H257539   5.511   0.177   2.396 -1.8935 -0.7233 -0.5741
12042TIP3   OH257540   2.787   0.912   1.710  0.2978 -0.2079  0.5266
12042TIP3    H157541   2.703   0.950   1.737 -0.0126  0.0322 -0.7143
12042TIP3    H257542   2.839   0.987   1.679  0.7080 -0.4450  0.6311
12043TIP3   OH257543   0.103   2.414   1.124 -0.0045 -0.4664  0.0229
12043TIP3    H157544   0.055   2.344   1.078 -1.0419 -0.6037  1.2675
12043TIP3    H257545   0.132   2.374   1.205  2.1466 -0.3280 -0.6261
12044TIP3   OH257546   2.926   2.827  16.064  0.0284  0.1344 -0.1231
12044TIP3    H157547   3.020   2.809  16.075  0.0064  0.1536  0.0988
12044TIP3    H257548   2.898   2.859  16.149 -0.5939 -1.7005  0.4189
12045TIP3   OH257549   0.656   5.698   0.963  1.0659  0.1152 -0.1051
12045TIP3    H157550   0.676   5.617   1.010 -0.4525 -0.0956  0.2319
12045TIP3    H257551   0.725   5.706   0.898  1.5496 -1.1659  0.2285
12046TIP3   OH257552   3.221   2.919   1.831 -0.2157 -0.2938  0.5367
12046TIP3    H157553   3.164   2.894   1.758  0.8552  1.2505 -0.9362
12046TIP3    H257554   3.243   2.836   1.874 -0.1971 -1.4040 -1.4616
12047TIP3   OH257555   4.862   2.352   4.791 -1.3919  0.4589 -0.3761
12047TIP3    H157556   4.883   2.387   4.878  1.3171 -1.5050 -0.1096
12047TIP3    H257557   4.797   2.284   4.808 -0.0812 -0.6809  0.3687
12048TIP3   OH257558   2.765   1.853  13.379  0.3670 -0.7845  0.4333
12048TIP3    H157559   2.719   1.772  13.399 -0.9411 -0.0462  0.5043
12048TIP3    H257560   2.813   1.835  13.298  2.4397 -2.5103  1.9252
12049TIP3   OH257561   4.498   2.633  11.549  0.2248 -0.0302  0.3099
12049TIP3    H157562   4.468   2.707  11.601  0.2269  0.8295 -0.8856
12049TIP3    H257563   4.489   2.662  11.459  0.6013 -1.3489 -0.1666
12050TIP3   OH257564   3.395   2.300  10.436 -0.1980 -0.2097 -0.4514
12050TIP3    H157565   3.376   2.243  10.362 -0.5087 -0.3600 -0.2558
12050TIP3    H257566   3.350   2.382  10.416  0.3042  0.0019 -0.7662
12051TIP3   OH257567   2.769   5.397  14.813 -0.0328 -0.3203 -0.3961
12051TIP3    H157568   2.803   5.314  14.781 -1.8832 -0.9366 -0.8860
12051TIP3    H257569   2.726   5.436  14.737 -1.4326 -0.1514  0.4522
12052TIP3   OH257570   4.718   6.583  16.864 -0.0011 -0.3037  0.1199
12052TIP3    H157571   4.686   6.502  16.823  1.7943 -1.1337  0.2614
12052TIP3    H257572   4.668   6.590  16.945 -0.8976 -0.7204 -0.3856
12053TIP3   OH257573   6.260   2.088   4.950 -0.1082  1.2981  0.0183
12053TIP3    H157574   6.240   1.997   4.971  0.3611  1.2767  0.4037
12053TIP3    H257575   6.191   2.139   4.994 -0.8280  1.0908 -0.8560
12054TIP3   OH257576   4.344   2.319   4.433  0.1842 -0.3255 -0.0972
12054TIP3    H157577   4.409   2.271   4.382 -0.1112 -0.5980 -0.2209
12054TIP3    H257578   4.333   2.401   4.387  0.9039 -0.0101  0.2711
12055TIP3   OH257579   1.493   5.563   0.638  0.7806 -0.0157  0.0925
12055TIP3    H157580   1.473   5.637   0.696  1.1187  0.0616  0.1140
12055TIP3    H257581   1.449   5.489   0.679 -1.7099  0.6022 -1.2626
12056TIP3   OH257582   5.880   4.497  16.791  0.5189  0.6053 -0.5009
12056TIP3    H157583   5.967   4.465  16.816  0.9873  2.3454  0.2417
12056TIP3    H257584   5.855   4.556  16.862 -1.9785 -1.0161  0.0644
12057TIP3   OH257585   2.299   4.812   5.231  0.0784 -0.1173 -0.1821
12057TIP3    H157586   2.277   4.904   5.247  0.5687 -0.2248  1.2224
12057TIP3    H257587   2.228   4.780   5.175 -0.6010  0.8750  0.0832
12058TIP3   OH257588   5.518   1.493  16.799 -0.2174 -0.1765 -0.3128
12058TIP3    H157589   5.493   1.402  16.814 -0.4684  0.2663  2.2806
12058TIP3    H257590   5.445   1.545  16.830  1.3896  0.9760  1.7963
12059TIP3   OH257591   3.711   2.875   2.667 -0.1189 -0.4391 -0.1505
12059TIP3    H157592   3.698   2.782   2.649  0.6301 -0.3595 -1.2241
12059TIP3    H257593   3.777   2.876   2.737  0.4333 -0.7260 -0.6498
12060TIP3   OH257594   1.574   0.794  10.965  0.5940  0.3812 -0.7762
12060TIP3    H157595   1.482   0.798  10.993  0.0495  3.2398 -2.5841
12060TIP3    H257596   1.580   0.714  10.913 -1.0930  0.5537 -1.2841
12061TIP3   OH257597   5.039   4.855  15.829 -0.0684 -0.4733 -0.2384
12061TIP3    H157598   5.079   4.881  15.746 -1.2246 -0.0857 -0.7076
12061TIP3    H257599   4.996   4.772  15.809 -1.4801  0.2622 -0.4384
12062TIP3   OH257600   5.790   3.636  14.577  0.1047 -0.7159 -0.0858
12062TIP3    H157601   5.800   3.576  14.651 -1.0601 -1.9474 -0.8678
12062TIP3    H257602   5.858   3.610  14.516  0.6022 -0.1809  0.2318
12063TIP3   OH257603   6.523   1.768   3.924 -0.8974  0.7689  0.2088
12063TIP3    H157604   6.575   1.821   3.985 -0.4365  0.0648  0.4423
12063TIP3    H257605   6.568   1.777   3.840  0.4251 -0.8960  0.6821
12064TIP3   OH257606   6.061   2.892   1.530 -0.1777  0.5545  0.1006
12064TIP3    H157607   6.063   2.935   1.444 -1.7482 -0.7748 -0.6755
12064TIP3    H257608   5.968   2.881   1.548  0.1581 -0.1689  1.4754
12065TIP3   OH257609   4.172   5.938  15.709  0.7911 -0.2610 -0.0048
12065TIP3    H157610   4.079   5.927  15.729  0.8708 -2.1771 -0.5025
12065TIP3    H257611   4.203   6.000  15.775 -0.6505 -0.2754  0.7321
12066TIP3   OH257612   5.183   4.723  11.536  0.3002 -0.4868 -0.2598
12066TIP3    H157613   5.093   4.703  11.512 -0.3024  0.7234  0.8287
12066TIP3    H257614   5.175   4.772  11.618  1.8070  1.5483 -1.2482
12067TIP3   OH257615   4.269   1.512   4.088 -0.1579 -0.2422 -0.3727
12067TIP3    H157616   4.229   1.500   4.174  0.6030 -2.0532 -0.2205
12067TIP3    H257617   4.362   1.517   4.105 -0.1390  2.0706 -0.8940
12068TIP3   OH257618   6.636   2.019  15.709 -0.2389  0.0796 -0.2537
12068TIP3    H157619   6.693   2.064  15.772  0.0883  0.2310 -0.6546
12068TIP3    H257620   6.616   2.086  15.644 -1.4166  0.2195  0.2232
12069TIP3   OH257621   3.262   5.351  11.176  0.1786  0.5707 -0.0844
12069TIP3    H157622   3.336   5.291  11.178 -1.2578 -1.3661 -1.1693
12069TIP3    H257623   3.301   5.437  11.158  2.0899 -0.5769 -1.9207
12070TIP3   OH257624   2.036   4.389   5.407  0.4930 -0.7759  0.1272
12070TIP3    H157625   2.077   4.475   5.413  0.1746 -0.4562 -1.6444
12070TIP3    H257626   2.072   4.339   5.480 -2.0535  1.9056  3.5519
12071TIP3   OH257627   0.515   4.604  14.211  0.2933 -0.0532  0.2239
12071TIP3    H157628   0.576   4.571  14.145  0.3407  0.8185 -0.1959
12071TIP3    H257629   0.432   4.562  14.190  0.5151 -0.4745  0.1739
12072TIP3   OH257630   4.249   5.159  16.888  0.4474  0.1287 -0.4447
12072TIP3    H157631   4.292   5.245  16.888  2.3311 -0.7590  0.8316
12072TIP3    H257632   4.309   5.102  16.841  0.0245 -0.8464  0.1627
12073TIP3   OH257633   4.224   5.612  13.304 -0.0715 -0.1943  0.2727
12073TIP3    H157634   4.141   5.645  13.339  0.2363 -0.0694  0.9091
12073TIP3    H257635   4.291   5.663  13.350  0.3522 -0.0129 -0.5277
12074TIP3   OH257636   1.137   0.564  12.447 -0.2244 -0.0016  0.2781
12074TIP3    H157637   1.233   0.567  12.446 -0.1811 -1.0184 -0.8734
12074TIP3    H257638   1.110   0.656  12.445  0.7459  0.2845 -0.8236
12075TIP3   OH257639   5.937   2.491  14.955 -0.1355  0.6333 -0.4423
12075TIP3    H157640   5.920   2.572  14.906  2.3370  1.1302 -0.6240
12075TIP3    H257641   5.965   2.429  14.888  0.7088  0.5097  0.0136
12076TIP3   OH257642   4.285   0.781  11.324  0.1690  0.3471 -0.9091
12076TIP3    H157643   4.216   0.841  11.353 -0.0736  0.2428 -1.2668
12076TIP3    H257644   4.366   0.817  11.362 -0.2135 -0.1346  0.4151
12077TIP3   OH257645   6.182   5.344  15.239  0.0952  0.0903  0.3769
12077TIP3    H157646   6.106   5.292  15.213  0.2407  0.7638 -1.6057
12077TIP3    H257647   6.153   5.393  15.315 -1.2379 -0.1746  0.0604
12078TIP3   OH257648   4.362   4.448   3.329 -0.1944  0.5954 -0.5327
12078TIP3    H157649   4.404   4.391   3.264  0.6813  1.3853 -0.6989
12078TIP3    H257650   4.350   4.393   3.406  0.4999  0.1354 -0.7390
12079TIP3   OH257651   0.639   6.158  12.586 -0.1045  0.3230  0.0223
12079TIP3    H157652   0.719   6.148  12.637  0.8228  1.1400 -1.2307
12079TIP3    H257653   0.665   6.136  12.496 -1.8229 -1.6572 -0.0626
12080TIP3   OH257654   0.422   3.965   3.514 -0.1947  0.1051 -0.1024
12080TIP3    H157655   0.416   3.873   3.490 -1.0916 -0.2303  1.3224
12080TIP3    H257656   0.516   3.985   3.509  0.1621 -1.2301  0.8196
12081TIP3   OH257657   5.924   1.015   4.821  0.0116 -0.5378  0.0400
12081TIP3    H157658   5.962   1.059   4.897  1.6675  1.3604 -1.7686
12081TIP3    H257659   5.842   1.061   4.805 -0.0604 -0.5627  0.3318
12082TIP3   OH257660   2.965   6.058  12.928  0.2552  0.4190 -0.4089
12082TIP3    H157661   2.957   6.143  12.971 -0.4753 -0.5593  1.5365
12082TIP3    H257662   3.028   6.010  12.981  0.2057 -0.4511 -1.1107
12083TIP3   OH257663   2.807   5.206   6.797 -0.2639 -0.0919  0.1616
12083TIP3    H157664   2.884   5.151   6.812 -0.0694 -0.6917 -2.5136
12083TIP3    H257665   2.740   5.146   6.764 -1.1228  0.7947  0.2368
12084TIP3   OH257666   5.229   5.820  11.716 -0.2433  0.2698 -0.3912
12084TIP3    H157667   5.305   5.830  11.659 -0.0006  1.1132  0.0600
12084TIP3    H257668   5.257   5.759  11.784 -0.4621 -0.5665 -1.0373
12085TIP3   OH257669   0.300   4.191   0.208 -0.2016 -0.3707  0.0405
12085TIP3    H157670   0.357   4.226   0.277 -1.4817  3.0047 -0.4114
12085TIP3    H257671   0.249   4.123   0.251  0.9128 -0.2413  1.6829
12086TIP3   OH257672   6.015   1.890  16.802  0.4535  0.4991 -0.3180
12086TIP3    H157673   5.995   1.805  16.843 -0.8196  0.9499  0.0385
12086TIP3    H257674   6.040   1.946  16.875 -0.1782  0.8415 -0.3607
12087TIP3   OH257675   3.868   5.417  15.306  0.5742 -0.5390  0.3148
12087TIP3    H157676   3.795   5.477  15.323  1.1960  0.6345 -0.9887
12087TIP3    H257677   3.828   5.330  15.311 -0.8935  0.0714 -0.2365
12088TIP3   OH257678   1.597   6.222   2.046  0.3161 -0.0816  0.4271
12088TIP3    H157679   1.624   6.253   1.959 -0.9684 -2.7474 -1.0417
12088TIP3    H257680   1.657   6.150   2.066  0.5327  0.4363  1.7425
12089TIP3   OH257681   4.586   2.551  10.815  0.5128 -0.2592  0.0727
12089TIP3    H157682   4.537   2.598  10.882 -1.2846  0.3825 -1.5998
12089TIP3    H257683   4.546   2.577  10.732  2.5765 -1.0891 -1.2831
12090TIP3   OH257684   4.851   6.020  15.846 -0.2756  0.3177  0.6006
12090TIP3    H157685   4.844   5.935  15.804  1.5636  0.5918 -0.3103
12090TIP3    H257686   4.938   6.052  15.823 -0.1290  1.5486  2.6230
12091TIP3   OH257687   5.197   0.016  13.816  0.0213 -0.6621 -0.2996
12091TIP3    H157688   5.142  -0.054  13.849  1.0374 -0.8517  1.0799
12091TIP3    H257689   5.254   0.039  13.889 -0.0820  1.4063 -0.8004
12092TIP3   OH257690   1.042   5.246  10.609 -0.4187  0.1408  0.6770
12092TIP3    H157691   1.009   5.334  10.595  2.5487  1.3122  0.2686
12092TIP3    H257692   1.107   5.255  10.679  0.7777 -1.4677 -0.1458
12093TIP3   OH257693   1.984   0.111  16.595  0.3742 -0.2661 -0.6362
12093TIP3    H157694   1.901   0.074  16.563 -0.0015  0.7695 -0.8923
12093TIP3    H257695   2.050   0.044  16.573 -0.7182 -2.4334  2.0937
12094TIP3   OH257696   3.573   1.366  11.615  0.0980 -0.2530 -0.1204
12094TIP3    H157697   3.519   1.444  11.625 -0.2830 -0.5104 -0.1383
12094TIP3    H257698   3.556   1.314  11.693 -1.7901 -1.5958 -1.3255
12095TIP3   OH257699   2.635   5.749  14.658 -0.0773  0.0731 -0.5922
12095TIP3    H157700   2.637   5.679  14.593 -1.2443  0.0633 -0.6350
12095TIP3    H257701   2.645   5.830  14.607  1.2940 -0.0478 -0.5401
12096TIP3   OH257702   3.725   4.705  12.209 -0.1158 -1.3051  0.5469
12096TIP3    H157703   3.648   4.690  12.265 -1.4191 -0.6832 -1.0108
12096TIP3    H257704   3.766   4.782  12.246 -1.7032 -0.1136 -0.0430
12097TIP3   OH257705   2.382   4.115  13.946 -0.4634  0.3738  0.7528
12097TIP3    H157706   2.350   4.035  13.988 -2.7232  2.1782  2.7240
12097TIP3    H257707   2.320   4.130  13.874 -0.2888  0.5507  0.6404
12098TIP3   OH257708   1.830   3.590   3.749 -0.0287 -0.0773  0.0896
12098TIP3    H157709   1.766   3.661   3.763  0.4933  0.3161  0.5007
12098TIP3    H257710   1.812   3.560   3.660 -0.0609  0.7722 -0.1988
12099TIP3   OH257711   3.344   1.313   4.718  0.0742 -0.2179  0.1942
12099TIP3    H157712   3.358   1.236   4.663  1.7592  1.2552 -1.6230
12099TIP3    H257713   3.431   1.354   4.724 -0.8623  1.8529  0.5347
12100TIP3   OH257714   5.288   1.387  16.345 -0.2505  0.4044 -0.2610
12100TIP3    H157715   5.210   1.339  16.320 -0.3620  0.4624 -0.0290
12100TIP3    H257716   5.344   1.386  16.267 -0.9959  1.3980 -0.8320
12101TIP3   OH257717   4.864   1.771   2.632  0.0469 -0.4375 -0.0535
12101TIP3    H157718   4.824   1.751   2.547  0.3118 -1.6855  0.0913
12101TIP3    H257719   4.949   1.728   2.628 -0.0377 -0.7077  0.9402
12102TIP3   OH257720   5.808   4.787  13.661  0.2603 -0.4258 -0.2773
12102TIP3    H157721   5.826   4.729  13.735 -0.3564 -1.2573 -0.7580
12102TIP3    H257722   5.713   4.789  13.655  0.2858  0.2573 -0.5773
12103TIP3   OH257723   1.052   4.397   3.911 -0.3163 -0.0955 -0.5699
12103TIP3    H157724   1.147   4.396   3.917 -0.3708  1.4204  2.2291
12103TIP3    H257725   1.029   4.313   3.871  2.1602 -0.8792 -0.4648
12104TIP3   OH257726   1.638   0.362   2.237 -0.9913  0.8516 -0.2378
12104TIP3    H157727   1.666   0.375   2.327  1.5311 -1.6315 -0.5094
12104TIP3    H257728   1.542   0.365   2.240 -0.9893  0.3788  2.5979
12105TIP3   OH257729   3.321   0.150  13.803  0.3961 -0.3438 -0.2989
12105TIP3    H157730   3.342   0.144  13.896 -0.7709  0.3702  0.0337
12105TIP3    H257731   3.400   0.120  13.759  0.4295 -2.2816  0.9333
12106TIP3   OH257732   1.409   0.417   0.510  0.7693 -0.1375  0.6813
12106TIP3    H157733   1.446   0.345   0.562  3.0149  0.8024  0.5098
12106TIP3    H257734   1.315   0.413   0.528  0.8519 -2.8631  0.9469
12107TIP3   OH257735   6.630   1.903  12.398 -0.7518  0.7240 -0.1626
12107TIP3    H157736   6.681   1.927  12.321 -0.2375  0.8358  0.2094
12107TIP3    H257737   6.684   1.838  12.444 -0.6355  1.3230  0.5804
12108TIP3   OH257738   3.243   3.343   4.130 -1.0283 -0.1720 -0.4574
12108TIP3    H157739   3.228   3.351   4.036  0.3482  2.3128 -0.5565
12108TIP3    H257740   3.221   3.430   4.165 -0.9671 -0.8743  1.4196
12109TIP3   OH257741   0.276   0.588  12.021  0.1225  0.4307  0.0709
12109TIP3    H157742   0.255   0.502  11.983  3.1277 -0.1502 -0.5374
12109TIP3    H257743   0.235   0.651  11.962  0.0255 -0.5558 -0.9600
12110TIP3   OH257744   3.256   1.468   3.473  1.0594  0.5680 -0.1510
12110TIP3    H157745   3.288   1.426   3.552  1.4365 -1.0411 -1.1068
12110TIP3    H257746   3.333   1.476   3.417  0.1569 -2.7601 -2.2255
12111TIP3   OH257747   5.912   5.489   1.588 -0.0044  0.1998 -0.4451
12111TIP3    H157748   5.987   5.542   1.615 -0.4521  0.3894  0.4659
12111TIP3    H257749   5.922   5.407   1.637 -1.0918  0.7373  0.7281
12112TIP3   OH257750   2.472   0.871   6.666 -1.6247 -0.0948  0.1339
12112TIP3    H157751   2.500   0.962   6.678 -1.4937 -0.0921 -0.1856
12112TIP3    H257752   2.402   0.876   6.600 -0.7324 -0.3640 -0.8550
12113TIP3   OH257753   3.177   2.555  14.151  0.3119  0.2956 -0.2342
12113TIP3    H157754   3.139   2.520  14.071 -1.0300  1.7240 -0.2711
12113TIP3    H257755   3.188   2.649  14.134 -0.0884  0.6507  1.2797
12114TIP3   OH257756   1.395   1.038   0.263 -0.2346  0.2549  0.1107
12114TIP3    H157757   1.338   0.965   0.287  2.6413 -1.4403  2.3255
12114TIP3    H257758   1.346   1.116   0.289 -2.1136 -1.0131  0.5438
12115TIP3   OH257759   5.464   0.358  13.759 -0.2226  0.0350 -0.2810
12115TIP3    H157760   5.379   0.316  13.777 -0.7806  1.3644  0.3665
12115TIP3    H257761   5.455   0.446  13.797  0.5991  1.0420 -2.2644
12116TIP3   OH257762   4.329   2.558   4.264 -0.2707 -0.5890  0.7191
12116TIP3    H157763   4.399   2.613   4.228  0.2146  0.2713  2.8304
12116TIP3    H257764   4.249   2.609   4.250 -0.2064 -0.6131  0.2234
12117TIP3   OH257765   2.335   2.939  13.473 -0.2730  0.8095  0.1145
12117TIP3    H157766   2.323   2.949  13.379 -0.8081  0.4077  0.1371
12117TIP3    H257767   2.429   2.955  13.487 -0.1560  0.6849 -0.5055
12118TIP3   OH257768   2.600   0.090   3.701  0.3000  0.6171  0.2087
12118TIP3    H157769   2.669   0.136   3.750  0.8729  2.0302 -1.7823
12118TIP3    H257770   2.598   0.134   3.616 -1.1321 -1.2560 -0.8009
12119TIP3   OH257771   0.104   5.479  12.174 -0.2614 -0.4164  0.3702
12119TIP3    H157772   0.117   5.430  12.255 -1.3933 -1.2064  0.1030
12119TIP3    H257773   0.010   5.471  12.156 -0.0875  0.0263 -0.8388
12120TIP3   OH257774   6.021   3.219  14.563  0.1069 -0.2346 -0.1988
12120TIP3    H157775   6.086   3.217  14.492  0.0132 -1.4211 -0.2626
12120TIP3    H257776   5.973   3.137  14.555  0.0773 -0.3886  1.2268
12121TIP3   OH257777   2.759   1.263  16.920 -0.7596  0.2238 -0.1348
12121TIP3    H157778   2.833   1.212  16.950 -0.9510  0.6053  1.0277
12121TIP3    H257779   2.691   1.248  16.985 -1.9750 -0.6843 -1.5372
12122TIP3   OH257780   3.886   3.563  14.548 -0.2079 -0.4000 -0.0704
12122TIP3    H157781   3.962   3.566  14.607 -2.7857  1.0660  3.5418
12122TIP3    H257782   3.860   3.655  14.537 -1.9117 -0.9019 -0.5855
12123TIP3   OH257783   5.614   6.229   5.758  0.0671  0.4524  0.0571
12123TIP3    H157784   5.682   6.203   5.695  0.5091 -1.7566  1.3352
12123TIP3    H257785   5.614   6.325   5.755  2.7226  0.5192 -0.5542
12124TIP3   OH257786   6.697   0.193   4.235 -0.2220  0.1414  0.6024
12124TIP3    H157787   6.626   0.256   4.228  0.4403  0.7964 -0.5054
12124TIP3    H257788   6.760   0.234   4.294 -0.3234 -0.0230  0.8294
12125TIP3   OH257789   5.412   0.952  14.775 -0.1753 -0.2656  0.1647
12125TIP3    H157790   5.489   0.896  14.779 -0.3183 -0.4123  2.2872
12125TIP3    H257791   5.351   0.906  14.718 -0.7338 -2.9642  2.6657
12126TIP3   OH257792   5.370   3.623  15.483 -0.4194 -0.5638 -0.4605
12126TIP3    H157793   5.328   3.631  15.397  0.9842 -0.6695 -1.1805
12126TIP3    H257794   5.300   3.645  15.546 -0.8663  1.9256 -1.7019
12127TIP3   OH257795   0.548   2.731   1.442 -0.0973  0.3816 -0.2109
12127TIP3    H157796   0.571   2.638   1.449 -1.3127  0.0506 -0.3329
12127TIP3    H257797   0.624   2.772   1.401  0.3119 -0.6257 -0.4830
12128TIP3   OH257798   1.035   4.346   6.380  0.0650  0.0113 -0.2147
12128TIP3    H157799   1.025   4.287   6.454 -1.3055  0.6919  0.1701
12128TIP3    H257800   0.999   4.429   6.409  0.2140  0.5215 -1.3894
12129TIP3   OH257801   4.187   6.274   0.996 -0.1358 -0.3297  0.2391
12129TIP3    H157802   4.177   6.357   0.951  1.7102 -0.1647  0.0378
12129TIP3    H257803   4.258   6.288   1.058  0.3178 -1.7773  0.1019
12130TIP3   OH257804   0.137   2.731  16.376  0.1966 -0.0589 -0.0456
12130TIP3    H157805   0.066   2.794  16.370  1.1674  0.9585 -1.2978
12130TIP3    H257806   0.096   2.647  16.356 -0.6962  0.4873 -0.5610
12131TIP3   OH257807   3.110   4.512   4.484 -0.1575 -0.1721 -0.0325
12131TIP3    H157808   3.025   4.498   4.442 -0.1855  0.3597 -0.1677
12131TIP3    H257809   3.089   4.542   4.572 -0.1445  0.9831 -0.3945
12132TIP3   OH257810   0.916   1.794   4.825 -0.5392 -0.4155 -0.0617
12132TIP3    H157811   0.857   1.837   4.887 -1.2384 -1.9844  0.3962
12132TIP3    H257812   0.861   1.729   4.781  0.2309 -0.1328 -1.5200
12133TIP3   OH257813   5.372   6.192  15.615  0.7606 -0.2055 -0.2681
12133TIP3    H157814   5.459   6.223  15.592  0.2514  1.8338  0.3600
12133TIP3    H257815   5.319   6.207  15.537  0.1735  2.0655  0.4878
12134TIP3   OH257816   6.100   3.067  12.608  0.0650 -0.1475  0.2873
12134TIP3    H157817   6.089   3.080  12.703  1.3580 -0.5041  0.5113
12134TIP3    H257818   6.138   2.980  12.600  1.6804  0.5677 -0.4035
12135TIP3   OH257819   5.934   4.572   2.057 -0.3674  0.0670  0.8274
12135TIP3    H157820   5.898   4.525   1.983  0.5641 -0.0134  0.4159
12135TIP3    H257821   6.026   4.545   2.061 -0.2062  0.6752  1.5163
12136TIP3   OH257822   0.504   4.295   2.567  0.6191 -0.0296 -0.0591
12136TIP3    H157823   0.569   4.355   2.531  1.3280 -0.2533  0.8274
12136TIP3    H257824   0.547   4.209   2.563  0.4975 -0.1380  0.7867
12137TIP3   OH257825   5.878   1.656   3.938 -0.0788  0.3004 -0.3090
12137TIP3    H157826   5.909   1.744   3.959  0.3947  0.2889 -0.9230
12137TIP3    H257827   5.948   1.618   3.885 -0.3234 -0.4137 -0.1311
12138TIP3   OH257828   6.145   0.517   4.985  0.6336 -0.3267  0.1860
12138TIP3    H157829   6.064   0.467   4.991  1.3611 -1.4206  1.4550
12138TIP3    H257830   6.117   0.603   4.954 -0.9473 -0.8125  0.1576
12139TIP3   OH257831   1.702   0.136  15.489  0.3264  0.0027  0.2425
12139TIP3    H157832   1.611   0.151  15.463  0.8518  0.5579 -1.3758
12139TIP3    H257833   1.711   0.186  15.571 -1.0649 -0.8459  0.9540
12140TIP3   OH257834   1.971   1.465   0.230 -0.0922  0.5294  0.0432
12140TIP3    H157835   1.992   1.526   0.159  1.1687  2.4956  1.9934
12140TIP3    H257836   2.012   1.383   0.202  0.0191  1.1170 -1.6808
12141TIP3   OH257837   4.656   2.301   2.621 -0.0245  0.1296 -0.3884
12141TIP3    H157838   4.670   2.243   2.546  2.7874  1.1258 -0.7360
12141TIP3    H257839   4.587   2.361   2.592  0.4734  0.0158 -1.8972
12142TIP3   OH257840   5.556   2.958  14.726 -0.3765  0.1773  0.4809
12142TIP3    H157841   5.634   2.933  14.775 -1.5206 -1.1140  1.7479
12142TIP3    H257842   5.485   2.952  14.790 -1.4853  1.6617 -0.5382
12143TIP3   OH257843   0.133   2.239  17.328  0.0017  0.3520 -0.3305
12143TIP3    H157844   0.114   2.307  17.263 -1.2759  1.1139  0.7963
12143TIP3    H257845   0.102   2.158  17.288 -0.4491  0.7585 -0.8193
12144TIP3   OH257846   2.390   2.382   4.133  0.1716  0.0715  0.0023
12144TIP3    H157847   2.338   2.363   4.211 -2.6662  1.2455 -1.4510
12144TIP3    H257848   2.340   2.449   4.087  2.2781  0.1802 -2.3336
12145TIP3   OH257849   3.115   3.054  10.357 -0.0384 -0.2241  0.0500
12145TIP3    H157850   3.127   3.143  10.325 -2.1153  0.1199  0.0436
12145TIP3    H257851   3.088   3.064  10.448 -1.6867 -0.7072 -0.3386
12146TIP3   OH257852   5.932   2.716   2.307  0.4325 -0.3797  0.0097
12146TIP3    H157853   6.018   2.675   2.305 -0.3504 -2.1424 -0.3324
12146TIP3    H257854   5.924   2.753   2.395  1.0982 -1.2243  0.4389
12147TIP3   OH257855   5.431   2.137  16.787  0.0608  0.1126  0.2508
12147TIP3    H157856   5.478   2.202  16.839 -0.3871 -0.9847  2.1108
12147TIP3    H257857   5.489   2.061  16.786 -0.4330 -0.2682  0.1339
12148TIP3   OH257858   4.038   6.199   4.760  0.2280 -0.1439 -0.3951
12148TIP3    H157859   4.063   6.192   4.853 -0.1275  1.5123 -0.1443
12148TIP3    H257860   3.952   6.157   4.756 -0.4335  1.0741  0.3588
12149TIP3   OH257861   4.681   2.303  14.363  0.0675  0.2571  0.5627
12149TIP3    H157862   4.588   2.290  14.382 -0.3283  0.8640 -0.8677
12149TIP3    H257863   4.699   2.244  14.290  0.2501  1.7227 -0.6153
12150TIP3   OH257864   1.688   5.832   1.178  0.7867  0.2540 -0.2730
12150TIP3    H157865   1.769   5.805   1.135  0.4639 -0.9506 -0.1608
12150TIP3    H257866   1.684   5.779   1.257 -1.6272 -2.0781 -1.7750
12151TIP3   OH257867   2.057   3.305  12.829  0.4756 -0.1973  0.0120
12151TIP3    H157868   2.075   3.216  12.799  1.1507  0.0912 -0.4788
12151TIP3    H257869   2.128   3.357  12.792  0.2134  0.5096  0.4815
12152TIP3   OH257870   3.465   5.368  14.711 -0.0666  0.3030 -0.1557
12152TIP3    H157871   3.559   5.353  14.700  0.2064  0.8906  1.1432
12152TIP3    H257872   3.449   5.452  14.669 -0.0523  0.0974 -0.5722
12153TIP3   OH257873   3.451   5.980  14.122 -0.5284  0.1889  0.4976
12153TIP3    H157874   3.486   6.016  14.204 -1.2869 -0.2515  1.0220
12153TIP3    H257875   3.458   5.885  14.133 -1.5181  0.1060  0.4443
12154TIP3   OH257876   1.634   4.304  13.718  0.1839  1.0516 -0.1471
12154TIP3    H157877   1.630   4.211  13.697  0.8911  1.4748 -2.4022
12154TIP3    H257878   1.690   4.309  13.795 -1.7486 -0.5462  1.4683
12155TIP3   OH257879   4.077   4.911  16.058 -0.2073 -0.1885  0.4623
12155TIP3    H157880   4.082   4.823  16.021  0.8342  0.0765 -0.0509
12155TIP3    H257881   4.000   4.908  16.114 -0.7022 -1.1664 -0.2315
12156TIP3   OH257882   2.557   5.116  15.672 -0.2108 -0.5132 -0.2189
12156TIP3    H157883   2.605   5.063  15.608  0.6694 -0.7642  0.6085
12156TIP3    H257884   2.573   5.207  15.646 -0.2050 -0.6265 -0.6032
12157TIP3   OH257885   2.249   3.629  13.429 -0.4966 -0.7449 -0.2551
12157TIP3    H157886   2.201   3.546  13.432 -0.5948 -0.8524 -2.7246
12157TIP3    H257887   2.200   3.683  13.366  1.2292  0.0583 -0.9829
12158TIP3   OH257888   0.402   4.498  13.291 -0.0235 -0.1845  0.9842
12158TIP3    H157889   0.378   4.423  13.345 -1.2424 -1.1895 -0.8372
12158TIP3    H257890   0.475   4.467  13.238 -0.6936 -0.2034  0.0463
12159TIP3   OH257891   2.849   5.668   2.844 -0.5049 -0.0376 -0.0063
12159TIP3    H157892   2.936   5.656   2.882 -0.7129  1.3930  1.0059
12159TIP3    H257893   2.865   5.703   2.757 -0.0632 -0.9040 -0.2849
12160TIP3   OH257894   6.749   4.535  12.225  0.2250 -0.1185  0.0367
12160TIP3    H157895   6.793   4.454  12.199  1.2049  1.2300 -2.9324
12160TIP3    H257896   6.695   4.558  12.150 -3.2548 -0.0289  2.3625
12161TIP3   OH257897   0.296   5.317   1.454 -0.2738 -0.1217 -0.1623
12161TIP3    H157898   0.243   5.237   1.453 -0.7724  0.1699 -1.8792
12161TIP3    H257899   0.385   5.287   1.469 -0.5097 -0.9683 -0.3966
12162TIP3   OH257900   0.461   3.483   5.347 -0.1953  0.6159 -0.3670
12162TIP3    H157901   0.551   3.456   5.331 -0.7126 -1.5804  0.0221
12162TIP3    H257902   0.468   3.556   5.407  1.3512  1.4530 -1.4870
12163TIP3   OH257903   5.569   3.654   6.118  0.7187 -0.0786  0.0421
12163TIP3    H157904   5.546   3.626   6.207  0.2767 -0.0323 -0.0524
12163TIP3    H257905   5.661   3.631   6.108  0.6309 -0.5798  0.3247
12164TIP3   OH257906   2.227   3.563   2.856 -0.0294  0.1854  0.7283
12164TIP3    H157907   2.225   3.636   2.794 -0.5535  0.3221  0.8950
12164TIP3    H257908   2.272   3.493   2.810  0.0124  0.4441  0.3708
12165TIP3   OH257909   6.100   1.865  13.869  0.1495  0.2602  0.1082
12165TIP3    H157910   6.134   1.914  13.794 -0.5197 -0.0357 -0.3966
12165TIP3    H257911   6.131   1.914  13.945  0.2278  0.9768 -0.3714
12166TIP3   OH257912   3.290   4.751  17.121 -0.1598  0.2432 -0.5144
12166TIP3    H157913   3.355   4.695  17.078 -0.6137 -0.1722 -0.6697
12166TIP3    H257914   3.324   4.840  17.110  1.0935 -0.0587  0.6208
12167TIP3   OH257915   6.388   3.620  13.730 -0.2094  0.2760  0.2827
12167TIP3    H157916   6.427   3.609  13.643 -0.7754  0.0602  0.0519
12167TIP3    H257917   6.294   3.610  13.715 -0.1695 -2.9097  1.3903
12168TIP3   OH257918   5.866   4.619   0.356 -0.2980  0.3488 -0.2257
12168TIP3    H157919   5.792   4.669   0.323 -1.4104 -0.3733  1.0731
12168TIP3    H257920   5.910   4.678   0.417 -0.6261  0.3179  0.0440
12169TIP3   OH257921   0.006   0.409  16.721 -0.5608 -0.3196  0.3619
12169TIP3    H157922  -0.062   0.400  16.655  0.8373 -0.2626 -1.1687
12169TIP3    H257923   0.054   0.488  16.695  0.4073 -0.6481  1.0836
12170TIP3   OH257924   0.704   3.333  11.287  0.0384  0.0103 -0.1666
12170TIP3    H157925   0.709   3.378  11.203 -0.8467 -0.0512 -0.2639
12170TIP3    H257926   0.725   3.400  11.352 -2.7178  1.0398 -0.1900
12171TIP3   OH257927   2.094   2.093   4.220 -0.2810  0.3821 -0.1427
12171TIP3    H157928   2.181   2.082   4.183 -0.4314  2.9709 -1.4778
12171TIP3    H257929   2.108   2.116   4.311  0.2419 -1.9362  0.4439
12172TIP3   OH257930   1.631   3.194   0.695  0.4077 -0.3780 -0.1188
12172TIP3    H157931   1.704   3.211   0.634  0.8767 -1.0887  0.2294
12172TIP3    H257932   1.558   3.172   0.638  0.3019  0.8641 -0.4969
12173TIP3   OH257933   4.588   1.884   0.674  0.2809 -0.2539  0.2754
12173TIP3    H157934   4.564   1.861   0.764  1.7848  0.6442  0.9464
12173TIP3    H257935   4.681   1.906   0.679  0.4354 -0.3585 -1.5488
12174TIP3   OH257936   1.525   2.075   0.594 -0.0853 -0.0228  0.4690
12174TIP3    H157937   1.611   2.040   0.615  0.4768 -0.0590 -1.6489
12174TIP3    H257938   1.544   2.157   0.548 -1.2150  0.3912  0.7204
12175TIP3   OH257939   1.813   4.820   0.996  0.7209 -0.1517 -0.2661
12175TIP3    H157940   1.783   4.818   1.087  3.4126  0.8022  0.7584
12175TIP3    H257941   1.757   4.757   0.951 -2.2406  1.0282  1.4978
12176TIP3   OH257942   4.808   1.009  17.248  0.0096 -0.0288  0.0371
12176TIP3    H157943   4.795   1.071  17.176  0.2087 -1.5670 -1.3673
12176TIP3    H257944   4.896   0.975  17.235  0.3647  0.2448  1.5148
12177TIP3   OH257945   6.313   6.326  15.893  0.0145 -0.7563 -0.0856
12177TIP3    H157946   6.274   6.362  15.813  0.6974 -0.1682 -0.1671
12177TIP3    H257947   6.324   6.233  15.875  1.2493 -0.4342 -1.1527
12178TIP3   OH257948   1.519   4.204  15.894  0.0437 -0.4412 -0.5265
12178TIP3    H157949   1.513   4.175  15.803  0.2351 -0.1690 -0.6266
12178TIP3    H257950   1.455   4.274  15.901  1.8389  1.3582 -1.1642
12179TIP3   OH257951   3.754   1.291   5.608 -0.2139 -0.3322  0.3064
12179TIP3    H157952   3.725   1.200   5.617 -0.7532 -0.2340 -0.3472
12179TIP3    H257953   3.815   1.304   5.680  0.5023 -1.4604 -0.0760
12180TIP3   OH257954   3.105   6.731   0.391  0.4362 -0.1274 -0.8156
12180TIP3    H157955   3.017   6.747   0.356 -0.1917  1.1013  1.1521
12180TIP3    H257956   3.106   6.777   0.475  2.2044 -2.0185  0.2972
12181TIP3   OH257957   4.179   5.672   0.951  0.1253 -0.0996 -0.6603
12181TIP3    H157958   4.145   5.751   0.993 -2.9521  0.0269 -3.0718
12181TIP3    H257959   4.272   5.689   0.940  0.0688  1.9700  1.3214
12182TIP3   OH257960   4.133   4.986   0.519 -0.5835 -0.4933  0.1400
12182TIP3    H157961   4.189   4.919   0.481  0.1926 -0.3751  1.0223
12182TIP3    H257962   4.140   5.060   0.460 -0.9250 -0.9608 -0.4958
12183TIP3   OH257963   4.987   5.615  10.828 -0.4268  0.4997  0.6326
12183TIP3    H157964   5.057   5.568  10.875 -0.0418  2.6637  2.4021
12183TIP3    H257965   4.913   5.613  10.888 -0.5248  1.7355  0.5826
12184TIP3   OH257966   5.914   1.988   4.609  0.3455  0.0901  0.4460
12184TIP3    H157967   5.953   1.950   4.687  0.8911  2.5146  1.4429
12184TIP3    H257968   5.828   1.946   4.601  1.4609 -2.3653  0.5542
12185TIP3   OH257969   4.031   3.083  12.904 -0.9367 -0.2221  0.5412
12185TIP3    H157970   4.037   3.141  12.980  0.9141  1.5859 -0.8932
12185TIP3    H257971   3.956   3.116  12.854  0.3792  1.3391 -0.5023
12186TIP3   OH257972   0.697   5.043   6.071  0.6148  0.7982  0.0578
12186TIP3    H157973   0.767   4.995   6.116  1.3384  0.0124 -1.8335
12186TIP3    H257974   0.685   4.997   5.988 -2.7657  0.3860  0.6335
12187TIP3   OH257975   6.046   2.105  17.020  0.1157 -0.2151 -0.0234
12187TIP3    H157976   5.956   2.082  17.041  0.0031 -0.7014 -0.9911
12187TIP3    H257977   6.039   2.173  16.953  0.4480 -1.0190 -0.9034
12188TIP3   OH257978   1.745   3.864  12.108  0.1035  0.1193  0.3812
12188TIP3    H157979   1.669   3.830  12.154 -1.3518  1.1772 -1.1350
12188TIP3    H257980   1.710   3.904  12.028  2.3799 -0.5036 -1.0343
12189TIP3   OH257981   3.089   3.935   4.425  0.1925  0.5729 -0.2305
12189TIP3    H157982   3.115   4.019   4.464  1.6708 -0.5751  1.4159
12189TIP3    H257983   3.003   3.917   4.464  1.3278 -0.2045  2.1254
12190TIP3   OH257984   4.557   3.281   1.843 -0.4154  0.3629 -0.2889
12190TIP3    H157985   4.564   3.364   1.889  0.0325  0.6134 -0.8078
12190TIP3    H257986   4.554   3.215   1.912 -0.2947  0.7749  0.1077
12191TIP3   OH257987   5.818   1.910   5.459  0.4937 -0.4257 -0.1308
12191TIP3    H157988   5.892   1.943   5.509 -0.0322  0.4135  0.1183
12191TIP3    H257989   5.753   1.885   5.525 -0.2134  0.7124 -0.3647
12192TIP3   OH257990   1.758   6.386   0.659 -0.7914  0.2415 -0.3257
12192TIP3    H157991   1.665   6.371   0.644 -0.8334 -0.5575  0.6471
12192TIP3    H257992   1.767   6.395   0.754  0.1632 -0.0006 -0.3751
12193TIP3   OH257993   1.186   4.292  16.493 -0.3680  0.2494 -1.0561
12193TIP3    H157994   1.226   4.359  16.548 -0.9131  0.6886 -1.1952
12193TIP3    H257995   1.193   4.211  16.544 -2.8771  1.0126  0.6731
12194TIP3   OH257996   3.572   3.361   1.148 -0.0627  0.2048  0.0988
12194TIP3    H157997   3.521   3.291   1.188  0.8297 -1.0007 -0.7986
12194TIP3    H257998   3.523   3.441   1.167 -0.6162 -0.5383  1.9641
12195TIP3   OH257999   0.429   1.582  13.209  0.1073 -0.5576 -0.5474
12195TIP3    H158000   0.437   1.656  13.149  0.9520 -0.2270 -0.0317
12195TIP3    H258001   0.381   1.515  13.159 -2.0781  0.8752 -0.5204
12196TIP3   OH258002   0.838   2.067   3.807 -0.4425 -0.1342  0.3482
12196TIP3    H158003   0.797   2.019   3.878 -1.4319 -0.2274 -0.2608
12196TIP3    H258004   0.868   2.000   3.746 -4.1181 -0.1205 -1.7913
12197TIP3   OH258005   4.451   2.855  11.727 -0.1200 -1.0830 -0.4812
12197TIP3    H158006   4.465   2.916  11.655 -1.4307 -2.7900 -2.2711
12197TIP3    H258007   4.423   2.910  11.800  1.5604  0.7379 -1.1063
12198TIP3   OH258008   5.422   4.477  12.903 -0.4016  0.6785  0.2052
12198TIP3    H158009   5.378   4.409  12.852 -0.5709  0.9611 -0.0262
12198TIP3    H258010   5.402   4.559  12.858  0.0379  0.8539  0.3204
12199TIP3   OH258011   1.781   2.069   4.334  0.2177 -0.3725  0.2540
12199TIP3    H158012   1.806   2.146   4.282 -1.3434  0.9108  1.3202
12199TIP3    H258013   1.809   2.091   4.423  0.2327 -1.2882  0.4825
12200TIP3   OH258014   0.497   2.664  15.296  0.2551  0.1486  0.2386
12200TIP3    H158015   0.405   2.673  15.323  0.3045 -0.0439  0.4748
12200TIP3    H258016   0.545   2.656  15.379  0.5189  0.5601  0.1305
12201TIP3   OH258017   6.240   5.465  14.373  0.3530  0.0182 -0.2712
12201TIP3    H158018   6.333   5.472  14.394 -0.1085  0.2672  1.8939
12201TIP3    H258019   6.236   5.485  14.279  2.3129  1.5122 -0.1176
12202TIP3   OH258020   4.116   3.969   4.122 -0.0828 -0.5809  0.0692
12202TIP3    H158021   4.189   3.917   4.155 -0.5190 -1.4897 -0.3448
12202TIP3    H258022   4.102   3.935   4.033  0.4229  1.1126 -0.7011
12203TIP3   OH258023   2.280   6.087   3.055 -0.1336 -0.2113 -0.5740
12203TIP3    H158024   2.341   6.014   3.047  0.0600 -0.1349  0.1598
12203TIP3    H258025   2.221   6.077   2.979  0.4384 -0.6045 -0.9754
12204TIP3   OH258026   2.663   0.435   1.258 -0.3111  0.6050 -0.4842
12204TIP3    H158027   2.741   0.438   1.203  1.5164 -3.0255  1.5530
12204TIP3    H258028   2.602   0.379   1.210  0.5327 -0.9517  0.1576
12205TIP3   OH258029   0.853   4.020   5.645  0.2140 -0.1900 -0.0157
12205TIP3    H158030   0.824   4.072   5.721 -0.2307 -0.1185 -0.2315
12205TIP3    H258031   0.785   3.952   5.636  0.6405 -0.6372  0.0869
12206TIP3   OH258032   4.816   5.489   4.711 -0.1584 -0.0969 -0.2213
12206TIP3    H158033   4.750   5.540   4.665 -0.9933 -1.4081 -0.5334
12206TIP3    H258034   4.827   5.535   4.795  0.7676  1.8256 -1.3327
12207TIP3   OH258035   1.238   4.337  17.037  0.3728  0.6255  0.3769
12207TIP3    H158036   1.159   4.374  17.077  0.7112  0.8366  0.8625
12207TIP3    H258037   1.303   4.407  17.043 -0.1920  1.5983 -2.7181
12208TIP3   OH258038   5.909   1.126  13.208  0.5516  0.7603  0.3067
12208TIP3    H158039   5.922   1.217  13.235 -0.1056  0.5442  1.3916
12208TIP3    H258040   5.968   1.076  13.265  0.2547  0.4281  0.3214
12209TIP3   OH258041   5.318   1.508  17.323  0.2278 -0.6119  0.3971
12209TIP3    H158042   5.245   1.504  17.386  0.7510 -1.4534  0.9809
12209TIP3    H258043   5.394   1.528  17.377  0.3627  0.7533 -0.2766
12210TIP3   OH258044   3.996   5.982  11.737  0.3075  0.0424  0.4533
12210TIP3    H158045   3.914   5.943  11.708 -0.4257  2.2076 -0.6630
12210TIP3    H258046   3.969   6.047  11.802  0.6994  2.6854 -1.8296
12211TIP3   OH258047   1.597   3.554   3.516 -0.2122 -0.7032  0.3211
12211TIP3    H158048   1.586   3.635   3.465 -1.5651 -1.1372 -0.1129
12211TIP3    H258049   1.517   3.548   3.569 -0.3294 -1.9953  0.0171
12212TIP3   OH258050   4.154   2.103   4.172 -0.4103  0.2139 -0.3604
12212TIP3    H158051   4.145   2.051   4.252 -2.0419  1.5898  0.4325
12212TIP3    H258052   4.247   2.099   4.150 -0.3780 -2.5247 -0.0395
12213TIP3   OH258053   5.097   5.082  13.731  0.2140 -0.4887 -0.2265
12213TIP3    H158054   5.159   5.136  13.682  1.5184 -0.1839  1.6888
12213TIP3    H258055   5.151   5.020  13.779 -0.9105 -0.0527  1.6977
12214TIP3   OH258056   3.588   3.814  14.112 -0.1049 -0.4183 -0.1788
12214TIP3    H158057   3.520   3.864  14.066 -0.0447  0.1263  0.3081
12214TIP3    H258058   3.616   3.872  14.183  0.0706 -1.0934  0.3127
12215TIP3   OH258059   0.652   0.610   2.387 -0.5001 -0.2064  0.1732
12215TIP3    H158060   0.557   0.603   2.384 -0.4811 -0.5714  0.3060
12215TIP3    H258061   0.669   0.687   2.440 -0.7166 -1.3373  1.9840
12216TIP3   OH258062   0.762   4.131  13.408  0.3548 -0.1978 -0.3699
12216TIP3    H158063   0.820   4.207  13.403  1.0376 -0.6328  0.6432
12216TIP3    H258064   0.802   4.066  13.351 -0.4112  0.2983 -1.5035
12217TIP3   OH258065   2.537   5.371  11.950  0.0636  0.8471  0.2272
12217TIP3    H158066   2.609   5.313  11.926 -0.3588  0.8266 -1.0817
12217TIP3    H258067   2.574   5.459  11.945  0.8425  0.7281  2.7007
12218TIP3   OH258068   1.018   5.045  12.010 -0.3329  0.1258  0.4096
12218TIP3    H158069   1.077   4.988  12.060 -1.3087 -1.9733 -0.6664
12218TIP3    H258070   1.058   5.048  11.922 -1.0202 -0.0794  0.0825
12219TIP3   OH258071   3.619   1.584  13.135  0.6159 -0.5846  0.2576
12219TIP3    H158072   3.628   1.658  13.195  2.0953 -0.8999  0.4490
12219TIP3    H258073   3.579   1.622  13.056  4.0640  1.1398 -0.8454
12220TIP3   OH258074   0.626   5.361  15.254 -0.4840 -0.2814  0.7336
12220TIP3    H158075   0.547   5.308  15.263 -0.2239 -0.8403 -0.1175
12220TIP3    H258076   0.695   5.298  15.234 -0.1328  0.3492 -0.1098
12221TIP3   OH258077   3.464   6.364  10.708 -0.1969 -0.1370  0.2235
12221TIP3    H158078   3.420   6.380  10.624 -1.0675  3.1684  1.1451
12221TIP3    H258079   3.405   6.402  10.773  1.7730 -0.0417  2.0403
12222TIP3   OH258080   0.071   3.457   1.274  0.6983 -0.2175 -0.6326
12222TIP3    H158081   0.008   3.459   1.201 -1.1997  0.5444  0.9122
12222TIP3    H258082   0.088   3.550   1.293  0.2596 -0.3688  0.5894
12223TIP3   OH258083   4.376   5.387  12.016 -0.1414 -0.0940  0.1587
12223TIP3    H158084   4.315   5.427  11.955 -0.5095 -0.5730  0.2018
12223TIP3    H258085   4.356   5.293  12.011  0.4752 -0.2344  0.2982
12224TIP3   OH258086   1.540   3.011  15.529 -0.0071 -0.0055  0.3745
12224TIP3    H158087   1.609   3.050  15.476 -1.7053  0.9214 -1.3164
12224TIP3    H258088   1.546   2.917  15.511  1.6221 -0.1021  1.3237
12225TIP3   OH258089   1.746   1.850  13.681 -0.0238 -0.5417 -0.0830
12225TIP3    H158090   1.731   1.782  13.614  0.3471 -0.4816 -0.2278
12225TIP3    H258091   1.841   1.860  13.684 -0.0557 -0.3569  0.2705
12226TIP3   OH258092   6.411   1.403  15.162  0.5397 -0.8873  0.4561
12226TIP3    H158093   6.507   1.396  15.157  0.7794  1.6581 -0.1218
12226TIP3    H258094   6.393   1.494  15.137 -1.9864 -1.0819  1.3193
12227TIP3   OH258095   4.779   2.517  16.175 -0.6618  0.2951 -0.7189
12227TIP3    H158096   4.868   2.516  16.139 -0.8135  0.2033 -1.0908
12227TIP3    H258097   4.728   2.464  16.114 -0.5780 -1.2786  0.5132
12228TIP3   OH258098   1.850   0.082   4.607 -0.2121 -0.4441  0.2054
12228TIP3    H158099   1.851   0.166   4.561 -0.2969 -0.3382  0.3957
12228TIP3    H258100   1.778   0.090   4.670 -0.7590 -0.9660 -0.3415
12229TIP3   OH258101   1.006   0.703  13.798 -0.0673  0.0906  0.0707
12229TIP3    H158102   1.056   0.753  13.733 -0.0821  2.0966  1.4992
12229TIP3    H258103   1.072   0.677  13.863 -0.1505 -1.3917 -0.4048
12230TIP3   OH258104   4.776   1.606   5.402  0.7768  0.0349 -0.3085
12230TIP3    H158105   4.837   1.617   5.475  0.1156  0.8399  0.1317
12230TIP3    H258106   4.761   1.695   5.369 -0.3924 -0.1100 -0.2154
12231TIP3   OH258107   5.988   5.747  16.094  0.2030  0.3285 -0.1240
12231TIP3    H158108   5.980   5.651  16.099  0.2104  0.3122 -0.4031
12231TIP3    H258109   6.040   5.771  16.171  0.0714  0.1231  0.0313
12232TIP3   OH258110   4.307   4.712   6.256 -0.6229  0.2976 -0.1551
12232TIP3    H158111   4.330   4.619   6.263 -0.7441  0.3422  1.1629
12232TIP3    H258112   4.223   4.719   6.300 -0.2767  1.1513  0.4015
12233TIP3   OH258113   4.554   2.231   5.592  0.2606 -0.1520 -0.3730
12233TIP3    H158114   4.499   2.199   5.664  1.6852 -4.3205 -0.8523
12233TIP3    H258115   4.636   2.256   5.635  0.5213 -1.0310 -0.3378
12234TIP3   OH258116   2.295   1.410  12.526  0.1546  0.3394 -0.0595
12234TIP3    H158117   2.352   1.342  12.563 -0.1060  1.5271  2.7924
12234TIP3    H258118   2.216   1.407  12.580 -1.4905  0.4056 -2.3432
12235TIP3   OH258119   6.515   2.122  11.171  0.0891  0.1661  0.4114
12235TIP3    H158120   6.420   2.130  11.160 -0.1207 -1.9380  0.1872
12235TIP3    H258121   6.525   2.080  11.256  0.9663  2.2606  1.4032
12236TIP3   OH258122   6.085   0.537  13.535  0.1353 -0.3809 -0.6237
12236TIP3    H158123   6.004   0.488  13.522 -0.4048  0.1079  0.7496
12236TIP3    H258124   6.087   0.556  13.628  0.2014  2.4226 -1.1139
12237TIP3   OH258125   0.066   1.127  15.053 -0.0414  0.2346 -0.3264
12237TIP3    H158126   0.001   1.064  15.021  0.8945 -0.1684 -1.5523
12237TIP3    H258127   0.015   1.203  15.080 -1.2139 -1.0766  1.3151
12238TIP3   OH258128   4.031   1.082  12.013  0.0943  0.0383  0.0665
12238TIP3    H158129   3.959   1.131  11.974  0.6852  0.0914 -0.9926
12238TIP3    H258130   4.092   1.068  11.941  0.9208 -0.4254  0.8399
12239TIP3   OH258131   3.556   0.262   3.797  0.1180  0.3236 -0.0003
12239TIP3    H158132   3.608   0.256   3.878  2.4432 -0.4232 -1.4399
12239TIP3    H258133   3.511   0.178   3.792 -0.1816  0.4432  0.5994
12240TIP3   OH258134   0.955   4.984   4.397  0.1350  0.6020 -0.3411
12240TIP3    H158135   0.938   5.000   4.490  0.1038  0.5215 -0.3323
12240TIP3    H258136   0.869   4.987   4.356  0.1093  0.3129 -0.3156
12241TIP3   OH258137   5.108   3.896   0.104 -1.0990  0.2791 -0.3735
12241TIP3    H158138   5.136   3.917   0.015  0.1274  0.3303  0.0025
12241TIP3    H258139   5.059   3.973   0.133  0.9168  1.5020 -0.0211
12242TIP3   OH258140   3.991   5.130   0.748 -0.1957 -0.3448  0.0709
12242TIP3    H158141   3.985   5.062   0.681  1.2338 -1.2513  0.8213
12242TIP3    H258142   4.083   5.157   0.746 -0.4771  0.7030  0.6369
12243TIP3   OH258143   3.946   1.254  13.592 -0.3777 -0.0941  0.2763
12243TIP3    H158144   3.995   1.325  13.548  1.0820 -0.9692  0.4062
12243TIP3    H258145   3.964   1.266  13.685 -1.6035  0.4037  0.4670
12244TIP3   OH258146   5.606   4.083  14.152 -0.2782  0.5249  0.5265
12244TIP3    H158147   5.514   4.076  14.178 -0.8312  1.9460 -0.9318
12244TIP3    H258148   5.606   4.060  14.059  1.0450 -0.6243  0.7851
12245TIP3   OH258149   4.231   6.461   4.782 -0.1817 -0.3241  0.2256
12245TIP3    H158150   4.313   6.416   4.806 -0.1522 -0.1005  0.5600
12245TIP3    H258151   4.216   6.522   4.855 -0.1549  0.2974 -0.2829
12246TIP3   OH258152   5.666   4.203   0.164 -0.6512  0.1474 -0.1114
12246TIP3    H158153   5.573   4.224   0.167 -0.2835  1.8787  0.4429
12246TIP3    H258154   5.676   4.130   0.226 -1.3166  1.4644  1.6416
12247TIP3   OH258155   6.349   4.179  13.082  0.2400 -0.1431 -0.1942
12247TIP3    H158156   6.255   4.181  13.064  0.0964 -0.5288  0.4867
12247TIP3    H258157   6.390   4.176  12.995 -0.3399  0.8588 -0.5160
12248TIP3   OH258158   2.578   1.825   0.214  0.5180 -0.2759  0.0916
12248TIP3    H158159   2.664   1.801   0.180  0.8117  0.4300  0.3393
12248TIP3    H258160   2.518   1.802   0.143  0.9389 -0.4785 -0.2044
12249TIP3   OH258161   0.646   3.170  17.084  0.2729 -0.4441 -1.1562
12249TIP3    H158162   0.705   3.191  17.011 -1.1738  2.0214 -1.7232
12249TIP3    H258163   0.624   3.255  17.122 -0.2216 -1.5638  1.2496
12250TIP3   OH258164   6.544   2.514   3.746  0.4760  0.4418 -0.0259
12250TIP3    H158165   6.589   2.591   3.780 -1.2541  1.1344  0.8255
12250TIP3    H258166   6.556   2.519   3.652  2.7062  0.2124  0.1881
12251TIP3   OH258167   0.883   5.969  16.999  0.4077 -0.4357  0.2736
12251TIP3    H158168   0.815   6.023  17.039 -0.4682 -0.6825 -0.8466
12251TIP3    H258169   0.836   5.898  16.956  1.4078 -0.8297 -0.2061
12252TIP3   OH258170   6.474   0.845   4.586 -0.9903 -0.4352  0.0138
12252TIP3    H158171   6.390   0.868   4.625 -0.2516  2.7923  0.0100
12252TIP3    H258172   6.539   0.869   4.652  0.0895  1.6877 -1.6672
12253TIP3   OH258173   6.547   0.309  12.281 -0.3288  0.0364 -0.4055
12253TIP3    H158174   6.622   0.257  12.254  1.3239  1.3939  1.2910
12253TIP3    H258175   6.501   0.329  12.200  0.1864 -2.2082 -1.3100
12254TIP3   OH258176   4.624   2.394  14.645 -0.3012 -0.4993 -0.2625
12254TIP3    H158177   4.714   2.424  14.661 -1.1398  1.8369  0.4521
12254TIP3    H258178   4.631   2.341  14.566  1.6128  0.2464 -0.6546
12255TIP3   OH258179   1.612   2.397   5.887 -0.6891  0.5675 -0.5287
12255TIP3    H158180   1.648   2.405   5.798  2.3204  4.0220  0.7240
12255TIP3    H258181   1.676   2.345   5.935 -0.1735  1.9911  0.4190
12256TIP3   OH258182   3.772   0.824   0.690 -0.0012  0.4219  0.0515
12256TIP3    H158183   3.779   0.917   0.668 -2.5728  0.2629 -1.8640
12256TIP3    H258184   3.849   0.784   0.649  0.8098  1.5742  0.3866
12257TIP3   OH258185   6.304   6.462   4.954 -0.1893  0.0857 -0.0833
12257TIP3    H158186   6.358   6.450   4.876  0.7609 -1.6256  0.7881
12257TIP3    H258187   6.288   6.373   4.986 -2.8866  0.5974  0.1480
12258TIP3   OH258188   1.229   4.100   3.982 -0.2744 -0.3058  0.2571
12258TIP3    H158189   1.307   4.097   4.036 -0.9819 -1.1222  1.2783
12258TIP3    H258190   1.191   4.187   4.000 -0.1946 -0.3454  0.6332
12259TIP3   OH258191   1.711   5.642   4.067 -0.0176  0.3316  0.0572
12259TIP3    H158192   1.727   5.700   3.993  1.6585  0.6868  0.6550
12259TIP3    H258193   1.676   5.562   4.028 -0.9085  1.1764 -0.9225
12260TIP3   OH258194   1.261   3.847   2.965 -0.6533  0.1462 -0.6903
12260TIP3    H158195   1.314   3.772   2.937  0.3304  0.2361  0.8525
12260TIP3    H258196   1.325   3.916   2.983 -1.0393 -0.3021  3.0145
12261TIP3   OH258197   6.548   3.702   3.793 -0.2029  0.2554 -0.7040
12261TIP3    H158198   6.545   3.791   3.828 -1.2305 -0.0649  0.0478
12261TIP3    H258199   6.520   3.646   3.865  2.9622 -0.9878 -0.2982
12262TIP3   OH258200   4.219   1.377   0.266  0.3112 -0.6342 -0.2046
12262TIP3    H158201   4.275   1.405   0.339  1.2197  1.4751 -1.5992
12262TIP3    H258202   4.279   1.330   0.207 -0.4783 -2.5840  0.4769
12263TIP3   OH258203   5.448   2.254   1.050 -0.6596  0.2679 -0.3936
12263TIP3    H158204   5.449   2.306   1.131  0.7047 -0.0804 -0.1597
12263TIP3    H258205   5.507   2.180   1.068 -1.7417 -0.8001 -1.0890
12264TIP3   OH258206   2.199   5.639   0.198 -0.8008  0.4698  0.1931
12264TIP3    H158207   2.188   5.549   0.226  2.6424  0.2174  1.1865
12264TIP3    H258208   2.235   5.632   0.109 -0.9078  0.8684  0.1158
12265TIP3   OH258209   1.112   0.111  14.006 -0.0799 -0.2392  0.1751
12265TIP3    H158210   1.173   0.084  13.938 -1.1067 -3.8106  0.4555
12265TIP3    H258211   1.159   0.094  14.088  0.0984  1.2283  0.3916
12266TIP3   OH258212   5.787   3.274  14.429  0.4974  0.3382 -0.3059
12266TIP3    H158213   5.865   3.246  14.476  0.0231 -1.2172 -0.4031
12266TIP3    H258214   5.714   3.240  14.481 -0.1639  2.1689  0.0431
12267TIP3   OH258215   3.666   0.120  11.381 -0.0810 -0.7083  0.0660
12267TIP3    H158216   3.626   0.152  11.300  1.3140  1.4574  0.1544
12267TIP3    H258217   3.617   0.164  11.451  0.1051 -0.9121  0.3291
12268TIP3   OH258218   4.190   4.694  15.183  0.2518  0.0250 -0.2342
12268TIP3    H158219   4.229   4.779  15.201 -0.8904  0.3935  0.6200
12268TIP3    H258220   4.124   4.683  15.251  0.6420 -1.7231 -0.0973
12269TIP3   OH258221   1.172   3.855  13.908 -0.1537  0.1493 -0.2029
12269TIP3    H158222   1.220   3.906  13.972 -0.9182  0.5231  0.0900
12269TIP3    H258223   1.221   3.866  13.827  0.1117  0.7215  0.0290
12270TIP3   OH258224   3.444   2.787  12.480  0.1960 -0.3227  0.5613
12270TIP3    H158225   3.479   2.699  12.490 -0.8556 -0.8283 -0.0720
12270TIP3    H258226   3.349   2.776  12.479 -0.0157  1.0050  2.0843
12271TIP3   OH258227   4.432   6.342   4.977 -0.5814 -0.5529  0.1886
12271TIP3    H158228   4.489   6.327   5.053  0.9339 -1.1617 -1.0000
12271TIP3    H258229   4.369   6.270   4.980 -0.5163 -0.5897  0.8439
12272TIP3   OH258230   0.249   6.614   4.303  0.4499  0.2478  0.3542
12272TIP3    H158231   0.321   6.551   4.307  1.4869  1.4474  1.8890
12272TIP3    H258232   0.235   6.629   4.209  1.1816 -1.1111  0.0037
12273TIP3   OH258233   4.921   1.678   5.623  0.4077 -0.5075  0.1024
12273TIP3    H158234   5.004   1.716   5.651 -0.1051  1.0335 -0.3592
12273TIP3    H258235   4.933   1.583   5.632  2.4433 -0.3634 -0.5980
12274TIP3   OH258236   4.477   6.305   1.955 -0.4817 -0.0963 -0.4344
12274TIP3    H158237   4.405   6.292   2.017 -1.1058  0.6953 -0.9764
12274TIP3    H258238   4.477   6.399   1.938  1.9881  0.2738  1.1105
12275TIP3   OH258239   0.985   1.597  14.256 -0.0766  0.1300  0.0532
12275TIP3    H158240   1.002   1.673  14.311 -0.1110  1.3045 -1.4790
12275TIP3    H258241   1.021   1.621  14.170 -2.6565 -0.3327 -1.2800
12276TIP3   OH258242   3.873   3.069   0.334 -0.2272 -0.1185 -0.1400
12276TIP3    H158243   3.794   3.092   0.284  0.9276  1.1407 -1.4595
12276TIP3    H258244   3.846   3.078   0.425 -1.5160  0.6426 -0.5610
12277TIP3   OH258245   5.769   3.139   6.453  0.1342  0.4660 -0.1730
12277TIP3    H158246   5.773   3.043   6.459  0.8512  0.4007 -1.3052
12277TIP3    H258247   5.858   3.165   6.433 -0.1371  1.3477 -0.2630
12278TIP3   OH258248   6.599   0.855   5.647  0.3138  0.2115 -0.5002
12278TIP3    H158249   6.565   0.798   5.716  1.6398  0.5817  0.5061
12278TIP3    H258250   6.623   0.936   5.692 -0.3380  1.0972 -1.6986
12279TIP3   OH258251   1.041   0.740   4.345 -0.3300 -0.0417  0.3209
12279TIP3    H158252   1.078   0.686   4.275 -2.0472 -0.9323  0.0710
12279TIP3    H258253   0.948   0.746   4.325 -1.0963 -1.1962  3.0715
12280TIP3   OH258254   1.427   5.987   2.698  0.1456 -0.6711  0.8239
12280TIP3    H158255   1.408   5.905   2.743 -0.3202 -1.5251 -0.8403
12280TIP3    H258256   1.397   5.973   2.608 -1.4472  1.8791  0.8513
12281TIP3   OH258257   5.984   4.488   0.140 -0.3422  0.0673 -0.2671
12281TIP3    H158258   5.965   4.547   0.066  0.5956  0.6607 -0.0485
12281TIP3    H258259   5.934   4.525   0.213  0.0688  0.4640 -0.1859
12282TIP3   OH258260   0.325   5.133  15.081 -0.2879 -0.5696 -0.0463
12282TIP3    H158261   0.355   5.223  15.086 -1.9639  0.0567 -0.5468
12282TIP3    H258262   0.397   5.085  15.041 -0.7497  1.2860 -3.4493
12283TIP3   OH258263   5.149   1.616   5.069  0.2018 -0.6244  0.3166
12283TIP3    H158264   5.123   1.524   5.064 -0.9762 -0.3204  0.6022
12283TIP3    H258265   5.139   1.639   5.162  0.3213 -0.1610  0.2199
12284TIP3   OH258266   1.877   1.571   3.352  0.2961  0.0832 -0.2349
12284TIP3    H158267   1.915   1.524   3.427  0.4300  1.8573  0.8704
12284TIP3    H258268   1.784   1.550   3.355  0.4671 -0.7264 -0.2540
12285TIP3   OH258269   0.310   5.183  16.940  0.2620 -0.9969  0.7419
12285TIP3    H158270   0.353   5.134  16.870  0.0619 -1.8855  1.2238
12285TIP3    H258271   0.370   5.176  17.014  0.1836 -0.5918  0.8427
12286TIP3   OH258272   3.476   3.537   3.029 -0.0514 -0.2062  0.1849
12286TIP3    H158273   3.571   3.545   3.034 -0.2261  3.2779  1.0468
12286TIP3    H258274   3.451   3.502   3.115  0.4308 -0.7441  0.1110
12287TIP3   OH258275   5.295   2.800   3.536 -0.3599  0.1887 -0.2929
12287TIP3    H158276   5.328   2.889   3.528  0.0141  0.0312 -0.5430
12287TIP3    H258277   5.263   2.779   3.448  1.7555 -0.7679 -0.9172
12288TIP3   OH258278   4.530   1.000   3.357  0.2314 -0.3573 -0.7470
12288TIP3    H158279   4.442   0.962   3.369 -0.7232  2.0940  0.7919
12288TIP3    H258280   4.546   1.047   3.439  1.5432  2.0084 -2.2799
12289TIP3   OH258281   0.159   4.293   1.231  0.0699 -0.3777  0.1748
12289TIP3    H158282   0.171   4.388   1.226  0.3007 -0.4597 -1.1341
12289TIP3    H258283   0.083   4.282   1.287 -0.1317  0.5992  0.1193
12290TIP3   OH258284   0.320   2.369  15.538  0.4912 -0.5200 -0.0870
12290TIP3    H158285   0.241   2.423  15.532  1.2762  0.5444 -1.4938
12290TIP3    H258286   0.326   2.326  15.452  0.2485 -2.3853  0.7767
12291TIP3   OH258287   2.394   5.888  12.103 -0.3448 -0.5315  0.3034
12291TIP3    H158288   2.362   5.960  12.049 -0.5758 -0.5266  0.4451
12291TIP3    H258289   2.489   5.893  12.095 -0.3558 -0.1622  0.3740
12292TIP3   OH258290   6.269   3.510   2.312  0.5829  0.5564 -0.4587
12292TIP3    H158291   6.226   3.558   2.382 -1.8160  1.1363 -2.2068
12292TIP3    H258292   6.211   3.437   2.293  2.1009 -0.6495 -0.6674
12293TIP3   OH258293   0.424   6.610   3.921  0.1558 -0.1881 -0.1629
12293TIP3    H158294   0.410   6.663   3.999  0.0313  1.9809 -1.5521
12293TIP3    H258295   0.381   6.527   3.940  0.4030  0.1464  2.1659
12294TIP3   OH258296   3.096   5.820  11.911  0.4746  0.1123  0.4600
12294TIP3    H158297   3.111   5.738  11.865 -0.1258  0.6073 -0.6737
12294TIP3    H258298   3.181   5.864  11.910  0.7105 -0.3354  0.7476
12295TIP3   OH258299   1.329   5.210  17.089 -0.0977  0.4247 -0.2392
12295TIP3    H158300   1.404   5.252  17.131 -0.2852  0.2203  0.3127
12295TIP3    H258301   1.253   5.241  17.137 -0.3851  0.7261 -0.8752
12296TIP3   OH258302   4.902   4.394  12.067 -0.1494 -0.0578  0.3518
12296TIP3    H158303   4.849   4.326  12.109 -2.9792  1.0504 -1.1896
12296TIP3    H258304   4.915   4.362  11.977 -1.5233  1.3316 -0.3980
12297TIP3   OH258305   6.532   1.072   4.424  0.3814 -0.0311  0.3181
12297TIP3    H158306   6.530   0.990   4.473 -0.3481 -0.7188 -0.8224
12297TIP3    H258307   6.607   1.063   4.366 -0.5289 -0.5291 -0.8238
12298TIP3   OH258308   0.850   1.096  16.423  0.3142  0.6028 -0.1146
12298TIP3    H158309   0.794   1.126  16.494 -1.2646  3.1242 -2.2092
12298TIP3    H258310   0.939   1.113  16.453 -0.2930  1.2428  1.3957
12299TIP3   OH258311   0.880   3.158   1.799 -0.3491 -0.0750 -0.4930
12299TIP3    H158312   0.869   3.164   1.894 -0.5943  0.1301 -0.5322
12299TIP3    H258313   0.965   3.114   1.787  0.9667  2.2125 -0.1669
12300TIP3   OH258314   3.350   5.904  11.398 -0.0383  0.1104 -0.0496
12300TIP3    H158315   3.402   5.842  11.346  0.7862  1.7320 -1.2595
12300TIP3    H258316   3.282   5.850  11.438  1.0299 -1.6738 -0.5087
12301TIP3   OH258317   5.778   2.394  16.486  0.0775  0.0150  0.1228
12301TIP3    H158318   5.775   2.371  16.579 -1.2746  0.8061  0.2932
12301TIP3    H258319   5.794   2.488  16.485  0.7909 -0.1060 -0.4720
12302TIP3   OH258320   4.624   5.471  16.309 -0.2539  0.1235  0.0268
12302TIP3    H158321   4.681   5.399  16.333  1.6965  1.3806 -0.5672
12302TIP3    H258322   4.654   5.498  16.223 -0.4745  2.0519  0.5005
12303TIP3   OH258323   5.467   2.255  10.676 -0.4895 -0.2981 -0.2000
12303TIP3    H158324   5.420   2.320  10.624  0.9661  1.6582  0.7860
12303TIP3    H258325   5.558   2.283  10.673  0.5486 -3.3694 -1.1881
12304TIP3   OH258326   1.499   1.706  10.857 -0.1166  0.1856  0.0024
12304TIP3    H158327   1.479   1.735  10.768 -0.1622  0.5523  0.1313
12304TIP3    H258328   1.431   1.642  10.876  0.1601 -0.2332 -0.3946
12305TIP3   OH258329   3.053   4.182   4.748  0.3381 -0.9303  0.6262
12305TIP3    H158330   3.117   4.197   4.819  0.5795 -0.3487  0.2957
12305TIP3    H258331   3.101   4.204   4.668 -0.5513  0.4294  0.4427
12306TIP3   OH258332   1.904   4.868   5.572  0.4529 -0.5156  0.3130
12306TIP3    H158333   1.895   4.795   5.511  0.8610  0.6340 -1.1723
12306TIP3    H258334   1.998   4.876   5.586  0.4808  0.3590 -0.3358
12307TIP3   OH258335   5.239   3.134  15.103  0.1119 -0.1182  0.0507
12307TIP3    H158336   5.185   3.056  15.090 -0.6775  0.2773  0.8913
12307TIP3    H258337   5.323   3.111  15.064 -0.4307 -1.0133 -0.6253
12308TIP3   OH258338   4.231   6.020   4.028 -0.7410 -0.1938 -0.3412
12308TIP3    H158339   4.198   6.056   3.945 -3.2799 -2.7003 -0.5700
12308TIP3    H258340   4.278   5.941   4.003  0.6472  0.3465  0.4791
12309TIP3   OH258341   0.463   4.072   6.011 -0.0340 -0.0205 -0.3205
12309TIP3    H158342   0.443   4.063   6.104 -1.4147 -3.7410 -0.8144
12309TIP3    H258343   0.480   4.165   5.999  0.8493  0.5287  3.7322
12310TIP3   OH258344   2.125   5.768  17.079 -0.4449  1.2337 -0.9315
12310TIP3    H158345   2.172   5.696  17.038  0.2687  2.4398 -2.3027
12310TIP3    H258346   2.033   5.751  17.060 -0.3762  0.2197 -0.4363
12311TIP3   OH258347   2.418   1.225   0.122  0.3143 -0.1674 -0.4763
12311TIP3    H158348   2.336   1.269   0.097  1.5225  1.7797 -1.2425
12311TIP3    H258349   2.389   1.147   0.170 -1.9834  0.2952 -0.9572
12312TIP3   OH258350   4.303   4.386  17.257  0.6477 -0.0367 -0.5531
12312TIP3    H158351   4.276   4.382  17.165 -0.4015 -0.5228 -0.2391
12312TIP3    H258352   4.397   4.373  17.255  0.4999 -1.1024 -1.4854
12313TIP3   OH258353   0.388   3.673  13.030 -0.5872  0.6598  0.3050
12313TIP3    H158354   0.444   3.601  13.062  0.3506  0.9840 -0.5354
12313TIP3    H258355   0.339   3.634  12.957  0.0219  0.8882 -0.2389
12314TIP3   OH258356   0.915   4.543   3.528 -0.2193 -0.3812  0.1725
12314TIP3    H158357   0.906   4.570   3.436  1.1360 -0.2053  0.0719
12314TIP3    H258358   0.878   4.455   3.531 -1.6549  0.1767 -0.2039
12315TIP3   OH258359   1.781   5.244   5.310 -0.0535  0.1274 -0.2775
12315TIP3    H158360   1.754   5.301   5.382 -1.0810 -1.0336  0.2962
12315TIP3    H258361   1.792   5.302   5.236  0.7310  1.3170  0.7421
12316TIP3   OH258362   1.205   1.946   5.429 -0.0320 -0.0247 -0.5202
12316TIP3    H158363   1.271   1.917   5.367  0.8820 -0.1649  0.4866
12316TIP3    H258364   1.160   1.866   5.456  0.4190 -0.1321 -0.0672
12317TIP3   OH258365   0.357   5.015   4.892 -0.0963 -0.4119 -0.3024
12317TIP3    H158366   0.352   5.093   4.947  0.4093 -0.4660 -0.1731
12317TIP3    H258367   0.273   5.011   4.847 -1.6393 -1.8004  2.4406
12318TIP3   OH258368   1.119   3.423   5.742  0.0916  0.0187  0.0661
12318TIP3    H158369   1.206   3.424   5.782 -0.4780 -0.2805  1.3751
12318TIP3    H258370   1.069   3.361   5.795 -0.6050 -0.6975 -1.3839
12319TIP3   OH258371   6.657   6.239   3.932 -0.3246 -0.3695 -0.5564
12319TIP3    H158372   6.722   6.170   3.919 -1.0403 -0.9275 -1.3643
12319TIP3    H258373   6.652   6.283   3.847 -1.4456 -0.7650 -0.7228
12320TIP3   OH258374   2.348   3.974   1.890 -0.2091 -0.5626 -0.0614
12320TIP3    H158375   2.311   4.004   1.807  1.0970  0.8120 -0.1972
12320TIP3    H258376   2.440   3.998   1.885  0.3140 -2.1276  1.0513
12321TIP3   OH258377   2.257   2.636   5.644  0.4588  0.5576 -0.5268
12321TIP3    H158378   2.225   2.674   5.725 -0.6832 -0.0092 -0.6936
12321TIP3    H258379   2.205   2.679   5.575 -1.0069 -1.3561 -0.7064
12322TIP3   OH258380   1.503   6.035   5.140 -0.3241 -0.0259 -0.2519
12322TIP3    H158381   1.443   5.999   5.206  0.3936 -1.6663 -0.4375
12322TIP3    H258382   1.452   6.033   5.058 -0.0167 -1.5314 -0.4334
12323TIP3   OH258383   4.308   4.127  16.366  0.8035 -0.2224  0.3235
12323TIP3    H158384   4.324   4.182  16.443  2.1115  0.2550 -0.2492
12323TIP3    H258385   4.330   4.184  16.292 -0.0503 -0.7998 -0.3936
12324TIP3   OH258386   0.189   4.412   5.466 -0.6723 -0.4952 -0.3428
12324TIP3    H158387   0.122   4.369   5.412 -1.0539  1.9110 -1.9310
12324TIP3    H258388   0.271   4.399   5.416 -1.0152  1.6780 -1.5742
12325TIP3   OH258389   1.221   2.934   0.430 -0.2218 -0.5990 -0.3443
12325TIP3    H158390   1.261   2.875   0.494 -0.1126 -1.7246 -1.4291
12325TIP3    H258391   1.187   3.006   0.483 -0.6570 -1.7837  1.0586
12326TIP3   OH258392   5.501   6.327  12.798 -0.5649 -0.0145 -0.1243
12326TIP3    H158393   5.548   6.410  12.802 -1.4399  0.4938 -0.0653
12326TIP3    H258394   5.433   6.342  12.732 -2.6266  0.3358  1.9653
12327TIP3   OH258395   2.344   3.044  10.539 -0.5091  0.3928  0.2222
12327TIP3    H158396   2.351   3.119  10.597 -1.9283  0.8640 -0.1728
12327TIP3    H258397   2.429   3.038  10.496 -0.5559  2.1540 -0.1857
12328TIP3   OH258398   5.686   5.809  16.236 -0.3881 -0.2046 -0.5094
12328TIP3    H158399   5.747   5.736  16.248  0.3485  0.0816 -2.2971
12328TIP3    H258400   5.651   5.825  16.324  1.9235 -0.5471  0.5411
12329TIP3   OH258401   5.228   1.981   0.037  0.3559  0.3266  0.2922
12329TIP3    H158402   5.223   2.074   0.057  1.2118 -0.0344  2.4104
12329TIP3    H258403   5.200   1.975  -0.054  3.2328  3.0469 -0.9711
12330TIP3   OH258404   1.627   3.246  11.981  0.0202 -0.3916  0.5933
12330TIP3    H158405   1.595   3.328  12.019  0.7827 -0.3285  1.1162
12330TIP3    H258406   1.565   3.180  12.011 -0.8125  0.0367 -0.1302
12331TIP3   OH258407   0.619   0.408  15.494 -1.1994 -0.1218  0.7327
12331TIP3    H158408   0.533   0.369  15.479 -1.8930  0.8456  2.0136
12331TIP3    H258409   0.608   0.500  15.470 -0.3287 -0.1245  0.2850
12332TIP3   OH258410   2.194   0.330   2.924 -0.2982 -0.0110  0.2868
12332TIP3    H158411   2.253   0.314   2.850 -1.4979 -0.7666 -0.5458
12332TIP3    H258412   2.202   0.252   2.978  0.7360  0.6311  1.1013
12333TIP3   OH258413   5.716   4.319   0.983 -0.0067 -0.1716 -0.7438
12333TIP3    H158414   5.654   4.324   0.909  0.7871 -0.6596 -1.4545
12333TIP3    H258415   5.772   4.244   0.963 -0.4489 -0.9983  0.8977
12334TIP3   OH258416   5.670   1.271  13.958  0.1986  0.1720 -0.1692
12334TIP3    H158417   5.670   1.354  14.006  0.6017  1.1675 -1.7763
12334TIP3    H258418   5.676   1.298  13.866  1.0208 -1.6680 -0.6954
12335TIP3   OH258419   4.443   2.787   4.622  0.1437 -0.3067 -0.0095
12335TIP3    H158420   4.349   2.780   4.637  0.4839 -1.8883  1.7729
12335TIP3    H258421   4.475   2.697   4.626  1.7125  0.1850 -0.7604
12336TIP3   OH258422   0.661   1.061   1.536  0.3252 -0.2538 -0.6719
12336TIP3    H158423   0.732   1.117   1.568 -1.1240  0.6917  1.0431
12336TIP3    H258424   0.611   1.038   1.614 -0.8014 -1.5882 -1.7348
12337TIP3   OH258425   1.691   1.154  13.189 -0.2573  0.1473 -0.3449
12337TIP3    H158426   1.639   1.221  13.232  0.3880  0.9120 -0.7217
12337TIP3    H258427   1.771   1.199  13.163  0.7104 -1.0557  0.4400
12338TIP3   OH258428   1.549   4.556  13.930  0.0209  0.3214  0.0964
12338TIP3    H158429   1.614   4.617  13.894  0.6148 -0.2850  0.1191
12338TIP3    H258430   1.598   4.475  13.944 -0.9219 -0.3887 -0.6084
12339TIP3   OH258431   4.929   5.625   3.719  0.0191  0.6306 -0.2441
12339TIP3    H158432   4.907   5.717   3.705 -0.2759  1.2833  3.4504
12339TIP3    H258433   4.996   5.627   3.787 -0.2522 -1.9182  0.1817
12340TIP3   OH258434   5.686   1.667   3.474 -0.4675  0.0581 -1.0303
12340TIP3    H158435   5.685   1.761   3.457  1.9315  0.7569  1.8797
12340TIP3    H258436   5.619   1.653   3.540 -0.3642 -0.1346 -0.9635
12341TIP3   OH258437   1.930   2.026  16.065 -0.2501 -0.1198  0.5895
12341TIP3    H158438   1.846   2.069  16.079  0.9509  2.1635  1.4323
12341TIP3    H258439   1.909   1.948  16.014 -2.9524 -0.1026  1.5003
12342TIP3   OH258440   3.778   1.561   4.401  0.1626 -0.4323  0.3153
12342TIP3    H158441   3.749   1.596   4.317 -0.2637 -0.0563  0.6137
12342TIP3    H258442   3.824   1.480   4.379 -3.1754 -2.4395 -0.0531
12343TIP3   OH258443   0.139   2.702  15.261  0.2269  0.6824 -0.0536
12343TIP3    H158444   0.064   2.726  15.206  1.3692  3.1309 -0.6791
12343TIP3    H258445   0.100   2.657  15.336 -1.8286  1.3718 -0.6231
12344TIP3   OH258446   1.258   1.748  11.413 -0.5029  0.3609 -0.0313
12344TIP3    H158447   1.194   1.817  11.425 -0.2715  0.8567 -1.3827
12344TIP3    H258448   1.266   1.740  11.318 -0.2944 -1.3174  0.1006
12345TIP3   OH258449   4.134   5.661  15.805 -0.0798 -0.0035  0.3720
12345TIP3    H158450   4.055   5.640  15.757 -0.4118 -1.0030  1.3084
12345TIP3    H258451   4.202   5.668  15.738 -0.5938 -0.9844 -0.2758
12346TIP3   OH258452   2.670   1.527  11.696  0.3394 -0.0525 -0.7803
12346TIP3    H158453   2.747   1.470  11.697  0.7361  0.4627 -1.2296
12346TIP3    H258454   2.653   1.546  11.789  0.6330 -0.3238 -0.6688
12347TIP3   OH258455   4.524   1.884   2.839 -0.3180 -0.1898  0.9889
12347TIP3    H158456   4.553   1.815   2.779 -3.1875 -0.7116  0.0801
12347TIP3    H258457   4.594   1.888   2.905  1.9091 -1.0940 -1.1333
12348TIP3   OH258458   0.682   5.521  16.082 -0.5356 -0.4503 -0.5823
12348TIP3    H158459   0.617   5.522  16.153 -1.7031 -1.5021 -1.5904
12348TIP3    H258460   0.656   5.591  16.024 -0.0217 -0.0776 -0.3740
12349TIP3   OH258461   0.434   5.970   3.619 -0.2862 -0.0221 -0.0018
12349TIP3    H158462   0.386   6.000   3.542  0.9211 -0.3785 -0.9228
12349TIP3    H258463   0.470   6.050   3.658 -1.6570  0.2547  0.7416
12350TIP3   OH258464   3.412   5.696   6.238  0.4792  0.6338  0.2534
12350TIP3    H158465   3.361   5.616   6.253 -1.0530  1.5965  0.4930
12350TIP3    H258466   3.500   5.674   6.266  0.1567 -1.0416  0.0812
12351TIP3   OH258467   0.234   1.979   2.804  0.4118  0.2559  0.0058
12351TIP3    H158468   0.149   1.937   2.788  0.1805  0.8703 -0.4187
12351TIP3    H258469   0.239   1.988   2.899  0.5469 -0.8824  0.1225
12352TIP3   OH258470   4.351   4.281  16.144 -0.3765  0.2111 -0.7600
12352TIP3    H158471   4.422   4.287  16.080 -0.2197  0.9014 -0.5297
12352TIP3    H258472   4.352   4.366  16.188  0.1398 -0.5817  0.8206
12353TIP3   OH258473   1.623   2.820   2.559 -0.5472  0.2731 -0.0080
12353TIP3    H158474   1.584   2.735   2.535 -1.6971  0.2265  1.8122
12353TIP3    H258475   1.717   2.808   2.547 -0.8505 -0.3189 -2.4806
12354TIP3   OH258476   3.233   6.598  12.967  0.0921 -0.4869 -0.1444
12354TIP3    H158477   3.229   6.619  13.061  1.5254  0.2945 -0.2192
12354TIP3    H258478   3.271   6.676  12.927 -0.3060 -0.8974 -1.3511
12355TIP3   OH258479   6.084   4.248   3.046  0.0488  0.1490 -0.2130
12355TIP3    H158480   6.053   4.331   3.080  0.4003 -0.7610  2.5204
12355TIP3    H258481   6.099   4.265   2.953 -0.3478  2.9766  0.1502
12356TIP3   OH258482   2.495   1.155   6.171 -0.2557  0.4210 -0.3820
12356TIP3    H158483   2.476   1.085   6.109  1.8564 -1.0426  0.5209
12356TIP3    H258484   2.449   1.130   6.251  0.0588  0.3526 -0.2223
12357TIP3   OH258485   6.107   5.674   6.325  0.6333  0.0108 -0.5454
12357TIP3    H158486   6.047   5.683   6.398  0.1555 -1.4505 -0.7137
12357TIP3    H258487   6.092   5.585   6.293  3.9990 -1.0420  0.3991
12358TIP3   OH258488   2.120   4.998  11.910  0.1597 -0.6187 -0.0124
12358TIP3    H158489   2.179   5.034  11.844 -0.1290  1.0729  0.6154
12358TIP3    H258490   2.046   4.964  11.860  0.5325 -0.5186 -0.6390
12359TIP3   OH258491   3.316   1.066   1.366 -0.3637 -0.5115 -0.0672
12359TIP3    H158492   3.321   1.063   1.270 -2.4670 -1.4375 -0.2032
12359TIP3    H258493   3.246   1.129   1.385 -1.2210 -1.6636  0.7604
12360TIP3   OH258494   4.072   5.565   0.676 -0.1195  0.1204 -0.0507
12360TIP3    H158495   4.011   5.613   0.620 -1.3039 -2.7436 -1.4194
12360TIP3    H258496   4.109   5.631   0.733 -2.8911  2.3653 -0.6368
12361TIP3   OH258497   0.770   4.542  16.339  0.2285 -0.1259  0.9969
12361TIP3    H158498   0.850   4.494  16.318  0.6657  1.7836 -2.5698
12361TIP3    H258499   0.707   4.475  16.365  1.7151 -2.2484 -0.5733
12362TIP3   OH258500   1.889   2.309   4.899 -0.0151  0.1074 -0.1050
12362TIP3    H158501   1.942   2.233   4.922 -1.5984 -0.6995  1.0963
12362TIP3    H258502   1.804   2.293   4.940  0.1877  3.5269  2.0230
12363TIP3   OH258503   5.251   1.442  10.522 -0.2573 -0.5872 -0.0617
12363TIP3    H158504   5.159   1.456  10.497 -0.0307  1.0484 -0.1390
12363TIP3    H258505   5.287   1.390  10.450 -1.0671 -1.0528 -0.1486
12364TIP3   OH258506   3.038   0.917  12.630 -0.0885 -0.2403 -0.1680
12364TIP3    H158507   3.127   0.944  12.656 -0.3020 -0.7207  1.1673
12364TIP3    H258508   3.001   0.995  12.588  0.0252  0.9495  1.7622
12365TIP3   OH258509   2.743   6.509   2.453 -0.0033 -0.3568  0.5520
12365TIP3    H158510   2.663   6.470   2.488 -1.9552 -0.1984 -3.1854
12365TIP3    H258511   2.777   6.443   2.391  2.0321  0.1437  1.0532
12366TIP3   OH258512   1.059   4.477  14.293 -0.1344 -0.2759 -0.3481
12366TIP3    H158513   1.001   4.552  14.286 -0.6203 -0.3865  1.7330
12366TIP3    H258514   1.132   4.508  14.347 -0.8470 -1.5225  1.4141
12367TIP3   OH258515   0.172   1.135   0.267  0.0065 -0.2359 -0.1751
12367TIP3    H158516   0.205   1.150   0.178  0.0821  1.0733  0.0484
12367TIP3    H258517   0.176   1.041   0.279 -2.3471 -0.7479 -2.4808
12368TIP3   OH258518   4.003   5.573  14.660  0.1777 -0.3957 -0.3745
12368TIP3    H158519   4.023   5.637  14.592 -1.1087  0.5885  0.1300
12368TIP3    H258520   3.995   5.490  14.614 -1.1941  0.3434 -1.5298
12369TIP3   OH258521   3.261   4.143  14.218 -0.8864  0.1573  0.3864
12369TIP3    H158522   3.176   4.186  14.229 -1.6252 -1.1913  0.0937
12369TIP3    H258523   3.263   4.074  14.284  0.0556  0.2561  0.4830
12370TIP3   OH258524   5.091   5.651   3.154  0.0899  0.7962 -0.1846
12370TIP3    H158525   4.998   5.669   3.160 -0.1856 -0.2632 -0.9294
12370TIP3    H258526   5.130   5.699   3.227 -1.4688 -1.6744  2.4448
12371TIP3   OH258527   5.579   0.518   5.177 -0.0293 -0.2287  0.0434
12371TIP3    H158528   5.493   0.477   5.159  1.0760 -2.1132 -1.4069
12371TIP3    H258529   5.610   0.547   5.091  0.7901  0.4422  0.5530
12372TIP3   OH258530   4.376   0.571   2.981  0.3837 -0.5375  0.2514
12372TIP3    H158531   4.398   0.592   2.891  1.0548 -3.0835 -0.2447
12372TIP3    H258532   4.457   0.585   3.030  0.0065  0.8928  0.5130
12373TIP3   OH258533   5.013   0.384  17.273  1.3618 -0.0128  0.0831
12373TIP3    H158534   5.080   0.445  17.243  1.2438  0.9920  1.7137
12373TIP3    H258535   5.052   0.297  17.261  2.6633  0.5152  0.3077
12374TIP3   OH258536   2.565   4.007   4.305  0.1411 -0.6485  0.4384
12374TIP3    H158537   2.509   3.931   4.316 -1.7930  0.4127 -1.4554
12374TIP3    H258538   2.578   4.014   4.210  0.5200  1.1996  0.5926
12375TIP3   OH258539   0.564   6.101   5.826 -0.5798  0.3065  0.0722
12375TIP3    H158540   0.477   6.130   5.855 -0.1387  1.7836 -0.0035
12375TIP3    H258541   0.561   6.005   5.835 -2.5843  0.2001 -0.9555
12376TIP3   OH258542   0.776   5.260   3.119  0.5427 -0.5128 -0.3767
12376TIP3    H158543   0.716   5.288   3.188 -1.0367  1.2458 -2.3196
12376TIP3    H258544   0.863   5.279   3.153 -0.1883  0.2493  1.1468
12377TIP3   OH258545   3.969   5.477  12.595  0.3212  0.4951  0.1548
12377TIP3    H158546   4.013   5.515  12.671  0.8660 -3.5574  2.0932
12377TIP3    H258547   3.992   5.385  12.597 -2.7346 -0.5431 -2.7906
12378TIP3   OH258548   2.540   1.637   5.766 -0.0529  0.4646  0.5304
12378TIP3    H158549   2.501   1.563   5.813  0.6650 -0.0964  0.2527
12378TIP3    H258550   2.482   1.711   5.787  0.1237  0.1966  2.1525
12379TIP3   OH258551   2.254   2.019  15.071  0.1850  0.4674 -0.0639
12379TIP3    H158552   2.209   1.998  14.988  1.0274 -2.8409  0.1657
12379TIP3    H258553   2.347   2.006  15.051  0.5580  1.4630  0.9646
12380TIP3   OH258554   1.502   2.501  11.376  0.1626 -0.3196  0.5311
12380TIP3    H158555   1.424   2.464  11.417 -0.9292  0.7732 -0.4401
12380TIP3    H258556   1.478   2.510  11.284  1.8596 -0.9784 -0.0222
12381TIP3   OH258557   2.401   5.924  12.938 -0.1368 -0.3706  0.5165
12381TIP3    H158558   2.357   5.919  12.853 -0.5822 -0.4088  0.7440
12381TIP3    H258559   2.463   5.851  12.938 -0.2863 -0.4993  0.3082
12382TIP3   OH258560   1.634   5.594   5.717  0.0725 -0.0475  0.5363
12382TIP3    H158561   1.624   5.668   5.657 -1.2021  0.0121  0.7946
12382TIP3    H258562   1.625   5.632   5.804  1.2081 -0.2468  0.7541
12383TIP3   OH258563   5.459   2.217   2.589 -0.2359 -0.4928  0.0000
12383TIP3    H158564   5.373   2.239   2.627  0.9677  1.5434  1.8139
12383TIP3    H258565   5.482   2.294   2.537  1.6216  0.2592  1.7963
12384TIP3   OH258566   0.415   4.120   2.309  0.3761 -0.0542  0.1241
12384TIP3    H158567   0.447   4.065   2.380 -0.0682  0.0026  0.3705
12384TIP3    H258568   0.334   4.159   2.342  0.1781 -0.0050 -0.3997
12385TIP3   OH258569   0.631   6.514  12.405 -0.7749 -0.0640  0.1777
12385TIP3    H158570   0.569   6.442  12.414  0.2994 -1.1322 -0.7206
12385TIP3    H258571   0.633   6.532  12.311 -0.4868  0.6520  0.3161
12386TIP3   OH258572   5.826   2.514   4.795 -0.2360  0.0288  0.1388
12386TIP3    H158573   5.737   2.479   4.798  0.1516 -1.1809 -1.2448
12386TIP3    H258574   5.880   2.440   4.767  1.5623  0.1563  2.9311
12387TIP3   OH258575   3.114   0.376  15.637 -0.7459 -0.3632 -0.0399
12387TIP3    H158576   3.021   0.353  15.630 -0.5464 -0.6362 -3.3329
12387TIP3    H258577   3.136   0.413  15.552  1.5986  2.1331  1.5008
12388TIP3   OH258578   6.690   4.710  16.353  0.6940 -0.5223 -0.5639
12388TIP3    H158579   6.673   4.803  16.337  1.1564 -0.2851  0.2630
12388TIP3    H258580   6.603   4.670  16.357  0.4576  0.0303 -0.0463
12389TIP3   OH258581   3.520   4.861  17.385 -0.7104  0.5310 -0.0915
12389TIP3    H158582   3.603   4.815  17.385 -0.7784  0.3937 -0.8074
12389TIP3    H258583   3.513   4.898  17.473  0.8283  1.8369 -0.4719
12390TIP3   OH258584   1.138   6.230   5.914  0.0541  0.3321  0.6770
12390TIP3    H158585   1.115   6.305   5.859  1.2626 -0.3454 -0.8297
12390TIP3    H258586   1.229   6.247   5.941  1.1241 -1.4995 -1.4359
12391TIP3   OH258587   0.340   5.759  16.979 -0.0485  0.1999 -0.4208
12391TIP3    H158588   0.428   5.778  16.947 -0.1742  1.2099 -0.1805
12391TIP3    H258589   0.327   5.666  16.958  0.6546  0.3134 -1.4215
12392TIP3   OH258590   5.633   1.846  12.953 -0.6130 -0.5411  0.3775
12392TIP3    H158591   5.679   1.762  12.954  1.2423  0.4005  2.3003
12392TIP3    H258592   5.557   1.831  12.898 -0.4362 -3.5292  0.7790
12393TIP3   OH258593   5.544   0.916   2.309 -0.1259 -0.1684 -0.1348
12393TIP3    H158594   5.505   0.879   2.230  0.7290 -1.7272  0.1406
12393TIP3    H258595   5.530   1.011   2.300 -0.7844 -0.3818 -1.7347
12394TIP3   OH258596   1.336   3.542   3.731 -0.0848 -0.1138  0.2964
12394TIP3    H158597   1.363   3.632   3.748 -0.8638 -0.0704  1.4535
12394TIP3    H258598   1.249   3.551   3.692 -0.2217 -0.3648  0.5447
12395TIP3   OH258599   0.874   2.977   4.653 -0.5160 -0.1482 -0.0824
12395TIP3    H158600   0.940   3.047   4.647 -0.7222  0.2799  1.9441
12395TIP3    H258601   0.802   3.009   4.599 -0.3967  0.9968  0.3917
12396TIP3   OH258602   2.245   2.276   4.666 -1.4057  0.1559 -0.0971
12396TIP3    H158603   2.338   2.259   4.656 -1.3677  0.6463 -0.6071
12396TIP3    H258604   2.210   2.276   4.577 -2.0106 -0.6403  0.1251
12397TIP3   OH258605   0.044   1.674   4.068 -0.0741 -0.0551 -0.2320
12397TIP3    H158606  -0.019   1.620   4.116 -1.1267 -0.1389 -1.6324
12397TIP3    H258607   0.027   1.654   3.976  0.5161  1.5666 -0.7309
12398TIP3   OH258608   3.747   2.305  16.311  0.1922  0.5271 -0.4338
12398TIP3    H158609   3.721   2.227  16.262 -1.0134  1.2061 -0.9276
12398TIP3    H258610   3.829   2.333  16.270  0.9603 -0.8051  0.1464
12399TIP3   OH258611   5.665   5.035   0.055 -0.3963 -0.3458  0.0510
12399TIP3    H158612   5.629   5.059   0.140 -1.4571  0.5305 -0.6241
12399TIP3    H258613   5.760   5.044   0.065 -0.6378  2.5634  0.3432
12400TIP3   OH258614   5.553   1.141   0.581 -0.0440  0.5716  0.5063
12400TIP3    H158615   5.641   1.108   0.599 -0.2565 -0.3061 -0.0494
12400TIP3    H258616   5.557   1.173   0.491 -0.6264 -0.6666  0.0138
12401TIP3   OH258617   0.026   3.323  11.813  0.4936  0.1774 -0.4391
12401TIP3    H158618   0.081   3.280  11.879 -1.9391  1.2689  2.5545
12401TIP3    H258619  -0.044   3.260  11.795  1.2929 -0.2232 -2.2867
12402TIP3   OH258620   3.940   1.843   4.275  0.1558  0.5273  0.0254
12402TIP3    H158621   3.868   1.891   4.316 -0.4674  0.2523 -0.7184
12402TIP3    H258622   4.015   1.860   4.331 -0.5165  0.7162  0.8934
12403TIP3   OH258623   0.310   1.938  15.922  0.0570  0.4634  0.1396
12403TIP3    H158624   0.400   1.929  15.954  0.2579  0.9055 -0.2846
12403TIP3    H258625   0.319   1.954  15.828 -0.4480  0.8281  0.1473
12404TIP3   OH258626   5.063   1.532  11.008  0.2164  0.5866  0.3601
12404TIP3    H158627   5.099   1.585  10.936 -0.6175  1.5050  0.5879
12404TIP3    H258628   5.139   1.486  11.044  0.4558 -1.0012 -1.9771
12405TIP3   OH258629   1.915   1.837   3.445  0.3817 -0.0069  0.6278
12405TIP3    H158630   1.906   1.909   3.383  0.0848 -1.5525 -1.2008
12405TIP3    H258631   1.894   1.758   3.394  0.9484 -1.4280  2.4832
12406TIP3   OH258632   4.362   2.301   2.143  0.3114  0.1555  0.5027
12406TIP3    H158633   4.367   2.288   2.237 -0.0426 -2.9479  0.1830
12406TIP3    H258634   4.269   2.288   2.121  0.5847 -0.3660 -0.4125
12407TIP3   OH258635   5.068   1.468   1.734  0.9190  0.0352 -0.2343
12407TIP3    H158636   5.128   1.471   1.659  1.6292  0.6204  0.3360
12407TIP3    H258637   5.054   1.375   1.750 -1.1817 -0.1183 -2.5794
12408TIP3   OH258638   1.853   5.717  17.059 -1.0071  0.3082  0.6870
12408TIP3    H158639   1.837   5.652  16.990 -0.4715  0.0614  0.7881
12408TIP3    H258640   1.816   5.798  17.024  1.0894  0.7043 -0.8510
12409TIP3   OH258641   0.148   1.992   6.423  0.5033  0.1819  0.0541
12409TIP3    H158642   0.212   2.049   6.380 -0.7621  0.8993 -0.9369
12409TIP3    H258643   0.063   2.026   6.396 -0.3357 -0.4730  1.6895
12410TIP3   OH258644   2.822   2.979  11.945  0.0563 -0.6748  0.2028
12410TIP3    H158645   2.762   3.052  11.959  0.9370 -0.4951  4.2275
12410TIP3    H258646   2.766   2.902  11.942 -0.5569 -0.2795  1.1769
12411TIP3   OH258647   6.029   6.515  12.495 -0.0300 -0.0043 -0.2231
12411TIP3    H158648   6.042   6.580  12.564 -0.2541 -0.9020  0.6769
12411TIP3    H258649   6.038   6.431  12.539  0.1318 -0.5985 -1.3514
12412TIP3   OH258650   3.822   2.028   4.812  0.1659 -0.3038 -0.1606
12412TIP3    H158651   3.779   2.104   4.851  1.8522  1.5837 -1.7488
12412TIP3    H258652   3.805   1.957   4.873 -1.7123  1.2676  1.2729
12413TIP3   OH258653   3.202   6.214   6.044 -0.1943 -0.4585 -0.0438
12413TIP3    H158654   3.283   6.231   6.092 -0.8305  0.1493  0.8349
12413TIP3    H258655   3.137   6.195   6.112 -1.4039  1.5776 -0.5445
12414TIP3   OH258656   1.592   2.415  15.136 -0.1180  0.0613  0.3736
12414TIP3    H158657   1.636   2.498  15.158  0.9433 -0.4326  0.1768
12414TIP3    H258658   1.609   2.403  15.042 -1.0176  0.0434  0.1997
12415TIP3   OH258659   2.114   2.488  16.145  0.4048  0.0884  0.1547
12415TIP3    H158660   2.028   2.448  16.133  0.0606  1.0711 -0.8048
12415TIP3    H258661   2.172   2.415  16.165 -0.9081 -0.4329  2.4117
12416TIP3   OH258662   1.088   1.177   3.753  0.5940  0.0848 -0.3084
12416TIP3    H158663   1.073   1.220   3.669 -0.0058 -0.6336 -0.5821
12416TIP3    H258664   1.089   1.083   3.731 -0.2659 -0.1426  0.5855
12417TIP3   OH258665   2.019   1.444  14.649 -0.1373 -0.1307  0.0483
12417TIP3    H158666   2.047   1.445  14.741 -0.3910  0.4519  0.1207
12417TIP3    H258667   1.925   1.429  14.653 -0.4424  1.6140 -0.0366
12418TIP3   OH258668   4.958   5.007  10.666 -0.3713  0.1200  0.3957
12418TIP3    H158669   4.862   4.997  10.665 -0.4790  0.9805  0.5700
12418TIP3    H258670   4.971   5.102  10.658  0.4327  0.1439  1.8302
12419TIP3   OH258671   6.672   2.738   4.155 -0.3967  1.0222  0.6894
12419TIP3    H158672   6.743   2.729   4.091 -0.5763  1.3255  0.4420
12419TIP3    H258673   6.625   2.817   4.127 -2.7298 -0.8417 -1.0124
12420TIP3   OH258674   3.358   3.301  16.108 -0.3436  0.1865  0.4856
12420TIP3    H158675   3.419   3.240  16.150  0.2308  1.1992  1.1762
12420TIP3    H258676   3.357   3.274  16.016 -1.7026 -2.1657  1.0955
12421TIP3   OH258677   1.122   1.500   5.018 -0.8645 -0.0038  0.0160
12421TIP3    H158678   1.107   1.505   4.924  1.5317 -2.0343 -0.5875
12421TIP3    H258679   1.038   1.470   5.054 -1.4160 -0.6057 -1.6767
12422TIP3   OH258680   5.242   2.108  15.684 -0.3734  0.0101 -0.2289
12422TIP3    H158681   5.338   2.119  15.683 -0.1057 -1.9385 -0.6248
12422TIP3    H258682   5.208   2.194  15.710  1.5344  0.4034  1.1725
12423TIP3   OH258683   6.639   0.022   4.568 -0.4857  0.1185 -0.3805
12423TIP3    H158684   6.722   0.001   4.611 -0.8807  0.0165  0.3529
12423TIP3    H258685   6.651  -0.005   4.477  0.3029  0.1684 -0.2968
12424TIP3   OH258686   6.564   4.299  16.874  0.4018 -0.7510  0.1660
12424TIP3    H158687   6.571   4.357  16.950 -1.2256  2.6647 -2.0758
12424TIP3    H258688   6.626   4.335  16.811 -0.0784 -1.9530 -1.0377
12425TIP3   OH258689   6.188   6.353  16.644 -0.2569 -0.3889 -0.0626
12425TIP3    H158690   6.282   6.369  16.645  0.2483 -2.9239  1.2250
12425TIP3    H258691   6.172   6.312  16.559 -0.1985 -0.1185 -0.2088
12426TIP3   OH258692   5.129   0.551  11.329 -0.2621  0.2550  0.3660
12426TIP3    H158693   5.058   0.616  11.327  1.1846  2.0639  2.3639
12426TIP3    H258694   5.192   0.582  11.263 -0.3449 -0.0897  0.1263
12427TIP3   OH258695   2.566   3.054  12.935  0.0622  0.4390 -0.4483
12427TIP3    H158696   2.589   3.146  12.928 -1.9349  1.1836  1.5323
12427TIP3    H258697   2.504   3.039  12.864  0.4797  0.5673 -0.8447
12428TIP3   OH258698   5.470   5.401   5.130 -0.5550 -0.1123 -0.0067
12428TIP3    H158699   5.479   5.493   5.154 -0.4376  0.5422 -2.3234
12428TIP3    H258700   5.450   5.402   5.037 -1.9740 -2.4036  0.1797
12429TIP3   OH258701   1.335   2.974  11.722 -0.3912  0.7091 -0.3293
12429TIP3    H158702   1.262   3.029  11.694  1.3493  2.9184 -0.8319
12429TIP3    H258703   1.337   2.984  11.817 -0.0587  1.5728 -0.4223
12430TIP3   OH258704   0.001   4.980   3.983 -0.1409  0.7268  0.4155
12430TIP3    H158705  -0.020   4.983   3.890  1.5237  3.0961  0.0214
12430TIP3    H258706  -0.068   5.031   4.025  0.4325  1.7735  0.1252
12431TIP3   OH258707   1.749   6.157  13.641  0.2561 -0.0040 -0.1544
12431TIP3    H158708   1.837   6.122  13.627  0.5558  0.6616  0.0321
12431TIP3    H258709   1.760   6.252  13.638 -0.5698  0.0819 -0.8359
12432TIP3   OH258710   0.803   0.126   2.599 -0.3643  0.9072  0.2865
12432TIP3    H158711   0.805   0.127   2.694  0.2835  1.7396  0.2679
12432TIP3    H258712   0.806   0.218   2.573 -0.3576  0.6877 -0.5427
12433TIP3   OH258713   2.032   3.460   3.268 -0.1840  0.7807  0.2232
12433TIP3    H158714   2.039   3.419   3.182 -0.3212  0.6291  0.2837
12433TIP3    H258715   2.062   3.550   3.254 -1.2103  1.0725 -0.2333
12434TIP3   OH258716   1.426   2.075  16.179  0.0778 -0.0652  0.1845
12434TIP3    H158717   1.375   1.994  16.174  1.2936 -1.0664  2.7244
12434TIP3    H258718   1.401   2.115  16.262  1.0705  1.0810 -0.0298
12435TIP3   OH258719   5.520   6.452   3.564  0.2777  0.0328 -0.5531
12435TIP3    H158720   5.609   6.419   3.552  0.2038  0.1911 -1.6492
12435TIP3    H258721   5.523   6.542   3.532 -0.2800  0.0294 -0.6217
12436TIP3   OH258722   2.819   3.799  15.246 -0.1800 -0.0415 -0.2489
12436TIP3    H158723   2.808   3.715  15.201  1.4552 -0.6240  0.3552
12436TIP3    H258724   2.786   3.864  15.184 -2.7939 -1.1787 -0.1862
12437TIP3   OH258725   2.293   4.930   4.007  0.2136 -0.0247 -0.2334
12437TIP3    H158726   2.277   4.847   3.963  0.4086  0.6193 -1.5604
12437TIP3    H258727   2.370   4.914   4.061  0.5176 -0.5802 -0.8204
12438TIP3   OH258728   0.514   1.081  16.405  0.1880  0.4378  0.7430
12438TIP3    H158729   0.419   1.070  16.399  0.1432  0.4282  1.4431
12438TIP3    H258730   0.545   1.006  16.455  0.7088 -0.1531 -0.4407
12439TIP3   OH258731   4.994   1.993  14.652  0.4018  0.2519  0.4290
12439TIP3    H158732   4.991   2.087  14.670  1.3730  0.5851 -0.9754
12439TIP3    H258733   4.977   1.952  14.737  1.3006  1.7006  1.3536
12440TIP3   OH258734   0.316   4.248  13.118  0.2670 -0.4389  0.4265
12440TIP3    H158735   0.366   4.311  13.067  0.7561 -1.7168 -0.7496
12440TIP3    H258736   0.378   4.215  13.183  0.4169 -0.6242  0.1978
12441TIP3   OH258737   3.913   0.954   4.231  0.4369 -0.3514  0.2731
12441TIP3    H158738   3.819   0.942   4.238 -0.2990  3.4251 -0.9413
12441TIP3    H258739   3.941   0.888   4.166 -1.2933 -1.5305  0.6572
12442TIP3   OH258740   3.690   0.175   5.137  0.8815 -0.0947  0.3659
12442TIP3    H158741   3.746   0.168   5.214  1.0006 -1.5909  0.1813
12442TIP3    H258742   3.750   0.171   5.063  0.5901 -1.5061  0.1728
12443TIP3   OH258743   6.292   3.546  13.420  0.1880  0.0559  0.7497
12443TIP3    H158744   6.352   3.603  13.467  3.5430 -2.2977 -0.3347
12443TIP3    H258745   6.229   3.517  13.487  1.2179  1.3591  2.3447
12444TIP3   OH258746   2.120   5.717   2.409 -0.4924 -0.3752  0.1975
12444TIP3    H158747   2.076   5.713   2.324 -1.9810  3.0600  0.6371
12444TIP3    H258748   2.213   5.724   2.386 -0.8783  0.7635 -1.2309
12445TIP3   OH258749   3.087   4.609   3.994 -0.3286  0.0147  0.5924
12445TIP3    H158750   3.137   4.658   3.929  0.0187 -0.0955  0.7768
12445TIP3    H258751   3.084   4.520   3.960 -0.3852  0.0176  0.5899
12446TIP3   OH258752   4.027   4.663  13.827 -0.1752  0.3077 -0.0752
12446TIP3    H158753   4.013   4.717  13.749 -0.0470 -1.7390 -1.6135
12446TIP3    H258754   4.122   4.663  13.839 -0.0922 -0.2644 -0.6414
12447TIP3   OH258755   0.875   0.461   6.188  0.3368 -0.4880 -0.0859
12447TIP3    H158756   0.873   0.549   6.225 -0.1249 -0.1533 -0.8861
12447TIP3    H258757   0.900   0.404   6.261  2.6823  0.5401 -0.0085
12448TIP3   OH258758   1.841   2.615  12.585  0.2814  0.9924 -0.4358
12448TIP3    H158759   1.823   2.522  12.574  0.0538  0.9337  0.3824
12448TIP3    H258760   1.840   2.651  12.495 -0.5008  0.3701 -0.6807
12449TIP3   OH258761   0.070   3.614   3.161 -0.2741 -0.3123  0.4906
12449TIP3    H158762   0.086   3.546   3.227 -1.6964 -1.9416 -0.7801
12449TIP3    H258763   0.093   3.573   3.078  0.3834  1.3366 -0.1969
12450TIP3   OH258764   3.514   0.031  12.945 -0.1196  0.0726 -0.0365
12450TIP3    H158765   3.518   0.126  12.938  1.9605  0.1499  1.4484
12450TIP3    H258766   3.512   0.014  13.039 -1.1717 -1.3732 -0.2788
12451TIP3   OH258767   4.840   2.927   3.945  0.0115 -0.1401 -0.7891
12451TIP3    H158768   4.760   2.976   3.964 -1.3819 -1.9216 -1.7415
12451TIP3    H258769   4.862   2.952   3.855 -0.6606 -1.1241 -1.2506
12452TIP3   OH258770   5.789   3.075   5.357  0.2543  0.1628  0.2146
12452TIP3    H158771   5.851   3.023   5.306 -1.2053 -0.3650 -1.1110
12452TIP3    H258772   5.707   3.067   5.309 -0.4169  2.3389  0.9036
12453TIP3   OH258773   0.409   3.671   3.398  0.2408 -0.4573 -0.7666
12453TIP3    H158774   0.480   3.651   3.460  0.2906 -1.2036 -1.0450
12453TIP3    H258775   0.391   3.587   3.355 -0.9103 -0.3080 -0.6047
12454TIP3   OH258776   6.223   2.792   2.882 -0.6543 -0.4490  0.4871
12454TIP3    H158777   6.316   2.811   2.884 -0.3130 -1.9221 -0.1016
12454TIP3    H258778   6.183   2.862   2.934  0.6940  0.5747  0.2118
12455TIP3   OH258779   1.331   4.399  15.950 -0.3563 -0.5186  0.0293
12455TIP3    H158780   1.301   4.453  15.877  0.9436  0.1535 -0.0352
12455TIP3    H258781   1.257   4.399  16.011 -1.5398 -1.2581 -1.3440
12456TIP3   OH258782   6.049   3.398  11.374 -0.7811  0.0364  0.2106
12456TIP3    H158783   6.079   3.472  11.321  0.1855 -0.0766  0.5751
12456TIP3    H258784   5.988   3.437  11.437 -0.9171  0.3864 -0.1388
12457TIP3   OH258785   0.616   0.124   4.338  0.1615  0.0838 -0.0627
12457TIP3    H158786   0.663   0.098   4.417  1.7366  0.2219 -0.9085
12457TIP3    H258787   0.595   0.217   4.352  2.6429  0.8293 -0.7572
12458TIP3   OH258788   5.760   2.396  12.171  0.4995 -0.0178 -0.0297
12458TIP3    H158789   5.675   2.374  12.208  0.7715  0.9350  1.2664
12458TIP3    H258790   5.754   2.373  12.078 -1.4014  0.6420 -0.1082
12459TIP3   OH258791   0.617   4.238  13.786  0.1233  0.4137 -0.5160
12459TIP3    H158792   0.577   4.186  13.856  0.0547  1.9685  0.6618
12459TIP3    H258793   0.544   4.264  13.730  0.1908 -0.9157 -1.2689
12460TIP3   OH258794   4.491   5.030  11.660 -0.0079  0.3363  0.3523
12460TIP3    H158795   4.466   5.003  11.571 -1.3003 -0.8852  1.0559
12460TIP3    H258796   4.576   4.989  11.674 -1.3935 -2.6279  0.9612
12461TIP3   OH258797   6.713   2.173   5.397 -0.6645 -0.0714  0.3527
12461TIP3    H158798   6.769   2.126   5.460  0.8914  0.6658 -0.4297
12461TIP3    H258799   6.775   2.210   5.334 -1.9747  1.6988  0.0630
12462TIP3   OH258800   0.209   6.269   5.357 -0.3128 -0.1980  0.5470
12462TIP3    H158801   0.221   6.292   5.265 -0.8851 -0.0451  0.5061
12462TIP3    H258802   0.286   6.304   5.401 -0.7256  0.9956  0.3439
12463TIP3   OH258803   5.289   1.176   5.251 -0.2641  0.0657 -0.2782
12463TIP3    H158804   5.315   1.113   5.319  1.6747  2.1641  1.0700
12463TIP3    H258805   5.253   1.122   5.181 -0.6589 -2.3576  1.6525
12464TIP3   OH258806   0.412   3.883  14.698  0.3521 -0.4321 -0.2812
12464TIP3    H158807   0.452   3.965  14.726  1.8829 -0.9897 -0.7205
12464TIP3    H258808   0.459   3.859  14.618  0.2195 -1.9316  0.0481
12465TIP3   OH258809   2.225   0.992  14.476 -0.7768 -0.4641 -0.2276
12465TIP3    H158810   2.262   0.909  14.447 -2.3271 -1.0589 -0.5663
12465TIP3    H258811   2.290   1.057  14.450 -0.4305 -1.3697 -1.7425
12466TIP3   OH258812   1.152   5.901   2.941 -0.3725  0.3897  0.0199
12466TIP3    H158813   1.157   5.888   3.036  1.0119 -2.9843 -0.3891
12466TIP3    H258814   1.127   5.816   2.907  0.1036  1.2710 -2.7561
12467TIP3   OH258815   6.760   2.309   4.444  0.1839  0.4752 -0.1921
12467TIP3    H158816   6.838   2.334   4.395  0.9274  0.1189  0.7711
12467TIP3    H258817   6.766   2.356   4.527  0.4375 -1.0671  0.7199
12468TIP3   OH258818   6.726   0.588  11.899  0.1357 -0.0196  0.2911
12468TIP3    H158819   6.654   0.593  11.836 -0.8565 -2.3670  1.1227
12468TIP3    H258820   6.761   0.500  11.889  2.3241  0.7718  0.5764
12469TIP3   OH258821   4.508   3.442   2.693 -0.1750  0.2786 -1.1401
12469TIP3    H158822   4.570   3.384   2.737  0.8772  1.8979 -0.3877
12469TIP3    H258823   4.426   3.430   2.740  0.5454  0.8418  0.3395
12470TIP3   OH258824   5.883   4.004  11.381  0.3863 -0.0394  0.5048
12470TIP3    H158825   5.882   4.099  11.366  1.2649  0.2085  1.8502
12470TIP3    H258826   5.866   3.966  11.295 -1.4320  1.3360  0.2009
12471TIP3   OH258827   3.399   5.284   3.812  0.5464 -0.2008  1.0430
12471TIP3    H158828   3.354   5.243   3.885 -0.9871  0.1650  0.3429
12471TIP3    H258829   3.445   5.359   3.851  0.2693 -0.3773  1.7217
12472TIP3   OH258830   5.535   5.468   6.280 -0.6572 -0.1633  0.0800
12472TIP3    H158831   5.554   5.374   6.281 -1.8999 -0.4863 -1.9549
12472TIP3    H258832   5.443   5.474   6.307 -0.4957  0.5051  0.4911
12473TIP3   OH258833   6.291   4.034  14.277 -0.2606  0.1650  0.5712
12473TIP3    H158834   6.347   3.980  14.221 -0.5216  1.3948 -0.9444
12473TIP3    H258835   6.347   4.108  14.302 -0.1335 -0.3831  2.0373
12474TIP3   OH258836   4.766   2.937   2.152  0.7295 -0.1535 -0.3198
12474TIP3    H158837   4.794   2.938   2.244 -0.6093 -0.3229  0.1243
12474TIP3    H258838   4.753   2.844   2.132 -1.8556 -0.0020  0.3068
12475TIP3   OH258839   0.893   2.060  15.900 -0.2174 -0.0059 -0.0625
12475TIP3    H158840   0.952   2.135  15.889 -0.5054  0.6103  2.0411
12475TIP3    H258841   0.952   1.985  15.911  0.1484  0.3389  0.3919
12476TIP3   OH258842   1.632   5.583  16.532 -0.7256  0.0040 -0.4283
12476TIP3    H158843   1.662   5.658  16.480  1.3790  0.0113  0.6908
12476TIP3    H258844   1.630   5.510  16.470  0.9531  0.1816 -0.7391
12477TIP3   OH258845   0.987   0.153   3.821 -0.2784  0.5403  0.2288
12477TIP3    H158846   1.050   0.097   3.775 -1.0547 -0.2358  0.0687
12477TIP3    H258847   0.950   0.096   3.889 -0.6275  1.0656  0.4872
12478TIP3   OH258848   2.271   3.411   5.580 -0.0192 -0.9596  0.2569
12478TIP3    H158849   2.345   3.448   5.628 -1.9613  0.9238  1.9909
12478TIP3    H258850   2.237   3.483   5.528  0.3174 -2.2525 -1.8882
12479TIP3   OH258851   3.348   3.387   4.528 -0.0263  0.1690 -0.0816
12479TIP3    H158852   3.360   3.478   4.554  0.2071  0.5922 -1.5740
12479TIP3    H258853   3.358   3.387   4.433 -2.7649 -0.9706 -0.4697
12480TIP3   OH258854   2.745   0.656  12.643 -0.0148  0.0834 -0.0145
12480TIP3    H158855   2.821   0.698  12.604  1.5940 -1.5061  1.2513
12480TIP3    H258856   2.734   0.574  12.594 -2.3070  1.2264 -1.5956
12481TIP3   OH258857   0.864   2.289  13.595  0.5692 -0.1737  0.0869
12481TIP3    H158858   0.879   2.284  13.501  0.8557 -1.4913  0.1821
12481TIP3    H258859   0.774   2.257  13.607 -0.2245  1.9371  0.0905
12482TIP3   OH258860   6.345   2.683  14.614 -0.0062  0.4704  0.4870
12482TIP3    H158861   6.422   2.637  14.648 -0.2058 -0.2731 -0.0486
12482TIP3    H258862   6.381   2.747  14.553  0.0946 -1.9069 -2.1442
12483TIP3   OH258863   0.082   3.850   4.885 -0.5564 -0.3085 -0.1991
12483TIP3    H158864   0.011   3.819   4.941 -0.1146 -0.4186  0.3080
12483TIP3    H258865   0.093   3.782   4.819 -0.6215 -0.5004 -0.0113
12484TIP3   OH258866   0.450   1.043   3.479 -0.0099  0.6461  0.1674
12484TIP3    H158867   0.508   1.061   3.553  0.0830  1.9982 -0.2094
12484TIP3    H258868   0.509   1.037   3.404 -0.2140  0.3981  0.0255
12485TIP3   OH258869   3.012   4.084   0.213  0.4609 -0.9453  0.3377
12485TIP3    H158870   3.067   4.116   0.141 -0.1577 -0.9003 -0.1211
12485TIP3    H258871   2.957   4.017   0.172  0.8219 -1.6594  0.9996
12486TIP3   OH258872   1.365   4.401   3.070  0.2862 -0.1730 -0.2080
12486TIP3    H158873   1.375   4.306   3.062 -0.8014 -0.2554 -0.8355
12486TIP3    H258874   1.446   4.437   3.034  0.5510 -0.8551 -0.3086
12487TIP3   OH258875   3.776   6.576   2.378  0.0805 -0.2713 -0.3206
12487TIP3    H158876   3.724   6.577   2.458 -2.9794  2.3086 -2.0866
12487TIP3    H258877   3.736   6.507   2.325  1.3223 -1.1623 -0.1393
12488TIP3   OH258878   3.767   1.665  16.427 -0.3375  0.0119 -0.0298
12488TIP3    H158879   3.767   1.572  16.452 -1.9761  0.2913  1.1530
12488TIP3    H258880   3.713   1.708  16.493  1.4007  2.0540  0.1698
12489TIP3   OH258881   6.174   5.581   1.619 -0.2326  0.4689 -0.4316
12489TIP3    H158882   6.194   5.558   1.528  0.3432 -1.9953  0.2395
12489TIP3    H258883   6.247   5.544   1.670 -1.6710 -0.2138  1.2237
12490TIP3   OH258884   2.179   5.878  12.290 -0.3220 -0.1243  0.3356
12490TIP3    H158885   2.099   5.871  12.238 -0.2131  1.4899 -0.1079
12490TIP3    H258886   2.248   5.893  12.226  0.1523 -0.2838  0.7991
12491TIP3   OH258887   6.047   2.047  16.266 -0.3360  0.1558  0.6678
12491TIP3    H158888   6.006   2.133  16.277  0.6642  0.4839  2.1051
12491TIP3    H258889   6.042   2.007  16.353  1.4625 -0.1951  0.6434
12492TIP3   OH258890   4.456   6.059  15.207 -0.3087  0.2700  0.4219
12492TIP3    H158891   4.425   6.088  15.293 -0.3831  0.5914  0.2861
12492TIP3    H258892   4.439   6.132  15.148  0.2218  0.2519  0.2368
12493TIP3   OH258893   1.182   4.978   3.017 -0.8858  0.5373  0.6763
12493TIP3    H158894   1.129   5.046   2.976 -3.7989 -2.2696 -0.6723
12493TIP3    H258895   1.122   4.933   3.076  0.0547 -2.4510 -0.4452
12494TIP3   OH258896   1.101   0.134  12.954 -0.0119 -0.0817  0.3416
12494TIP3    H158897   1.133   0.209  13.003 -0.1085  0.0725  0.1719
12494TIP3    H258898   1.179   0.084  12.930  0.0030 -0.4094  1.0491
12495TIP3   OH258899   4.918   0.458  13.191  0.1215  0.1085  0.1088
12495TIP3    H158900   4.883   0.374  13.223 -0.7603  0.2971 -0.3423
12495TIP3    H258901   4.900   0.457  13.097  0.6926  0.5250 -0.0078
12496TIP3   OH258902   6.063   0.027   0.924  0.3125  0.2893 -0.7001
12496TIP3    H158903   6.128   0.036   0.994  0.1314 -2.3497 -0.0910
12496TIP3    H258904   5.981   0.056   0.964  0.5313  0.4798 -0.3858
12497TIP3   OH258905   1.113   5.777   3.532  0.3876 -0.4556 -0.1797
12497TIP3    H158906   1.170   5.730   3.472  1.9759 -0.5351  1.3212
12497TIP3    H258907   1.172   5.828   3.587 -0.9530 -0.6802  1.5711
12498TIP3   OH258908   2.699   3.830  16.045 -0.1689  0.0203 -0.1353
12498TIP3    H158909   2.639   3.756  16.052 -0.8279  0.6923  2.3430
12498TIP3    H258910   2.649   3.898  16.000 -0.1560 -0.4502 -0.8715
12499TIP3   OH258911   0.012   6.546   6.726  0.2560  0.1474 -0.1023
12499TIP3    H158912   0.040   6.576   6.812  0.2587 -2.6633  0.9895
12499TIP3    H258913   0.021   6.623   6.669  1.0899  1.8491  2.1847
12500TIP3   OH258914   2.321   1.658   0.217 -0.1770 -0.0909 -0.1710
12500TIP3    H158915   2.343   1.729   0.158 -1.6833 -0.4148 -1.1818
12500TIP3    H258916   2.238   1.624   0.184 -0.1341 -1.4895  1.0453
12501TIP3   OH258917   0.734   0.346  13.471 -0.5240  0.3378  0.2377
12501TIP3    H158918   0.690   0.427  13.497 -2.0765 -0.4944  0.3000
12501TIP3    H258919   0.780   0.368  13.390 -1.4582  1.1220 -0.0993
12502TIP3   OH258920   5.972   4.464  14.137  0.7853  0.0058  0.1384
12502TIP3    H158921   5.956   4.524  14.210  0.1985  0.4796 -0.3677
12502TIP3    H258922   6.065   4.473  14.118  1.0646 -0.5283  1.1765
12503TIP3   OH258923   1.026   1.084  12.593  0.1694  0.1010  0.4488
12503TIP3    H158924   0.991   1.158  12.544 -1.5036 -1.5154 -0.9480
12503TIP3    H258925   1.033   1.116  12.683  1.0085  2.3965 -0.3582
12504TIP3   OH258926   5.420   5.689   0.403  0.3526  0.4647 -0.0905
12504TIP3    H158927   5.338   5.727   0.370 -0.2820 -1.3308 -0.7410
12504TIP3    H258928   5.488   5.729   0.349 -0.2084  1.1608 -0.3063
12505TIP3   OH258929   4.968   2.612   5.437  0.0347  0.5100 -0.4707
12505TIP3    H158930   4.937   2.524   5.457 -0.0291  0.4674 -0.7572
12505TIP3    H258931   5.025   2.635   5.511  1.6176 -0.5343 -1.3141
12506TIP3   OH258932   5.383   6.692  16.014 -0.2310  0.2550 -0.2694
12506TIP3    H158933   5.315   6.638  16.054 -0.7011  0.4383 -0.8115
12506TIP3    H258934   5.454   6.630  15.995  0.6126  0.3887  2.1261
12507TIP3   OH258935   1.004   5.161   2.956  0.4147  0.1158 -0.3762
12507TIP3    H158936   0.934   5.206   3.005 -1.8694 -0.5609 -2.8233
12507TIP3    H258937   0.988   5.184   2.865  1.6376 -2.4145 -1.3081
12508TIP3   OH258938   5.164   6.225   4.001 -0.2690 -0.2597  0.0484
12508TIP3    H158939   5.206   6.299   4.043 -2.1845 -0.5194  2.6441
12508TIP3    H258940   5.087   6.262   3.958 -1.7125 -0.7743  2.0834
12509TIP3   OH258941   1.583   4.424  12.023  0.0310 -0.0821  0.0957
12509TIP3    H158942   1.587   4.519  12.028 -1.0790  0.0489 -1.0175
12509TIP3    H258943   1.608   4.404  11.932  2.4028 -1.0284  0.8794
12510TIP3   OH258944   1.353   4.551   5.466 -0.0302 -0.2314 -0.1960
12510TIP3    H158945   1.414   4.477   5.460  0.6092  0.2928 -0.3762
12510TIP3    H258946   1.331   4.572   5.375 -0.6084 -0.5211 -0.1231
12511TIP3   OH258947   3.451   5.429  14.325 -0.0186 -0.4044 -0.3590
12511TIP3    H158948   3.505   5.421  14.246  0.7393  0.5099  0.0573
12511TIP3    H258949   3.508   5.470  14.390 -1.0310  0.0368  0.2784
12512TIP3   OH258950   2.108   2.080   0.769  0.1109  0.4982  0.2031
12512TIP3    H158951   2.180   2.125   0.723 -0.3610  1.4489  0.3595
12512TIP3    H258952   2.096   1.999   0.720  1.0178  0.5156 -0.0760
12513TIP3   OH258953   3.312   6.220  14.986 -0.3798 -0.9075  0.8386
12513TIP3    H158954   3.270   6.283  15.045 -1.2122  0.5261 -1.1729
12513TIP3    H258955   3.302   6.259  14.899  1.6671 -2.4609 -0.1622
12514TIP3   OH258956   4.217   0.709   1.465 -0.3530  0.1638  0.5443
12514TIP3    H158957   4.235   0.784   1.522 -2.0263  0.5931  0.5727
12514TIP3    H258958   4.174   0.645   1.522 -2.3251  0.7160 -0.2066
12515TIP3   OH258959   2.784   1.970   2.039  0.6992  0.2946  0.0650
12515TIP3    H158960   2.794   2.017   2.122 -0.3890 -3.6635  2.7326
12515TIP3    H258961   2.827   1.885   2.054 -1.8658 -1.6431 -2.3915
12516TIP3   OH258962   2.305   6.029   3.977 -0.0382 -0.5054  1.0567
12516TIP3    H158963   2.220   6.001   3.942  0.5262  0.1016 -0.9160
12516TIP3    H258964   2.283   6.098   4.040 -0.9894  0.0032  0.1950
12517TIP3   OH258965   0.424   3.256  15.761 -0.4752 -0.2294  0.8541
12517TIP3    H158966   0.502   3.202  15.746 -0.7174  0.0358 -1.8237
12517TIP3    H258967   0.450   3.343  15.731 -0.9618  0.5419  2.5690
12518TIP3   OH258968   3.617   0.356   1.393  0.4144  0.2844 -0.5784
12518TIP3    H158969   3.564   0.280   1.416 -0.4267  0.9237 -0.3564
12518TIP3    H258970   3.705   0.321   1.380 -0.3659 -1.1022 -2.6907
12519TIP3   OH258971   0.753   5.513   6.848  0.2125 -0.2238  0.0271
12519TIP3    H158972   0.666   5.472   6.849  0.1966 -0.2045 -0.2628
12519TIP3    H258973   0.753   5.566   6.768 -0.2245  1.3193  0.9880
12520TIP3   OH258974   1.867   0.286   5.394  0.1189  0.1607 -0.0347
12520TIP3    H158975   1.808   0.236   5.337  0.9101 -1.5793  0.6009
12520TIP3    H258976   1.818   0.296   5.476 -0.1135  0.6264 -0.2247
12521TIP3   OH258977   3.590   5.571   2.748  0.1203 -0.4852  0.6070
12521TIP3    H158978   3.530   5.633   2.789 -1.7182 -0.4794 -1.8717
12521TIP3    H258979   3.594   5.497   2.809 -1.5240  0.0065  1.3730
12522TIP3   OH258980   5.197   3.794   3.834  0.1523 -0.2549  0.6887
12522TIP3    H158981   5.276   3.755   3.870  0.2697 -0.7645 -0.0952
12522TIP3    H258982   5.126   3.739   3.866  0.4590 -2.4294 -2.0075
12523TIP3   OH258983   3.457   0.580  10.592 -0.0327 -0.8189 -0.5722
12523TIP3    H158984   3.414   0.633  10.659  0.6248  1.6766 -1.9915
12523TIP3    H258985   3.386   0.549  10.537 -0.5173 -2.3475  0.8200
12524TIP3   OH258986   4.213   0.322  14.022 -0.2848 -0.1224 -0.9520
12524TIP3    H158987   4.226   0.246  13.965 -0.3031 -1.6888  1.0134
12524TIP3    H258988   4.302   0.356  14.036 -0.2142 -0.1266 -1.3698
12525TIP3   OH258989   3.755   2.872  15.428  0.3847  0.0584 -0.1620
12525TIP3    H158990   3.839   2.833  15.407 -0.0118 -0.1959 -1.3657
12525TIP3    H258991   3.703   2.861  15.349 -1.3304 -1.2256  1.0541
12526TIP3   OH258992   1.122   1.578  12.294  0.0626 -0.0976  0.4391
12526TIP3    H158993   1.175   1.522  12.238 -0.6346  0.0616 -0.4107
12526TIP3    H258994   1.184   1.637  12.336  0.6114 -0.2658 -0.1290
12527TIP3   OH258995   0.927   6.398   4.132 -0.3100 -0.4642 -0.0171
12527TIP3    H158996   0.855   6.367   4.078 -0.5303  0.3502 -0.2163
12527TIP3    H258997   0.888   6.414   4.218 -1.0789  2.5403 -0.7873
12528TIP3   OH258998   2.584   2.120  12.462 -0.1289  0.3966  0.1677
12528TIP3    H158999   2.507   2.146  12.410 -0.0366 -2.0223 -1.3387
12528TIP3    H259000   2.646   2.085  12.398  0.6378 -1.2813  1.7306
12529TIP3   OH259001   3.653   2.390  15.873  0.3278  0.0338 -0.0044
12529TIP3    H159002   3.688   2.309  15.836 -1.1520 -0.9537  0.6782
12529TIP3    H259003   3.726   2.425  15.924  0.8187 -1.1596  0.1590
12530TIP3   OH259004   3.667   2.220  10.471 -0.2532  0.4056  0.0129
12530TIP3    H159005   3.585   2.266  10.485 -0.0352  1.3556 -1.5634
12530TIP3    H259006   3.665   2.148  10.533 -1.7678  1.0517  0.7689
12531TIP3   OH259007   5.592   5.348  13.528  0.3343 -0.2907  0.2342
12531TIP3    H159008   5.565   5.332  13.437  0.1316  2.2406 -0.2078
12531TIP3    H259009   5.523   5.402  13.565  2.5490  2.6512  0.4063
12532TIP3   OH259010   2.858   3.325  16.985  1.2007 -0.6654 -0.5920
12532TIP3    H159011   2.905   3.260  16.933  1.8851 -0.8069  0.1842
12532TIP3    H259012   2.824   3.277  17.060  1.8846 -0.0988  0.0965
12533TIP3   OH259013   6.326   3.474  14.769  0.3428 -0.2021  0.1151
12533TIP3    H159014   6.391   3.525  14.720 -0.4057 -1.1952 -2.0263
12533TIP3    H259015   6.243   3.493  14.726 -0.4449 -0.7575  1.3427
12534TIP3   OH259016   4.368   4.661  17.372 -0.1920 -0.2585  0.5336
12534TIP3    H159017   4.294   4.694  17.423 -0.0862  0.1352  0.4379
12534TIP3    H259018   4.332   4.589  17.320 -0.5446  0.0298  0.3774
12535TIP3   OH259019   0.298   3.262   3.714 -0.4595 -0.2326  0.3075
12535TIP3    H159020   0.357   3.337   3.706 -1.5082  0.5089 -0.6321
12535TIP3    H259021   0.285   3.232   3.624 -2.5863  0.4722  0.3372
12536TIP3   OH259022   2.309   3.400  14.012 -0.2023  0.7369 -0.2895
12536TIP3    H159023   2.214   3.407  14.021 -0.2546 -0.6964  0.5874
12536TIP3    H259024   2.322   3.337  13.940  0.0148 -1.0965  1.2841
12537TIP3   OH259025   0.717   6.159  17.106 -0.0660  0.1231  0.2614
12537TIP3    H159026   0.643   6.129  17.158  0.3236 -1.5475 -0.0948
12537TIP3    H259027   0.690   6.143  17.015 -1.4274  4.4717 -0.3779
12538TIP3   OH259028   0.988   3.728   3.441  0.0306 -0.2047 -0.2691
12538TIP3    H159029   1.045   3.747   3.366 -0.6359  0.1021 -0.7125
12538TIP3    H259030   1.040   3.669   3.496  0.7473  0.0181 -0.6873
12539TIP3   OH259031   5.247   6.511  12.931  0.1663  0.2468  0.7362
12539TIP3    H159032   5.197   6.581  12.889 -1.0840 -0.9630  0.1156
12539TIP3    H259033   5.296   6.470  12.860 -1.5041 -1.4368  0.4782
12540TIP3   OH259034   4.228   6.759  14.507  0.3144  0.3252 -0.1416
12540TIP3    H159035   4.279   6.798  14.436  2.0422  0.3868  1.0928
12540TIP3    H259036   4.165   6.827  14.531  0.3466  0.6542 -0.9502
12541TIP3   OH259037   1.131   4.206   4.417 -0.3111  0.0745 -0.3539
12541TIP3    H159038   1.166   4.140   4.357  2.0804  1.5906 -0.7726
12541TIP3    H259039   1.105   4.156   4.494  0.2008 -1.4938 -1.1409
12542TIP3   OH259040   3.147   0.387  12.931 -0.2557 -0.1319 -0.5110
12542TIP3    H159041   3.156   0.482  12.920 -0.6053  0.1437  1.3074
12542TIP3    H259042   3.084   0.361  12.863  1.0781  0.6250 -2.1346
12543TIP3   OH259043   0.722   3.924   0.708  0.0139  0.3552  0.4283
12543TIP3    H159044   0.739   3.830   0.700 -0.2061  0.2018  1.5814
12543TIP3    H259045   0.658   3.930   0.779  0.8622  1.4536  1.1203
12544TIP3   OH259046   1.408   5.451  14.347 -0.2741 -0.0574 -0.2466
12544TIP3    H159047   1.329   5.436  14.295 -0.6445 -0.6468  0.4683
12544TIP3    H259048   1.403   5.386  14.417  0.4789  0.3849  0.2272
12545TIP3   OH259049   3.820   1.424  15.720 -0.4139  0.3620 -0.3178
12545TIP3    H159050   3.765   1.358  15.678 -3.3705  1.2638  1.8387
12545TIP3    H259051   3.805   1.411  15.814  3.0737  0.7777  0.4618
12546TIP3   OH259052   3.505   0.609  12.699  0.3365 -0.0540 -0.1590
12546TIP3    H159053   3.582   0.660  12.675  1.2223 -1.0392  0.5086
12546TIP3    H259054   3.476   0.648  12.782  0.1741  0.2594 -0.3635
12547TIP3   OH259055   1.902   4.159   0.144 -0.3563 -0.5154 -0.1374
12547TIP3    H159056   1.850   4.146   0.065  1.0941  0.4480 -1.2953
12547TIP3    H259057   1.901   4.254   0.158  0.7132 -0.5147  0.0437
12548TIP3   OH259058   0.682   6.500   5.997 -0.6750  0.0484  0.5443
12548TIP3    H159059   0.775   6.486   5.978 -0.4586  0.2034  1.4376
12548TIP3    H259060   0.675   6.489   6.092 -1.4233  0.8719  0.6004
12549TIP3   OH259061   1.393   1.218   3.975  0.2822 -0.5019  0.3391
12549TIP3    H159062   1.440   1.298   4.000  0.2746 -0.1713 -0.6675
12549TIP3    H259063   1.461   1.151   3.972  0.3018 -0.5365  1.1130
12550TIP3   OH259064   3.562   3.281   3.755 -0.1480  0.1821 -0.1497
12550TIP3    H159065   3.479   3.257   3.795  0.0667 -1.4295 -0.6106
12550TIP3    H259066   3.603   3.340   3.818 -0.9579 -0.2330  0.7811
12551TIP3   OH259067   5.910   4.183   0.862  0.1413  0.1350 -0.0216
12551TIP3    H159068   5.957   4.104   0.835  1.2503  0.7014  0.1934
12551TIP3    H259069   5.866   4.213   0.782 -0.5889 -0.8849 -0.0183
12552TIP3   OH259070   2.895   1.048  17.035 -0.0016  0.0031  0.3094
12552TIP3    H159071   2.831   0.987  17.072  1.5261 -0.3727  2.5600
12552TIP3    H259072   2.930   1.094  17.111  3.3642 -0.7763 -0.6259
12553TIP3   OH259073   4.469   3.173  12.223  0.4021  0.0472 -0.1385
12553TIP3    H159074   4.426   3.144  12.304 -0.7800 -0.6487 -0.9726
12553TIP3    H259075   4.530   3.103  12.201 -0.6850 -0.7239 -0.8466
12554TIP3   OH259076   2.510   5.509  13.075  0.0304  0.3197  0.1034
12554TIP3    H159077   2.513   5.592  13.026  0.3979  0.8041  0.9332
12554TIP3    H259078   2.489   5.535  13.165  0.5755 -0.4461  0.4634
12555TIP3   OH259079   4.838   5.497   5.629  0.0347  0.5638 -0.2216
12555TIP3    H159080   4.905   5.439   5.665 -1.2649 -0.6902  0.2480
12555TIP3    H259081   4.876   5.529   5.547  0.1862 -2.2384 -1.3370
12556TIP3   OH259082   4.961   1.426  13.722  0.5908 -0.0773 -0.0693
12556TIP3    H159083   4.933   1.459  13.636 -1.2188 -0.6380  0.2474
12556TIP3    H259084   4.892   1.365  13.747  2.0896 -1.4311  0.9289
12557TIP3   OH259085   1.943   4.526  15.221 -0.1595 -0.0412 -0.3863
12557TIP3    H159086   2.024   4.508  15.269 -0.3523 -0.0676 -0.0690
12557TIP3    H259087   1.965   4.510  15.129  0.0174 -0.6769 -0.2372
12558TIP3   OH259088   2.303   4.447  13.876  0.0213 -0.1550  0.1828
12558TIP3    H159089   2.321   4.484  13.963 -1.1041  0.9376 -0.0201
12558TIP3    H259090   2.212   4.420  13.880  0.3725 -1.5060 -0.2061
12559TIP3   OH259091   1.283   1.686  12.507  0.2121  0.5854 -0.0814
12559TIP3    H159092   1.288   1.632  12.586 -0.4829 -3.5027 -2.5081
12559TIP3    H259093   1.214   1.750  12.525 -0.7207 -0.9582  2.2312
12560TIP3   OH259094   2.026   3.134  14.759 -0.2726 -0.2415 -0.3395
12560TIP3    H159095   1.940   3.119  14.798 -0.4425  0.0193 -0.6066
12560TIP3    H259096   2.045   3.053  14.711 -0.2919 -0.3642 -0.1406
12561TIP3   OH259097   2.598   0.776  11.302 -0.5975  0.3061 -0.9842
12561TIP3    H159098   2.515   0.746  11.263 -1.5643  1.1988  0.3053
12561TIP3    H259099   2.663   0.715  11.268 -2.0363 -1.4574 -0.7343
12562TIP3   OH259100   5.456   6.545   1.256  0.1353  1.0831  0.2681
12562TIP3    H159101   5.498   6.623   1.221 -1.0530  0.5707 -2.5378
12562TIP3    H259102   5.366   6.571   1.275 -0.3181  0.4123 -0.8454
12563TIP3   OH259103   4.656   4.285   3.352 -0.1071 -0.1012 -0.2295
12563TIP3    H159104   4.679   4.374   3.378  2.5450 -0.9472  0.5700
12563TIP3    H259105   4.619   4.246   3.431  0.8495 -0.3800  0.0859
12564TIP3   OH259106   0.471   3.400  13.918 -0.3148  0.3235  0.4106
12564TIP3    H159107   0.451   3.488  13.949 -0.9890  0.7144 -1.0745
12564TIP3    H259108   0.448   3.400  13.826 -0.1749 -1.3733  0.3326
12565TIP3   OH259109   6.470   4.347   6.564  0.3503  0.3924  0.1440
12565TIP3    H159110   6.433   4.259   6.572  0.7139  0.3545  1.5970
12565TIP3    H259111   6.414   4.402   6.618  1.1607  0.7215  0.6686
12566TIP3   OH259112   6.012   4.124   2.099 -0.4600  0.6961  0.4493
12566TIP3    H159113   5.919   4.137   2.081 -1.7274 -0.6430  4.8590
12566TIP3    H259114   6.045   4.212   2.119 -0.5149  1.2680 -1.7270
12567TIP3   OH259115   4.282   0.306   5.193 -0.6226 -0.0185 -0.0452
12567TIP3    H159116   4.246   0.366   5.128 -0.7895  0.0890  0.1451
12567TIP3    H259117   4.271   0.351   5.277 -1.8013 -0.7807  0.2349
12568TIP3   OH259118   1.592   5.128  11.166  0.1967  0.1550 -0.0974
12568TIP3    H159119   1.667   5.188  11.172  0.5101 -0.3696  1.7952
12568TIP3    H259120   1.571   5.126  11.073  1.6116  1.4425 -0.4917
12569TIP3   OH259121   3.749   3.226  15.342  0.3412 -0.0168 -0.1973
12569TIP3    H159122   3.681   3.252  15.404  1.1057  1.5153  0.0641
12569TIP3    H259123   3.793   3.308  15.320 -0.1263 -0.4385 -3.0755
12570TIP3   OH259124   2.259   4.628   0.723 -0.7240 -0.4126  0.3149
12570TIP3    H159125   2.327   4.688   0.694 -1.9729  0.8686 -0.0862
12570TIP3    H259126   2.271   4.550   0.668  0.0869 -0.0130 -0.0951
12571TIP3   OH259127   1.525   3.983  12.726  0.2516 -0.3915 -0.2263
12571TIP3    H159128   1.441   3.946  12.754 -0.0129  0.0725 -0.4065
12571TIP3    H259129   1.589   3.914  12.746 -0.1014 -0.5491  0.3768
12572TIP3   OH259130   1.147   4.254  12.360 -0.1107  0.2737 -0.1408
12572TIP3    H159131   1.224   4.206  12.329 -1.1461 -1.1278 -0.5969
12572TIP3    H259132   1.174   4.289  12.445  0.7525 -0.9523  0.1131
12573TIP3   OH259133   2.973   5.886   0.519 -0.5390 -0.0397  0.0381
12573TIP3    H159134   3.005   5.947   0.452 -2.0162 -0.7163 -1.3523
12573TIP3    H259135   3.041   5.818   0.523 -0.8892 -0.5339 -1.5742
12574TIP3   OH259136   0.475   3.926   2.491 -0.5146 -0.0267 -0.2914
12574TIP3    H159137   0.423   3.944   2.569 -1.1651 -1.9952 -0.2065
12574TIP3    H259138   0.566   3.938   2.519 -0.7733 -0.0284  0.5752
12575TIP3   OH259139   0.633   3.556   4.797 -0.5632  0.2874  0.2392
12575TIP3    H159140   0.651   3.641   4.756  0.4597  0.7591  1.5923
12575TIP3    H259141   0.565   3.517   4.742  1.4354  0.3914 -2.5350
12576TIP3   OH259142   2.558   1.914   2.574 -0.6829 -0.4222  0.2740
12576TIP3    H159143   2.619   1.949   2.639 -1.0551  0.2343  0.2781
12576TIP3    H259144   2.600   1.834   2.543  0.2335  0.0737  0.1951
12577TIP3   OH259145   0.421   0.773  16.166  0.2473  0.0499 -0.0872
12577TIP3    H159146   0.371   0.852  16.186 -0.1244  0.0950 -1.1295
12577TIP3    H259147   0.431   0.728  16.250 -1.1772  0.2484  0.2114
12578TIP3   OH259148   4.034   3.920  15.347 -0.4056 -0.1737 -0.2292
12578TIP3    H159149   4.059   3.888  15.433 -0.0093  0.8451  0.0459
12578TIP3    H259150   4.080   3.864  15.285 -0.8891 -1.0695  0.2071
12579TIP3   OH259151   3.664   5.567  15.408 -0.4956 -0.5706  0.5420
12579TIP3    H159152   3.654   5.662  15.418 -1.3604 -0.4909 -0.8334
12579TIP3    H259153   3.574   5.533  15.410 -0.8718 -0.6841 -4.6365
12580TIP3   OH259154   1.475   4.853   3.868  0.3066 -0.3806  0.3220
12580TIP3    H159155   1.391   4.879   3.830 -0.3257 -0.2099  1.7707
12580TIP3    H259156   1.538   4.863   3.797 -0.7469  0.3627 -0.5371
12581TIP3   OH259157   6.485   1.289   0.710 -0.8089 -0.0446 -0.2031
12581TIP3    H159158   6.393   1.302   0.733 -1.1405 -2.9602  0.5397
12581TIP3    H259159   6.530   1.364   0.748 -2.4408 -0.4308  2.8126
12582TIP3   OH259160   3.145   6.001  15.763  0.6348 -0.2343  0.3045
12582TIP3    H159161   3.213   6.036  15.705 -0.8107  1.7698 -0.3058
12582TIP3    H259162   3.183   6.005  15.850  1.1429  1.4101  0.0472
12583TIP3   OH259163   3.801   3.700   4.942 -0.1160  0.0980  0.1019
12583TIP3    H159164   3.751   3.620   4.957 -0.9839  0.6863  0.3991
12583TIP3    H259165   3.859   3.706   5.019 -0.4204  0.0313  0.3389
12584TIP3   OH259166   5.078   5.384  16.514  0.0421 -0.0484  0.0653
12584TIP3    H159167   5.162   5.344  16.491  0.6763  1.7245 -0.8657
12584TIP3    H259168   5.098   5.442  16.587 -0.3935  0.3088 -0.0953
12585TIP3   OH259169   3.199   0.582   3.929  0.0960 -0.2591 -0.2308
12585TIP3    H159170   3.248   0.661   3.955  0.1661 -0.4596  0.2517
12585TIP3    H259171   3.201   0.584   3.833  1.9476 -0.7865 -0.2588
12586TIP3   OH259172   4.750   6.119   3.003 -0.3564  0.8507 -0.0249
12586TIP3    H159173   4.686   6.064   2.958  0.3173  0.1969 -0.2134
12586TIP3    H259174   4.763   6.075   3.088  0.2427  0.6670 -0.2089
12587TIP3   OH259175   6.074   0.471  14.164 -0.2275  0.5687  0.0058
12587TIP3    H159176   5.992   0.423  14.150 -0.6161  1.1386  0.2623
12587TIP3    H259177   6.116   0.472  14.078 -0.4534  0.2096 -0.1120
12588TIP3   OH259178   2.594   2.399  12.897 -0.2015 -0.2867 -0.1151
12588TIP3    H159179   2.605   2.410  12.803 -0.4707 -1.3724 -0.2815
12588TIP3    H259180   2.631   2.313  12.916 -1.7432 -0.8465  0.4874
12589TIP3   OH259181   4.747   4.474   1.068 -0.0847  0.0287  0.2072
12589TIP3    H159182   4.683   4.435   1.127  0.3324  1.4774  1.6759
12589TIP3    H259183   4.712   4.561   1.049  0.0682 -0.1972 -1.2744
12590TIP3   OH259184   2.629   2.490  11.658  0.0224  0.4413  0.0529
12590TIP3    H159185   2.713   2.533  11.643  1.1163 -1.5132  0.3155
12590TIP3    H259186   2.643   2.435  11.735 -1.8181  0.8588  0.7292
12591TIP3   OH259187   2.657   0.633   6.755 -0.0946  0.2786 -0.2453
12591TIP3    H159188   2.603   0.705   6.723  1.6309  1.5904 -0.3731
12591TIP3    H259189   2.625   0.616   6.844 -0.4846  1.2538 -0.1945
12592TIP3   OH259190   5.861   0.881   4.283  0.2036 -0.6238  0.5128
12592TIP3    H159191   5.881   0.937   4.208 -0.5495  0.8082  1.3417
12592TIP3    H259192   5.943   0.877   4.332  0.0731  0.3735  0.8286
12593TIP3   OH259193   3.226   6.263   4.190  0.1296  0.0096 -0.1740
12593TIP3    H159194   3.219   6.241   4.282  1.4142 -0.4887 -0.1771
12593TIP3    H259195   3.152   6.322   4.173  0.7800  1.4040  1.5453
12594TIP3   OH259196   6.370   4.955  14.023  0.0738 -0.0966 -0.1942
12594TIP3    H159197   6.283   4.975  14.058 -0.5950  0.2307 -1.9649
12594TIP3    H259198   6.407   4.892  14.085 -1.9286 -1.2093 -0.0691
12595TIP3   OH259199   4.996   2.938   6.340  0.1291  0.2124 -0.3138
12595TIP3    H159200   5.050   2.860   6.328  1.1226  0.4369  2.0146
12595TIP3    H259201   4.907   2.905   6.354  0.2962 -0.4060 -0.7027
12596TIP3   OH259202   6.278   6.267  17.236 -0.2628 -0.0030  0.0602
12596TIP3    H159203   6.188   6.251  17.263 -0.2456 -0.2956 -0.0421
12596TIP3    H259204   6.272   6.338  17.172 -0.5061 -0.4807 -0.4603
12597TIP3   OH259205   2.918   5.948   1.069  0.0857  0.1407 -0.2436
12597TIP3    H159206   2.912   5.949   1.165 -3.6549 -0.8146 -0.2817
12597TIP3    H259207   2.953   5.861   1.049 -0.3079 -0.1566  0.2923
12598TIP3   OH259208   6.668   6.247   3.467  0.1203 -0.3956  0.0371
12598TIP3    H159209   6.713   6.166   3.490 -0.7060 -0.8133  0.2049
12598TIP3    H259210   6.675   6.252   3.372  0.5721 -0.4261  0.0681
12599TIP3   OH259211   0.388   5.929   0.170 -0.2845  0.3457  0.4488
12599TIP3    H159212   0.327   5.955   0.102 -1.2985 -3.0818 -0.1370
12599TIP3    H259213   0.468   5.906   0.123 -0.7807 -1.4315  0.4210
12600TIP3   OH259214   1.220   3.117   4.570 -0.2754  0.0337  0.0522
12600TIP3    H159215   1.165   3.143   4.496  1.1216  1.0386 -0.6917
12600TIP3    H259216   1.167   3.135   4.647 -1.0966  0.7027 -0.6520
12601TIP3   OH259217   0.632   4.750  15.172 -0.1780 -0.0714  0.4374
12601TIP3    H159218   0.632   4.712  15.260 -2.7546  0.5156  0.7753
12601TIP3    H259219   0.637   4.674  15.114  1.3713 -0.4802  1.0573
12602TIP3   OH259220   5.915   0.505  12.138  0.0782 -0.0526  0.1528
12602TIP3    H159221   5.849   0.470  12.078  0.4651 -1.6783  0.6096
12602TIP3    H259222   5.998   0.473  12.103  0.4025 -0.0679  0.9287
12603TIP3   OH259223   0.402   2.580  10.819 -0.2326 -0.2160 -0.2794
12603TIP3    H159224   0.306   2.585  10.826 -0.2517  1.4887 -1.1926
12603TIP3    H259225   0.419   2.490  10.791 -1.3653 -1.2819  2.0803
12604TIP3   OH259226   1.968   3.347   2.763  0.5911 -0.7606  0.3729
12604TIP3    H159227   1.961   3.319   2.672 -0.3517  0.4448  0.0544
12604TIP3    H259228   1.907   3.420   2.771 -0.6545 -1.9163  2.4014
12605TIP3   OH259229   3.063   3.841  12.229  0.3366 -0.0454 -0.5668
12605TIP3    H159230   3.057   3.935  12.246 -0.1045 -0.3474  1.1024
12605TIP3    H259231   3.049   3.833  12.135 -2.4706  1.3318 -0.3497
12606TIP3   OH259232   6.051   6.691   5.995 -0.2826 -0.4014  0.2829
12606TIP3    H159233   6.113   6.624   6.024 -2.2679 -2.0405  0.9419
12606TIP3    H259234   6.064   6.764   6.056  0.4941 -0.9983  0.8432
12607TIP3   OH259235   2.393   2.661  14.772  0.0673  0.4020  0.0307
12607TIP3    H159236   2.353   2.685  14.688 -0.4259  2.4836  0.8084
12607TIP3    H259237   2.319   2.650  14.831  0.3560 -2.0030  0.0230
12608TIP3   OH259238   2.499   5.523   0.703  0.3125 -0.6296  0.5261
12608TIP3    H159239   2.586   5.488   0.681 -0.1226 -1.1600 -0.3755
12608TIP3    H259240   2.486   5.595   0.642  0.4768  0.0362  1.2520
12609TIP3   OH259241   1.766   2.589   0.261  0.5164 -0.1367  0.0757
12609TIP3    H159242   1.739   2.674   0.297 -0.0283  0.3492 -1.3990
12609TIP3    H259243   1.856   2.602   0.232  0.9660 -0.5373  1.2193
12610TIP3   OH259244   4.928   3.764  13.917  0.5401 -0.4897 -0.5349
12610TIP3    H159245   4.924   3.833  13.850 -0.3278 -1.3482 -1.4115
12610TIP3    H259246   4.990   3.797  13.982 -0.2565  1.3561 -0.6394
12611TIP3   OH259247   4.761   3.122  12.624 -0.2323  0.1226 -0.6999
12611TIP3    H159248   4.785   3.148  12.534 -1.5489  1.0417 -0.8030
12611TIP3    H259249   4.767   3.203  12.674 -0.7361 -0.1308 -0.2253
12612TIP3   OH259250   0.033   2.851   0.820  0.5800  0.7051  0.1225
12612TIP3    H159251   0.060   2.924   0.765  2.9087 -0.4834 -0.4237
12612TIP3    H259252  -0.008   2.893   0.896  1.4373  2.5779 -0.3800
12613TIP3   OH259253   1.697   6.230  12.498  0.1644  0.5300  0.0795
12613TIP3    H159254   1.627   6.175  12.464 -0.9535  1.1153  1.3347
12613TIP3    H259255   1.651   6.298  12.548  1.6295  1.0153  0.8082
12614TIP3   OH259256   4.500   1.915   6.157 -0.7530  0.9296  0.2999
12614TIP3    H159257   4.539   1.902   6.243  2.1850  0.2547 -1.0224
12614TIP3    H259258   4.462   1.830   6.135 -0.6572  0.8254  0.5310
12615TIP3   OH259259   2.779   4.709   2.045 -0.0998 -0.1782  0.2091
12615TIP3    H159260   2.838   4.642   2.011  1.7362  1.4032  0.0754
12615TIP3    H259261   2.695   4.691   2.003  0.9927 -0.9010 -1.8000
12616TIP3   OH259262   1.344   5.721  15.446 -0.3452 -0.1048  0.0580
12616TIP3    H159263   1.277   5.786  15.466 -0.2203  0.7185 -2.0190
12616TIP3    H259264   1.317   5.682  15.363  1.2710 -0.3755 -0.3839
12617TIP3   OH259265   1.915   4.458  12.827  0.1048  0.2729 -0.3167
12617TIP3    H159266   1.995   4.430  12.783  0.3444  1.3300 -0.5690
12617TIP3    H259267   1.870   4.513  12.763  0.8491  2.5175  0.9925
12618TIP3   OH259268   5.652   2.607  16.235 -0.1297 -0.3242  0.3510
12618TIP3    H159269   5.681   2.695  16.257  1.7105 -1.0906  1.2124
12618TIP3    H259270   5.564   2.600  16.272 -0.1264  1.0011  0.6381
12619TIP3   OH259271   5.883   5.083  15.926  0.6490  0.0345 -0.2990
12619TIP3    H159272   5.820   5.108  15.993  1.1780  1.8889 -0.4385
12619TIP3    H259273   5.908   4.994  15.949  0.3863  0.4105  1.6342
12620TIP3   OH259274   1.673   3.101   4.090 -0.3362  0.4207  0.4668
12620TIP3    H159275   1.769   3.101   4.085 -0.2980 -1.7437  0.1253
12620TIP3    H259276   1.645   3.125   4.001 -0.0296 -1.4085 -0.1803
12621TIP3   OH259277   3.698   0.501  16.854  0.3371  0.2255 -0.6649
12621TIP3    H159278   3.711   0.596  16.851  0.8794  0.1325 -1.4502
12621TIP3    H259279   3.660   0.480  16.769  0.6565 -0.3232 -0.6748
12622TIP3   OH259280   1.232   2.782   3.213  0.6655 -0.1703  0.0795
12622TIP3    H159281   1.308   2.724   3.222 -0.4405 -1.8342 -0.6320
12622TIP3    H259282   1.238   2.841   3.288  2.7180 -0.1524 -0.0405
12623TIP3   OH259283   2.057   1.154  11.301  0.3370  0.3041 -0.0145
12623TIP3    H159284   2.004   1.158  11.381  0.1389 -1.2139 -0.0513
12623TIP3    H259285   1.999   1.189  11.233  0.3626  1.2146  0.4051
12624TIP3   OH259286   4.221   5.117  15.540 -0.3546  0.1786 -0.2549
12624TIP3    H159287   4.233   5.179  15.468 -0.1367  1.5642  0.9141
12624TIP3    H259288   4.129   5.091  15.534 -0.8711  1.7752  0.0594
12625TIP3   OH259289   3.979   3.839   3.462 -0.2759 -0.2479  1.0746
12625TIP3    H159290   3.975   3.931   3.488 -0.3731  0.4267 -1.0890
12625TIP3    H259291   4.067   3.810   3.487 -0.3384  0.3268  2.0197
12626TIP3   OH259292   4.958   0.853  11.660 -0.4913 -0.3114  0.0920
12626TIP3    H159293   4.957   0.946  11.679  2.4080  0.1483 -1.3121
12626TIP3    H259294   5.046   0.824  11.685 -0.8307 -2.3317 -0.7960
12627TIP3   OH259295   4.358   3.793   0.084  0.2379 -0.6974 -0.3531
12627TIP3    H159296   4.376   3.700   0.075 -1.0194 -1.0263  0.3422
12627TIP3    H259297   4.270   3.804   0.049  0.7776  0.4348 -1.4246
12628TIP3   OH259298   3.404   1.231  11.819 -0.3822 -0.2661  0.4689
12628TIP3    H159299   3.336   1.169  11.845  0.5508 -1.5313  0.0286
12628TIP3    H259300   3.484   1.197  11.859  0.2508  0.3137 -0.2676
12629TIP3   OH259301   3.716   2.986  16.019 -0.2177 -0.6553  0.1236
12629TIP3    H159302   3.635   3.023  15.984 -0.0156  1.3885  1.6524
12629TIP3    H259303   3.784   3.048  15.992  0.4807 -1.1055  0.8132
12630TIP3   OH259304   2.754   2.295   2.789  0.8289  0.9389  0.0306
12630TIP3    H159305   2.759   2.335   2.875  1.7346  1.1903 -0.1306
12630TIP3    H259306   2.836   2.319   2.746  0.4507  0.7017 -0.8505
12631TIP3   OH259307   3.938   1.872   1.293  0.0459 -0.2993 -0.1102
12631TIP3    H159308   3.854   1.890   1.251 -0.2259 -2.9136 -0.8749
12631TIP3    H259309   3.947   1.941   1.359 -0.3845  2.8796 -3.0962
12632TIP3   OH259310   5.974   3.302   4.995 -0.7680 -0.1698 -0.6712
12632TIP3    H159311   6.036   3.330   5.062 -0.6597 -1.8514 -0.0410
12632TIP3    H259312   5.992   3.360   4.921  0.2577  0.6114  0.1537
12633TIP3   OH259313   1.027   1.137  14.538  0.3320 -0.3527 -0.2460
12633TIP3    H159314   1.053   1.122  14.629  1.0672 -0.5362 -0.4804
12633TIP3    H259315   1.078   1.213  14.511 -0.6645  0.3579 -0.1928
12634TIP3   OH259316   3.562   4.058  16.010 -0.4752  0.0827  0.7947
12634TIP3    H159317   3.491   4.033  16.070 -2.1506  1.9177 -0.3086
12634TIP3    H259318   3.517   4.084  15.930  1.6505 -1.4631 -1.0225
12635TIP3   OH259319   2.661   4.664   7.026  0.1870 -0.1549  0.0576
12635TIP3    H159320   2.753   4.692   7.028  0.6439 -1.6241  1.3668
12635TIP3    H259321   2.664   4.569   7.022 -1.2821 -0.2480  0.4261
12636TIP3   OH259322   4.374   3.480  14.009  0.1938 -0.5429 -0.3197
12636TIP3    H159323   4.448   3.501  14.067  0.0142 -2.3208  0.6375
12636TIP3    H259324   4.339   3.565  13.983  1.0429  0.3341  1.2289
12637TIP3   OH259325   4.512   5.420   4.860  0.0349 -0.1910 -0.1589
12637TIP3    H159326   4.481   5.387   4.776  1.2712 -1.0725 -0.3004
12637TIP3    H259327   4.602   5.388   4.867  0.4946  1.1823  0.7960
12638TIP3   OH259328   5.468   0.594  17.151  0.4380 -0.0131  0.0394
12638TIP3    H159329   5.491   0.505  17.180 -1.0004 -0.3836  0.1392
12638TIP3    H259330   5.509   0.602  17.065 -0.4269 -1.2788 -0.5390
12639TIP3   OH259331   4.008   6.551   0.345  0.5343  0.0807 -0.1283
12639TIP3    H159332   3.917   6.549   0.314  0.8145  0.3066 -1.0161
12639TIP3    H259333   4.008   6.615   0.416  0.0112  0.1294 -0.1699
12640TIP3   OH259334   5.113   3.793   5.341  0.4006 -0.3944 -0.0325
12640TIP3    H159335   5.037   3.753   5.383  0.0614  0.6399  0.3737
12640TIP3    H259336   5.097   3.888   5.347  1.7798 -0.1543  0.1661
12641TIP3   OH259337   1.538   6.131   3.627  0.2433 -0.4785  0.2818
12641TIP3    H159338   1.560   6.166   3.541  0.4018 -2.5510 -0.5985
12641TIP3    H259339   1.442   6.139   3.632  0.2449 -0.2421 -0.0456
12642TIP3   OH259340   5.409   3.682  13.001 -0.3994  0.0169  0.3330
12642TIP3    H159341   5.320   3.650  13.017  0.3537 -1.7143  1.3294
12642TIP3    H259342   5.425   3.662  12.909 -0.9197  0.0253  0.2354
12643TIP3   OH259343   5.097   3.020   5.508 -0.4133  0.0023 -0.0260
12643TIP3    H159344   5.164   2.987   5.448  0.3951  1.4528  0.0181
12643TIP3    H259345   5.014   3.002   5.464  0.0688 -0.7029 -0.6707
12644TIP3   OH259346   3.972   4.254   1.772 -0.1812  0.2232  0.0376
12644TIP3    H159347   3.880   4.276   1.753  0.2072  0.8813 -1.1501
12644TIP3    H259348   3.969   4.220   1.862 -1.4320  1.2980  0.4595
12645TIP3   OH259349   1.996   2.816   4.282  0.5317 -0.9051 -0.6013
12645TIP3    H159350   1.973   2.739   4.334 -0.0566 -0.2699  0.1074
12645TIP3    H259351   1.932   2.882   4.308  1.8829  0.2708 -0.1495
12646TIP3   OH259352   6.034   2.267  15.944  0.2199 -0.0082 -0.3602
12646TIP3    H159353   5.981   2.205  15.994  0.3840 -0.5570 -0.8446
12646TIP3    H259354   6.114   2.278  15.995  0.0946 -0.0305 -0.1612
12647TIP3   OH259355   0.607   5.503   1.421  0.5793  0.0744 -0.4264
12647TIP3    H159356   0.622   5.436   1.355 -1.3856 -1.7085  0.8089
12647TIP3    H259357   0.525   5.545   1.395  0.8526  0.7543 -0.2106
12648TIP3   OH259358   1.031   5.910  14.575  0.2917  0.2279 -0.1121
12648TIP3    H159359   0.983   5.955  14.645  1.1506  3.6138 -1.5055
12648TIP3    H259360   0.973   5.915  14.499  1.0185  0.3354 -0.6697
12649TIP3   OH259361   4.472   4.024  13.304  0.2255  0.0005  0.0675
12649TIP3    H159362   4.527   3.953  13.337 -0.0913 -0.0060  0.5961
12649TIP3    H259363   4.462   4.083  13.379  0.7598  0.7843 -0.4557
12650TIP3   OH259364   5.537   5.619   4.555  0.1303 -0.0728  0.5243
12650TIP3    H159365   5.510   5.536   4.515 -0.7832 -0.1946  1.3639
12650TIP3    H259366   5.551   5.678   4.482  0.4329 -0.8628 -0.0665
12651TIP3   OH259367   2.983   3.141   1.610  0.4407  0.2418 -0.4016
12651TIP3    H159368   2.945   3.118   1.695  0.5860  1.8306  0.1246
12651TIP3    H259369   3.029   3.061   1.582  0.1578 -0.4003  0.8713
12652TIP3   OH259370   4.068   6.370  16.683  0.0071 -0.1504  0.0931
12652TIP3    H159371   4.134   6.440  16.675  0.7372 -0.8323  0.0372
12652TIP3    H259372   4.039   6.376  16.774  2.2639 -1.6638  1.0072
12653TIP3   OH259373   4.735   2.177  15.594  0.7744 -0.0914  0.3465
12653TIP3    H159374   4.673   2.216  15.656  1.3691 -1.1909  1.6853
12653TIP3    H259375   4.764   2.250  15.539 -0.4103  0.7505  0.8058
12654TIP3   OH259376   3.797   5.830  16.621 -0.0527 -0.3330  0.1147
12654TIP3    H159377   3.804   5.735  16.617  0.6039 -0.3556  1.4334
12654TIP3    H259378   3.803   5.851  16.714 -1.0409  0.9446 -0.0825
12655TIP3   OH259379   5.498   6.279  15.103  0.1194 -0.0332  0.0908
12655TIP3    H159380   5.582   6.233  15.110 -1.1356 -2.6091 -0.7316
12655TIP3    H259381   5.508   6.335  15.026  0.8400 -0.9234 -0.4814
12656TIP3   OH259382   1.438   1.701  12.168  0.1238  0.1356  0.0076
12656TIP3    H159383   1.450   1.611  12.137  2.6782 -0.1409  1.5333
12656TIP3    H259384   1.412   1.691  12.260  0.7683  0.9337  0.2864
12657TIP3   OH259385   1.635   4.076   1.948 -0.0588  1.0259  0.4581
12657TIP3    H159386   1.648   4.041   1.860  1.8439  1.8808  0.3588
12657TIP3    H259387   1.630   4.171   1.936 -1.2407  1.0796  1.1462
12658TIP3   OH259388   1.894   3.281   2.408  0.0582 -0.1617 -0.6880
12658TIP3    H159389   1.900   3.252   2.317  0.0668  0.6152 -0.9358
12658TIP3    H259390   1.952   3.356   2.413  2.4828 -1.9828  0.7051
12659TIP3   OH259391   2.269   2.977   2.173 -0.0285  0.4693  0.4172
12659TIP3    H159392   2.354   3.006   2.206 -0.0328  0.4812  0.4175
12659TIP3    H259393   2.252   2.896   2.220 -0.9303  1.4703  1.9151
12660TIP3   OH259394   3.022   1.359  14.855  0.2251  0.5287 -0.5514
12660TIP3    H159395   3.010   1.448  14.821  0.2381 -0.0398 -2.0938
12660TIP3    H259396   2.982   1.302  14.790 -0.6300 -0.5715  0.8787
12661TIP3   OH259397   1.920   3.360  14.635 -0.0210  0.3236  0.2118
12661TIP3    H159398   1.953   3.276  14.667 -1.0959 -0.1342  0.1800
12661TIP3    H259399   1.835   3.370  14.678 -0.1453  1.1385 -0.2005
12662TIP3   OH259400   0.106   4.158  12.951 -0.0725  0.1661  0.1889
12662TIP3    H159401   0.028   4.210  12.972  0.2644  0.4132  0.8629
12662TIP3    H259402   0.172   4.188  13.013  0.9625  0.8691 -1.2031
12663TIP3   OH259403   0.649   6.295   4.242  0.2869  0.0675 -0.1530
12663TIP3    H159404   0.657   6.201   4.223 -1.1192 -0.6109  2.1709
12663TIP3    H259405   0.734   6.320   4.277  0.6454 -0.3567 -0.7070
12664TIP3   OH259406   3.280   5.496  13.066  0.3504  0.3108 -0.1720
12664TIP3    H159407   3.191   5.467  13.086  0.3349  0.7483  0.4274
12664TIP3    H259408   3.321   5.510  13.152  0.5002  1.5841 -0.4266
12665TIP3   OH259409   4.995   3.956   3.232 -0.5588  0.1011  0.6406
12665TIP3    H159410   5.006   3.861   3.235  0.5222  0.2275  1.0425
12665TIP3    H259411   4.900   3.968   3.224 -0.7681 -0.9997  1.1447
12666TIP3   OH259412   2.907   5.652  16.991  0.5939  0.3836 -0.0646
12666TIP3    H159413   2.904   5.652  17.087 -1.5749  0.0103 -0.0868
12666TIP3    H259414   2.958   5.574  16.969 -1.5522 -1.3650  0.8073
12667TIP3   OH259415   4.650   1.504   4.886  0.1138 -0.7616  0.0266
12667TIP3    H159416   4.572   1.484   4.938 -0.9416  2.4684 -0.1062
12667TIP3    H259417   4.716   1.527   4.951 -0.6959  1.5820  0.1310
12668TIP3   OH259418   1.548   3.542  11.884  0.1714 -0.2110 -0.2900
12668TIP3    H159419   1.552   3.608  11.953  0.6278  1.5467 -1.9011
12668TIP3    H259420   1.639   3.521  11.864  0.1278  0.7542 -1.6299
12669TIP3   OH259421   3.220   5.856   0.108 -0.3827 -0.1165  0.1038
12669TIP3    H159422   3.306   5.857   0.151 -0.7276  0.5425  0.7811
12669TIP3    H259423   3.169   5.793   0.158  0.0173 -1.3528 -0.9650
12670TIP3   OH259424   2.906   5.123  16.366  0.6885  0.0727 -0.5064
12670TIP3    H159425   2.991   5.154  16.335  0.2706  0.4069 -1.3685
12670TIP3    H259426   2.861   5.202  16.397  0.4548 -0.0024 -0.6488
12671TIP3   OH259427   4.711   1.139  11.216 -0.3630 -0.0464 -0.7790
12671TIP3    H159428   4.687   1.109  11.303  1.1089 -0.4513 -0.4748
12671TIP3    H259429   4.674   1.075  11.156 -0.6123 -0.2603 -0.3977
12672TIP3   OH259430   4.892   3.565   6.291 -0.5160  0.4191  0.2236
12672TIP3    H159431   4.920   3.656   6.283  1.0307 -0.1765 -2.2147
12672TIP3    H259432   4.932   3.535   6.373  0.7890  1.3600 -0.0253
12673TIP3   OH259433   2.539   0.280  11.989  0.5368 -0.9318  0.3626
12673TIP3    H159434   2.609   0.218  12.007 -0.7120 -2.3434  0.5038
12673TIP3    H259435   2.477   0.269  12.061  0.3607  0.6126  0.4806
12674TIP3   OH259436   5.035   2.011   5.281  0.1040  0.1922 -0.2604
12674TIP3    H159437   5.000   2.087   5.328  1.8338  0.8501  0.0115
12674TIP3    H259438   5.099   1.973   5.341  0.6646 -0.3323 -1.1753
12675TIP3   OH259439   2.748   6.578   0.822 -0.0686  0.8263 -0.3752
12675TIP3    H159440   2.805   6.639   0.869 -0.3415 -0.0666  1.1858
12675TIP3    H259441   2.752   6.607   0.731  2.7710  0.8690 -0.3229
12676TIP3   OH259442   6.141   3.810   6.007 -0.2602 -0.2553  0.0715
12676TIP3    H159443   6.050   3.827   6.030 -0.1951  2.0503 -1.0682
12676TIP3    H259444   6.187   3.808   6.091 -1.0475  0.8694  0.5641
12677TIP3   OH259445   1.733   2.783  15.649 -0.4817  0.1122 -0.1121
12677TIP3    H159446   1.743   2.775  15.554 -1.1848  2.1157 -0.3904
12677TIP3    H259447   1.818   2.757  15.684 -0.7483 -2.4558 -1.1187
12678TIP3   OH259448   3.392   5.952   3.517  0.5337  0.6239 -1.1583
12678TIP3    H159449   3.460   6.005   3.476  1.8664 -1.5087 -1.8794
12678TIP3    H259450   3.318   5.957   3.456  2.1962 -1.8279 -3.6269
12679TIP3   OH259451   4.855   3.307  12.803 -0.4717 -0.2266 -0.3155
12679TIP3    H159452   4.834   3.389  12.758  0.7546  0.8025  0.9118
12679TIP3    H259453   4.779   3.291  12.859 -2.1580 -1.6813 -2.7930
12680TIP3   OH259454   3.555   2.635   2.818  0.1542  0.7724 -0.0771
12680TIP3    H159455   3.554   2.539   2.818  1.8530  0.7255 -0.4996
12680TIP3    H259456   3.638   2.658   2.860 -0.4710  2.0775  0.4855
12681TIP3   OH259457   1.116   0.758  16.019  0.4072 -0.4126 -0.0288
12681TIP3    H159458   1.078   0.734  15.935  0.1460  2.0276 -0.6771
12681TIP3    H259459   1.150   0.847  16.006  0.2016  0.1123  2.4926
12682TIP3   OH259460   0.304   3.576  15.158  0.1829 -0.0690  0.3913
12682TIP3    H159461   0.320   3.633  15.083  1.3828 -0.1871  0.5393
12682TIP3    H259462   0.325   3.488  15.126  1.8536  0.0120  1.1707
12683TIP3   OH259463   3.120   4.139  13.918 -0.2094 -0.4019 -0.0326
12683TIP3    H159464   3.054   4.140  13.987  0.8094  0.0252  0.9604
12683TIP3    H259465   3.203   4.143  13.964  0.5916 -2.3642 -1.1760
12684TIP3   OH259466   3.898   0.496   5.657 -0.4361 -0.1935 -1.2110
12684TIP3    H159467   3.827   0.528   5.712  0.2382 -0.6795 -0.0329
12684TIP3    H259468   3.854   0.454   5.583 -1.3699  3.3651 -2.8972
12685TIP3   OH259469   6.272   1.185  15.017  0.0038  0.2666 -0.0148
12685TIP3    H159470   6.322   1.266  15.033 -0.3566  0.4333  0.2628
12685TIP3    H259471   6.339   1.121  14.994  0.2885  0.6688 -0.3386
12686TIP3   OH259472   1.506   1.361  17.162  0.4553 -0.1876 -0.1640
12686TIP3    H159473   1.485   1.348  17.255  0.7174  2.8250  0.4294
12686TIP3    H259474   1.569   1.433  17.162 -1.2779  1.4937 -2.7679
12687TIP3   OH259475   4.573   5.153   0.791  0.1691 -0.4544  0.0678
12687TIP3    H159476   4.514   5.079   0.779 -0.3565  0.2025 -1.9270
12687TIP3    H259477   4.608   5.170   0.703  1.7258  0.4833  0.8229
12688TIP3   OH259478   6.547   1.093  11.274 -0.4366 -0.9122 -0.2460
12688TIP3    H159479   6.496   1.173  11.289 -0.0431 -0.6336 -0.3543
12688TIP3    H259480   6.509   1.028  11.333 -0.0871 -0.3439  0.6286
12689TIP3   OH259481   3.037   4.555  14.437  0.4137  0.7528  0.3906
12689TIP3    H159482   3.101   4.570  14.368  0.0150 -0.4116 -0.2617
12689TIP3    H259483   3.078   4.588  14.516  2.0227 -0.3869  0.0742
12690TIP3   OH259484   2.524   0.680  12.263  0.4147  0.3051  0.0628
12690TIP3    H159485   2.525   0.598  12.311  0.6886 -0.2965 -0.9246
12690TIP3    H259486   2.437   0.685  12.224 -0.0440  1.1251  1.1462
12691TIP3   OH259487   0.949   6.674  15.723  0.7081  0.3205 -0.1599
12691TIP3    H159488   0.960   6.597  15.779  1.0433  0.4272 -0.0708
12691TIP3    H259489   0.862   6.706  15.742  0.4873 -0.1548 -0.3452
12692TIP3   OH259490   6.598   4.447  17.160 -0.2438 -0.0283 -0.3176
12692TIP3    H159491   6.542   4.503  17.107 -0.7714  0.5402  0.7967
12692TIP3    H259492   6.554   4.443  17.245  0.9508 -0.3053  0.3067
12693TIP3   OH259493   4.322   5.948  13.874  0.0257 -0.0477 -0.7933
12693TIP3    H159494   4.229   5.957  13.856 -0.7206 -1.2910  1.9225
12693TIP3    H259495   4.330   5.867  13.923  2.4802  0.2776 -0.4939
12694TIP3   OH259496   1.051   1.644   1.734 -0.4639  0.3097  0.2223
12694TIP3    H159497   1.065   1.652   1.829 -0.0634 -0.5638  0.2482
12694TIP3    H259498   0.990   1.715   1.713 -0.8064  0.3269  1.1938
12695TIP3   OH259499   2.243   5.538   4.988 -0.6914 -0.1889  0.0744
12695TIP3    H159500   2.233   5.632   4.972  0.5292 -0.0228  0.1947
12695TIP3    H259501   2.256   5.531   5.082 -0.6345 -0.4699  0.0467
12696TIP3   OH259502   5.908   5.998   5.869 -0.5487 -0.2463  0.4825
12696TIP3    H159503   5.850   6.037   5.934 -1.7638 -0.6860 -0.2953
12696TIP3    H259504   5.872   5.911   5.854  0.7354 -0.7981  0.4704
12697TIP3   OH259505   1.777   4.646   0.759 -0.3262  0.1792 -0.2536
12697TIP3    H159506   1.824   4.726   0.732 -0.1148  0.2622  0.3557
12697TIP3    H259507   1.687   4.675   0.774 -0.1171  0.4319  0.5560
12698TIP3   OH259508   0.194   4.301  12.226 -0.3285 -0.7935 -0.1070
12698TIP3    H159509   0.185   4.253  12.145  1.4938 -1.1522 -0.1388
12698TIP3    H259510   0.279   4.345  12.219 -2.0153  2.8518 -0.2840
12699TIP3   OH259511   5.968   2.410   0.959 -0.3076 -0.1928 -0.0869
12699TIP3    H159512   6.000   2.462   0.886  0.1807  1.1624  1.0461
12699TIP3    H259513   5.884   2.451   0.983  0.3616  0.5253  1.1897
12700TIP3   OH259514   5.956   3.269  13.480  0.1101  0.3420  0.1194
12700TIP3    H159515   5.881   3.212  13.498 -0.3355  0.0334 -2.3179
12700TIP3    H259516   5.918   3.348  13.442  0.9388  0.6019 -0.2059
12701TIP3   OH259517   4.159   0.962  16.329  0.4855  0.6767  0.2944
12701TIP3    H159518   4.229   1.028  16.328  0.5906  0.5660 -0.2207
12701TIP3    H259519   4.123   0.966  16.240 -1.2649  1.8946  1.0125
12702TIP3   OH259520   6.315   5.772  14.562  0.1092  0.1338  0.1316
12702TIP3    H159521   6.346   5.762  14.472 -0.5263 -2.8139  0.1543
12702TIP3    H259522   6.360   5.703  14.611  0.4150  1.6480  2.1128
12703TIP3   OH259523   6.500   4.295   3.922  0.3911  0.2378 -0.5993
12703TIP3    H159524   6.515   4.313   3.829  1.3848 -1.9811 -0.9283
12703TIP3    H259525   6.409   4.268   3.927  0.4945 -0.1943 -1.0305
12704TIP3   OH259526   4.442   2.185  14.545 -0.0020  0.1734  0.4475
12704TIP3    H159527   4.415   2.273  14.518 -1.6647 -0.0087  1.4004
12704TIP3    H259528   4.371   2.154  14.602  1.3147 -1.1592  1.4387
12705TIP3   OH259529   6.098   5.174  13.263  0.1237 -0.4022 -0.5430
12705TIP3    H159530   6.190   5.179  13.289  0.0852 -0.5321 -0.3759
12705TIP3    H259531   6.075   5.262  13.235  0.1903 -0.2795 -0.2116
12706TIP3   OH259532   4.389   3.344  10.967 -0.3368 -0.3747  0.1195
12706TIP3    H159533   4.363   3.305  11.050  0.9840 -1.4211  0.0857
12706TIP3    H259534   4.427   3.271  10.918  2.3811  0.9603  0.0860
12707TIP3   OH259535   5.858   0.610   1.329  0.8909  0.0908  0.0197
12707TIP3    H159536   5.840   0.653   1.246 -0.1058  0.5903  0.4776
12707TIP3    H259537   5.925   0.665   1.371  0.8300  0.2659 -0.1128
12708TIP3   OH259538   0.933   6.596   2.955  0.4449 -0.6723  0.7045
12708TIP3    H159539   1.019   6.607   2.916 -0.5322 -0.8915 -1.6609
12708TIP3    H259540   0.912   6.503   2.942 -0.7836 -0.2932 -0.2319
12709TIP3   OH259541   2.904   1.056  14.198 -0.3855  0.2101  0.0959
12709TIP3    H159542   2.958   0.996  14.250 -1.0241  1.4296  2.2754
12709TIP3    H259543   2.948   1.060  14.113  1.5953 -0.6984  1.0163
12710TIP3   OH259544   4.940   6.614   4.117  0.9959  0.1380 -0.4261
12710TIP3    H159545   4.925   6.686   4.179  2.4339 -0.1500  0.3171
12710TIP3    H259546   4.965   6.658   4.036 -1.7233  0.5442 -1.1205
12711TIP3   OH259547   3.735   2.151   0.238 -0.1917  0.1042  0.1213
12711TIP3    H159548   3.729   2.194   0.323  1.6417 -0.2393  0.4583
12711TIP3    H259549   3.810   2.092   0.245  0.1729  0.2611 -1.8141
12712TIP3   OH259550   5.970   1.627   0.572  0.0806  0.6911  0.0135
12712TIP3    H159551   5.876   1.608   0.565  0.0378 -0.7353  2.9767
12712TIP3    H259552   5.976   1.690   0.644  1.2971  2.6010 -1.6388
12713TIP3   OH259553   1.471   1.907  12.021  0.1715 -0.4588 -0.2591
12713TIP3    H159554   1.565   1.921  12.027 -0.0446  0.8750  0.4784
12713TIP3    H259555   1.453   1.832  12.078  0.7106 -0.3577  0.0426
12714TIP3   OH259556   2.514   5.312   2.960 -0.2842  0.2117 -0.4548
12714TIP3    H159557   2.593   5.293   3.011  1.1258  0.7819 -2.3295
12714TIP3    H259558   2.489   5.400   2.988  1.0116  0.8925 -1.3145
12715TIP3   OH259559   1.018   3.470   1.667  0.6403 -0.2594 -0.0494
12715TIP3    H159560   1.086   3.536   1.657  0.8561 -0.7182 -2.1704
12715TIP3    H259561   1.062   3.387   1.648 -0.3695 -0.6145 -0.9679
12716TIP3   OH259562   0.697   1.566  12.592  0.0936  0.2607 -0.2043
12716TIP3    H159563   0.740   1.590  12.510  1.6162  1.7859  0.9810
12716TIP3    H259564   0.626   1.629  12.602 -0.0392  0.1273 -0.2990
12717TIP3   OH259565   5.621   4.899  11.714 -0.5789 -0.5957  0.2814
12717TIP3    H159566   5.586   4.984  11.688  0.0452 -0.1104  0.9738
12717TIP3    H259567   5.615   4.845  11.635 -1.0610  0.0600 -0.1412
12718TIP3   OH259568   5.340   5.082  17.204  0.4544  0.2995 -0.6836
12718TIP3    H159569   5.294   5.139  17.143  0.9833  0.7882 -0.6286
12718TIP3    H259570   5.300   5.102  17.289 -0.9959 -1.1039 -0.9645
12719TIP3   OH259571   2.255   2.492  10.412  0.5678 -0.1008  0.6044
12719TIP3    H159572   2.170   2.463  10.447  0.2617  0.7849  0.6145
12719TIP3    H259573   2.250   2.587  10.413  1.1205 -0.0459 -0.4932
12720TIP3   OH259574   2.103   3.115  11.066 -0.1946 -0.1333  0.0599
12720TIP3    H159575   2.183   3.091  11.112 -0.6692 -0.2717  0.8332
12720TIP3    H259576   2.117   3.206  11.040 -0.3518  0.3192  1.4772
12721TIP3   OH259577   6.183   0.944   4.096 -0.3966  0.3450  0.0176
12721TIP3    H159578   6.206   1.005   4.166 -1.6109 -0.3198  1.0312
12721TIP3    H259579   6.240   0.868   4.110 -0.3311  0.3904  0.0002
12722TIP3   OH259580   4.628   5.834   1.775  0.5983  0.2634 -0.1631
12722TIP3    H159581   4.643   5.929   1.782  2.9970 -0.0155 -0.7011
12722TIP3    H259582   4.698   5.803   1.718 -0.6496 -1.7560 -0.7092
12723TIP3   OH259583   2.993   5.678  15.942  0.3938 -0.0368 -0.2334
12723TIP3    H159584   3.074   5.655  15.897  1.9673  1.3559  1.6764
12723TIP3    H259585   2.941   5.725  15.877  1.9114  0.5995 -1.0358
12724TIP3   OH259586   4.934   0.210  17.025 -0.2209 -0.6547 -0.3212
12724TIP3    H159587   5.022   0.226  16.989  0.5429 -2.7693  0.4356
12724TIP3    H259588   4.932   0.116  17.041 -2.4350 -0.5526  0.2793
12725TIP3   OH259589   1.710   3.018  16.978  0.1388  0.0073 -0.0107
12725TIP3    H159590   1.640   3.022  17.042 -0.4618 -1.1305 -0.5656
12725TIP3    H259591   1.680   3.073  16.906  0.7438  1.1569  0.5767
12726TIP3   OH259592   2.803   1.554  14.072  0.0907 -0.2577  0.1888
12726TIP3    H159593   2.843   1.548  13.986 -0.8495  1.0024 -0.3683
12726TIP3    H259594   2.863   1.507  14.130 -0.0062 -2.4143 -1.3770
12727TIP3   OH259595   2.646   3.237   6.213 -0.4853 -0.0640  0.0685
12727TIP3    H159596   2.713   3.299   6.242  0.6562 -0.3748 -1.7184
12727TIP3    H259597   2.673   3.153   6.251 -0.1625 -0.0821 -0.1968
12728TIP3   OH259598   1.835   6.509  12.705  0.2684 -0.0765  0.2761
12728TIP3    H159599   1.917   6.526  12.658  0.4750 -1.3172  0.1454
12728TIP3    H259600   1.827   6.414  12.705 -0.6337 -0.0196  1.2324
12729TIP3   OH259601   0.977   2.820  11.340  0.0494  0.8033  0.5394
12729TIP3    H159602   0.900   2.852  11.387 -0.4709  0.4972 -0.0951
12729TIP3    H259603   0.980   2.873  11.260 -1.5326 -1.4434 -1.1409
12730TIP3   OH259604   4.226   5.074  15.917  0.1241 -0.2346 -0.4517
12730TIP3    H159605   4.169   5.035  15.983  0.5482  0.4951  0.3729
12730TIP3    H259606   4.167   5.120  15.858 -0.1295  1.9780  1.3543
12731TIP3   OH259607   0.424   0.367   3.334  0.4867 -0.6394 -0.1022
12731TIP3    H159608   0.481   0.444   3.335  0.4854 -0.6458  0.3298
12731TIP3    H259609   0.347   0.395   3.285  1.3640 -0.9847 -1.7594
12732TIP3   OH259610   0.677   4.990   1.258  0.4237 -0.1144  0.0760
12732TIP3    H159611   0.616   5.030   1.196  0.2376 -0.3447  0.1096
12732TIP3    H259612   0.626   4.921   1.300 -0.0671  1.3003  1.9297
12733TIP3   OH259613   1.839   4.148   2.103  0.4486 -0.3538 -0.1054
12733TIP3    H159614   1.809   4.238   2.120 -0.2311 -0.6248  0.1837
12733TIP3    H259615   1.763   4.105   2.063 -0.6550 -1.8669  3.2765
12734TIP3   OH259616   4.152   2.643  17.112 -0.0943  0.8184  0.7786
12734TIP3    H159617   4.068   2.640  17.157 -0.2025 -1.3649  0.5182
12734TIP3    H259618   4.213   2.600  17.172  0.8190  2.1359  0.8451
12735TIP3   OH259619   2.609   6.391  12.480 -0.1747  0.9361 -0.7016
12735TIP3    H159620   2.637   6.472  12.438  0.2397  1.8004  1.1440
12735TIP3    H259621   2.684   6.364  12.533 -1.4713  1.2494  1.4072
12736TIP3   OH259622   2.321   4.142   3.117  0.5437 -0.1316 -0.1407
12736TIP3    H159623   2.389   4.126   3.182  0.6611 -3.4079 -0.9192
12736TIP3    H259624   2.367   4.177   3.042  1.2776 -1.4019 -0.3122
12737TIP3   OH259625   2.437   6.472  16.661 -0.0117  0.4294 -0.4536
12737TIP3    H159626   2.444   6.530  16.585  0.8080  2.0211  0.7687
12737TIP3    H259627   2.377   6.517  16.720  2.9815  1.7710  1.8667
12738TIP3   OH259628   5.713   0.857   3.863  0.1580  0.0355  0.2231
12738TIP3    H159629   5.780   0.796   3.894 -1.7933 -1.7084  1.2713
12738TIP3    H259630   5.656   0.869   3.939  0.3429  3.1094  0.0042
12739TIP3   OH259631   2.976   4.014   0.600 -0.2104  0.1196 -0.1995
12739TIP3    H159632   2.978   3.949   0.530  1.9673 -0.3800  0.2689
12739TIP3    H259633   2.960   3.963   0.679  0.5150  0.2562  0.0436
12740TIP3   OH259634   0.452   6.422  11.422  0.1652 -0.0966 -0.0623
12740TIP3    H159635   0.475   6.330  11.407 -2.5891 -0.5919 -2.0080
12740TIP3    H259636   0.366   6.418  11.464  0.4308  1.6347  0.7210
12741TIP3   OH259637   3.022   4.909  15.696  0.1881  0.1630 -0.1491
12741TIP3    H159638   2.985   4.897  15.608 -0.8172 -0.2930  0.3183
12741TIP3    H259639   2.947   4.901  15.755  1.0079 -0.6130  0.8313
12742TIP3   OH259640   5.112   5.908  16.145  0.1295  0.2529 -0.2071
12742TIP3    H159641   5.147   5.839  16.089 -2.5092 -2.0909  0.8190
12742TIP3    H259642   5.127   5.877  16.234  2.0502  2.7854  0.4868
12743TIP3   OH259643   1.163   5.573  11.432  0.1226 -0.2405 -0.4158
12743TIP3    H159644   1.257   5.580  11.415  0.6102 -0.7537  1.7698
12743TIP3    H259645   1.156   5.569  11.527 -2.2012  0.6469 -0.4817
12744TIP3   OH259646   3.277   5.204   3.099  0.7956 -0.3418 -0.0846
12744TIP3    H159647   3.346   5.139   3.095  0.1224 -1.0227 -1.7413
12744TIP3    H259648   3.203   5.164   3.053 -0.0936  1.0690  0.0257
12745TIP3   OH259649   5.008   1.701  14.048  0.0503 -0.4290  0.2123
12745TIP3    H159650   5.077   1.654  14.000 -0.3638 -0.6845 -0.1384
12745TIP3    H259651   4.927   1.675  14.004 -0.4392 -1.4187  1.6346
12746TIP3   OH259652   3.556   6.630   5.065  0.4112  0.5905 -0.2540
12746TIP3    H159653   3.624   6.693   5.041  0.6928  1.5061  2.6297
12746TIP3    H259654   3.597   6.572   5.128 -0.4691 -1.2498 -1.2716
12747TIP3   OH259655   1.471   2.051   3.937  0.3051  0.8351  0.2568
12747TIP3    H159656   1.530   2.054   3.861 -0.5597  0.0166 -0.4602
12747TIP3    H259657   1.518   1.998   4.002  0.5635  0.5908 -0.1280
12748TIP3   OH259658   6.209   0.109  14.262 -0.0098  0.1060  0.0991
12748TIP3    H159659   6.266   0.100  14.185 -0.5038 -0.1494 -0.2416
12748TIP3    H259660   6.269   0.107  14.336  0.2429 -2.8553 -0.0749
12749TIP3   OH259661   4.381   6.302   1.167 -0.0081  0.1223 -0.3090
12749TIP3    H159662   4.454   6.359   1.187 -0.8339  1.1953 -0.2611
12749TIP3    H259663   4.415   6.213   1.180  0.4767  0.6280  2.6056
12750TIP3   OH259664   4.293   5.418   4.193 -0.0363  0.2799  0.3428
12750TIP3    H159665   4.292   5.453   4.104  1.3862 -0.9504 -0.1877
12750TIP3    H259666   4.207   5.376   4.203 -0.5980  1.2830 -0.0679
12751TIP3   OH259667   4.082   3.351  12.105  0.4519 -0.1833 -0.2469
12751TIP3    H159668   4.142   3.409  12.057 -0.6300  1.4579  0.2813
12751TIP3    H259669   4.040   3.408  12.170  0.2377 -1.8585  1.1544
12752TIP3   OH259670   1.526   6.171   4.517 -0.4680 -0.2425  0.4433
12752TIP3    H159671   1.531   6.202   4.607  0.0598 -0.8564  0.6385
12752TIP3    H259672   1.519   6.076   4.525  0.5279 -0.3834 -0.1791
12753TIP3   OH259673   4.969   1.019  15.480  0.4574 -0.2136 -0.0615
12753TIP3    H159674   5.054   0.980  15.460 -0.1627 -1.1094 -1.0310
12753TIP3    H259675   4.912   0.944  15.501 -0.5749  0.1889 -1.2897
12754TIP3   OH259676   4.248   5.115  13.828 -0.0523 -0.4172  0.3872
12754TIP3    H159677   4.305   5.182  13.791  0.1358  0.1130  1.5775
12754TIP3    H259678   4.161   5.155  13.828  0.1558  0.0853  1.6351
12755TIP3   OH259679   0.216   4.352   2.079  0.2941 -0.7388  0.0795
12755TIP3    H159680   0.291   4.376   2.133  0.7941 -0.1813 -0.8530
12755TIP3    H259681   0.246   4.362   1.989 -1.3807  1.0885 -0.3422
12756TIP3   OH259682   6.258   2.526   2.692  0.1265  0.2104  0.2933
12756TIP3    H159683   6.219   2.457   2.636 -0.0272  1.0553 -0.6740
12756TIP3    H259684   6.183   2.564   2.738  0.1413  0.0994  0.4095
12757TIP3   OH259685   0.829   1.067  12.154  0.5194 -0.0023  0.0762
12757TIP3    H159686   0.833   1.001  12.223  1.5740 -0.2548 -0.2074
12757TIP3    H259687   0.739   1.100  12.157  0.8009  0.7208  2.2475
12758TIP3   OH259688   1.474   5.873  12.161  0.1335  0.8805 -0.2393
12758TIP3    H159689   1.397   5.852  12.107  1.0677 -0.8399 -0.9971
12758TIP3    H259690   1.523   5.937  12.109  0.2269  0.4387 -0.7008
12759TIP3   OH259691   3.656   1.768   4.808  0.5095  0.0851  0.2438
12759TIP3    H159692   3.626   1.679   4.790 -0.5591  0.4963 -0.0616
12759TIP3    H259693   3.675   1.805   4.722 -0.8435  0.7604  0.2193
12760TIP3   OH259694   4.500   2.598  16.230  0.3795  0.5061  0.3261
12760TIP3    H159695   4.425   2.630  16.180 -0.4228 -1.1037  0.4168
12760TIP3    H259696   4.575   2.644  16.193 -0.5018  1.2886 -0.5654
12761TIP3   OH259697   5.432   0.556  12.402  0.1616 -0.7045 -0.0358
12761TIP3    H159698   5.375   0.629  12.377  0.3823 -0.5714 -0.1577
12761TIP3    H259699   5.488   0.543  12.326  0.8988 -0.2397  0.4116
12762TIP3   OH259700   6.079   4.255   1.061 -0.3736 -0.3212  0.2412
12762TIP3    H159701   6.017   4.208   1.006 -0.6131  0.4281 -0.1467
12762TIP3    H259702   6.147   4.285   1.001 -0.3752  0.0709  0.4297
12763TIP3   OH259703   2.455   0.215   2.324  0.1377  0.1644  0.1185
12763TIP3    H159704   2.544   0.244   2.342  0.0699 -0.4477  1.5596
12763TIP3    H259705   2.418   0.285   2.269  1.5959  0.2442 -0.8218
12764TIP3   OH259706   3.002   1.538   2.518 -1.3191 -0.5288  0.1677
12764TIP3    H159707   3.061   1.467   2.493 -1.8482 -0.0615 -2.7816
12764TIP3    H259708   3.055   1.596   2.572  0.2772 -1.2283 -0.5922
12765TIP3   OH259709   5.056   2.171   3.429 -0.0813  0.7077 -0.1956
12765TIP3    H159710   5.050   2.079   3.405  3.8040  0.3395 -0.4319
12765TIP3    H259711   5.030   2.219   3.350 -2.5541 -0.0621  0.0614
12766TIP3   OH259712   2.400   5.745   2.683 -0.0565  0.0506  0.5758
12766TIP3    H159713   2.423   5.652   2.693  2.0517  0.4551  0.0435
12766TIP3    H259714   2.448   5.789   2.753  0.4435  0.9203 -0.2886
12767TIP3   OH259715   0.654   5.798  12.808  0.0401  0.3235 -0.3614
12767TIP3    H159716   0.671   5.720  12.860 -0.5673  0.1002 -0.4913
12767TIP3    H259717   0.642   5.868  12.873 -0.0421  0.1808 -0.2215
12768TIP3   OH259718   2.885   3.639  13.658  0.0784 -0.0652 -0.3512
12768TIP3    H159719   2.822   3.707  13.636  0.6569  0.7453  0.4546
12768TIP3    H259720   2.903   3.595  13.575 -0.4472  0.6404 -0.8449
12769TIP3   OH259721   5.592   2.639   1.848  0.0881 -0.2969 -0.6650
12769TIP3    H159722   5.514   2.678   1.886  0.9750  1.7954 -0.8683
12769TIP3    H259723   5.563   2.607   1.762 -0.3383  1.5026 -1.2390
12770TIP3   OH259724   3.548   0.610  15.432 -0.0157 -0.2501  0.3684
12770TIP3    H159725   3.624   0.661  15.457 -0.1090 -0.5701  1.3532
12770TIP3    H259726   3.578   0.519  15.433 -0.1941 -0.3176 -0.0690
12771TIP3   OH259727   5.688   3.765  15.066  0.1528 -0.4903 -0.1543
12771TIP3    H159728   5.755   3.742  15.001  2.1428  0.1449  1.5515
12771TIP3    H259729   5.638   3.835  15.024  0.5485 -0.9456 -1.4617
12772TIP3   OH259730   0.303   1.050  12.158 -0.1678 -0.2176  0.6853
12772TIP3    H159731   0.218   1.023  12.193 -0.2794 -0.1564  0.4635
12772TIP3    H259732   0.302   1.019  12.068 -0.6427  1.2672  0.1669
12773TIP3   OH259733   3.562   4.043   5.332  0.1686  0.3137 -0.2911
12773TIP3    H159734   3.537   3.955   5.303  1.3442 -0.4623  0.8990
12773TIP3    H259735   3.495   4.066   5.398 -0.1969  0.3636 -0.6756
12774TIP3   OH259736   2.936   3.564  13.360 -0.2490  0.0767  0.1530
12774TIP3    H159737   2.934   3.657  13.339  0.0862 -0.2182 -1.2193
12774TIP3    H259738   2.949   3.520  13.277 -3.0316 -1.3585  0.3374
12775TIP3   OH259739   4.462   5.878   5.932 -0.1934  0.0225  0.4232
12775TIP3    H159740   4.522   5.804   5.940 -1.1877 -0.8459  0.0733
12775TIP3    H259741   4.392   5.859   5.994  0.0807  1.2530  1.1572
12776TIP3   OH259742   5.404   3.704  10.798 -0.0934 -0.2830 -0.4495
12776TIP3    H159743   5.497   3.727  10.796 -0.1599 -0.0156 -1.7129
12776TIP3    H259744   5.359   3.788  10.800 -0.3258 -0.4182  2.0392
12777TIP3   OH259745   0.101   0.037   2.517 -0.2919  0.7134 -0.0268
12777TIP3    H159746   0.039   0.070   2.451  0.5394  0.2243 -1.0932
12777TIP3    H259747   0.163   0.109   2.529 -1.8844  1.8198  2.2173
12778TIP3   OH259748   4.884   5.934   4.552  0.0331  0.0816 -0.6788
12778TIP3    H159749   4.865   5.847   4.518  1.5360  0.0321 -1.5096
12778TIP3    H259750   4.889   5.989   4.474 -0.7596  0.9006 -0.1745
12779TIP3   OH259751   2.259   5.390  11.914 -0.4797  0.1823 -0.0046
12779TIP3    H159752   2.354   5.385  11.905 -0.5086  0.2465 -0.3923
12779TIP3    H259753   2.237   5.325  11.981 -0.2029 -0.1211 -0.2066
12780TIP3   OH259754   0.002   4.999  15.132  0.5068 -1.1064 -0.2098
12780TIP3    H159755  -0.001   4.909  15.097  0.9750 -1.5337  0.7912
12780TIP3    H259756  -0.064   5.000  15.201 -1.2132  0.0661 -1.7707
12781TIP3   OH259757   3.036   5.593   5.608  0.0458  0.1542 -0.2369
12781TIP3    H159758   3.044   5.629   5.696 -3.3190  1.0967 -0.1672
12781TIP3    H259759   3.121   5.609   5.568  1.2997  0.7822  2.4152
12782TIP3   OH259760   5.855   6.080   0.627  0.1719  0.1310 -0.2971
12782TIP3    H159761   5.945   6.059   0.604  1.1008  2.5306  0.8586
12782TIP3    H259762   5.820   6.124   0.550  1.4370  2.9598  0.5813
12783TIP3   OH259763   6.124   3.593   1.669  0.0301  0.2333  0.7769
12783TIP3    H159764   6.092   3.597   1.759  0.0714  1.0193  0.7596
12783TIP3    H259765   6.219   3.606   1.676  0.2279 -1.0033  0.7283
12784TIP3   OH259766   0.458   4.369  13.587 -1.2059 -0.1169  0.1624
12784TIP3    H159767   0.471   4.309  13.514 -1.1760 -0.5504  0.5150
12784TIP3    H259768   0.536   4.425  13.586 -1.2061 -0.1207 -0.1345
12785TIP3   OH259769   2.390   3.121  12.740  0.1249 -0.0941 -0.5683
12785TIP3    H159770   2.436   3.085  12.665  1.0314  2.2825 -1.2505
12785TIP3    H259771   2.346   3.199  12.706 -0.3615  0.4202  1.1266
12786TIP3   OH259772   3.674   4.544  13.325 -0.0329  0.3800 -0.1921
12786TIP3    H159773   3.583   4.542  13.295  0.5623 -0.8674 -2.1066
12786TIP3    H259774   3.712   4.620  13.280  0.6396 -0.9899 -2.0804
12787TIP3   OH259775   4.211   5.677   0.308  0.2427 -0.3127 -0.1294
12787TIP3    H159776   4.251   5.754   0.269  1.2510 -0.3602  0.7837
12787TIP3    H259777   4.275   5.608   0.297  0.7837 -0.2136  2.0062
12788TIP3   OH259778   3.848   3.150   1.727 -0.6441 -0.1514  0.0305
12788TIP3    H159779   3.839   3.133   1.633  1.3890  2.3825 -0.7385
12788TIP3    H259780   3.777   3.210   1.748 -0.5056  0.0637 -0.1183
12789TIP3   OH259781   0.542   4.081   1.486 -0.6122 -0.2755 -0.2713
12789TIP3    H159782   0.489   4.136   1.429 -0.9903 -1.4316 -1.0583
12789TIP3    H259783   0.563   4.137   1.560 -2.5296  0.3789 -0.1670
12790TIP3   OH259784   5.351   5.567   0.652 -0.3601 -0.0483 -0.5112
12790TIP3    H159785   5.379   5.604   0.568 -2.0126  0.5231 -0.8464
12790TIP3    H259786   5.429   5.524   0.687  0.8295  1.2248 -1.5084
12791TIP3   OH259787   3.380   1.747  12.352  0.0920 -0.1305  0.3208
12791TIP3    H159788   3.368   1.681  12.284  0.8748 -1.2297  1.2187
12791TIP3    H259789   3.402   1.827  12.305 -2.1463 -0.1448 -0.8767
12792TIP3   OH259790   4.981   6.687  16.972 -0.0485 -0.3674  0.0507
12792TIP3    H159791   4.988   6.606  17.022  1.3478 -0.4767 -0.2786
12792TIP3    H259792   4.899   6.678  16.923 -0.1906 -1.3261  0.4457
12793TIP3   OH259793   4.535   0.289  11.738 -0.2809 -0.1051  0.0134
12793TIP3    H159794   4.439   0.296  11.744 -0.2559  0.6535 -0.3536
12793TIP3    H259795   4.557   0.334  11.657  0.2717 -1.6124 -0.7116
12794TIP3   OH259796   1.468   0.574   1.410  0.5433  0.8005  0.2689
12794TIP3    H159797   1.456   0.661   1.448 -1.0487  0.0194  1.7072
12794TIP3    H259798   1.553   0.545   1.444  0.0527  0.9244  1.6833
12795TIP3   OH259799   5.252   0.746  14.668  0.1396 -0.1570 -0.1431
12795TIP3    H159800   5.164   0.757  14.631 -0.2029  1.3200  1.0670
12795TIP3    H259801   5.300   0.700  14.599 -1.7880 -1.8138 -0.5024
12796TIP3   OH259802   1.577   4.490   4.724 -0.2463  0.7169  0.0658
12796TIP3    H159803   1.564   4.470   4.631 -2.7815 -1.0858  0.7174
12796TIP3    H259804   1.537   4.575   4.737 -2.3604 -0.2149 -0.0315
12797TIP3   OH259805   6.382   2.542  13.095  0.1163  0.3480 -0.1609
12797TIP3    H159806   6.355   2.482  13.164 -1.1350  0.8492 -0.1675
12797TIP3    H259807   6.419   2.487  13.027 -0.0413 -0.3082  0.2788
12798TIP3   OH259808   3.296   4.646  13.090  0.4147 -0.1793  0.3133
12798TIP3    H159809   3.380   4.648  13.044 -0.1844  2.3437 -0.8190
12798TIP3    H259810   3.243   4.713  13.047 -1.8119 -0.9285  1.7235
12799TIP3   OH259811   2.339   1.312   3.764 -0.3460  0.0975 -0.1131
12799TIP3    H159812   2.352   1.246   3.831 -1.1544  0.5335  0.4894
12799TIP3    H259813   2.244   1.324   3.759 -0.1964  2.4242  1.0279
12800TIP3   OH259814   3.344   1.960   0.810  0.6964 -0.1625  0.2603
12800TIP3    H159815   3.355   1.963   0.715  0.7298  1.5711  0.2907
12800TIP3    H259816   3.252   1.937   0.823  0.4021  0.7335 -0.2093
12801TIP3   OH259817   6.101   0.749  15.086 -0.0866 -0.1197 -0.1108
12801TIP3    H159818   6.102   0.844  15.096  0.6576 -0.0602 -0.6740
12801TIP3    H259819   6.193   0.724  15.081 -0.2751 -0.8714  0.0273
12802TIP3   OH259820   6.338   2.372   5.144  0.2894  0.2431 -0.5299
12802TIP3    H159821   6.335   2.466   5.161 -0.2053 -0.1332  1.8395
12802TIP3    H259822   6.247   2.346   5.132  0.0575 -0.3432  1.9005
12803TIP3   OH259823   1.846   0.534   2.899  0.2372  0.1304  0.0116
12803TIP3    H159824   1.895   0.466   2.853 -1.9555 -1.3659 -0.2744
12803TIP3    H259825   1.790   0.487   2.961  0.0589  1.8265  1.2195
12804TIP3   OH259826   5.820   5.815   5.591 -0.2006 -0.4330  0.1632
12804TIP3    H159827   5.908   5.779   5.598 -0.5589 -1.4194 -0.2273
12804TIP3    H259828   5.762   5.738   5.590 -0.9995  0.1543 -0.5101
12805TIP3   OH259829   5.387   3.518   3.203  0.4701  0.4165 -0.2514
12805TIP3    H159830   5.296   3.513   3.174  0.3214 -0.6097  0.3516
12805TIP3    H259831   5.383   3.570   3.283  0.4549  0.6137 -0.3797
12806TIP3   OH259832   5.461   6.028   0.874  0.3723 -0.0659  0.5372
12806TIP3    H159833   5.402   6.035   0.949 -1.5392  0.7619 -0.9441
12806TIP3    H259834   5.431   5.950   0.827  1.8937 -0.8915  0.8695
12807TIP3   OH259835   4.326   4.864  16.921  1.0002 -0.1981  0.1581
12807TIP3    H159836   4.383   4.800  16.964  2.0995  0.9762  0.5015
12807TIP3    H259837   4.283   4.910  16.992  1.3451  0.4356 -0.0361
12808TIP3   OH259838   2.658   4.467   3.991  0.6210 -0.3430 -0.2087
12808TIP3    H159839   2.638   4.396   4.051  0.0192 -0.1907 -0.2259
12808TIP3    H259840   2.596   4.457   3.919 -0.5296  1.1190  0.5326
12809TIP3   OH259841   2.166   4.471  14.445 -0.2000  0.5684  0.3712
12809TIP3    H159842   2.258   4.464  14.420 -0.9054 -0.0408 -2.3970
12809TIP3    H259843   2.134   4.548  14.397 -1.8480 -1.1460 -1.4735
12810TIP3   OH259844   1.245   4.190   6.204 -0.2933  0.7219  0.3797
12810TIP3    H159845   1.177   4.240   6.159  0.6662  3.4698  1.7118
12810TIP3    H259846   1.198   4.126   6.257 -1.4981 -1.6790 -3.1930
12811TIP3   OH259847   1.206   3.864  13.034  0.1137 -0.4844  0.0934
12811TIP3    H159848   1.153   3.843  12.957  0.2892 -2.6105  0.4934
12811TIP3    H259849   1.216   3.959  13.031 -0.4793 -0.4395 -2.1013
12812TIP3   OH259850   5.483   3.856   0.067 -0.1264  0.0017 -0.3213
12812TIP3    H159851   5.452   3.944   0.047 -0.5118  0.0298  0.3845
12812TIP3    H259852   5.470   3.846   0.161  0.8213 -0.4584 -0.2215
12813TIP3   OH259853   4.215   2.973   4.184 -0.2881  0.3385 -0.5691
12813TIP3    H159854   4.219   2.878   4.182 -1.2977  0.2043  1.3907
12813TIP3    H259855   4.124   2.993   4.162 -0.8037  0.6617  1.6465
12814TIP3   OH259856   5.187   1.012   4.523  0.1634 -0.0714  0.3417
12814TIP3    H159857   5.092   1.014   4.515  0.3244  1.6802 -2.1814
12814TIP3    H259858   5.209   1.094   4.568  0.5520  0.6774 -1.1437
12815TIP3   OH259859   1.443   3.104  13.294 -0.5084 -0.5677  0.2209
12815TIP3    H159860   1.457   3.019  13.253  0.2839 -0.3996  0.1419
12815TIP3    H259861   1.348   3.108  13.308 -0.4664 -1.8718  1.1182
12816TIP3   OH259862   4.883   3.868   3.538 -0.0598 -0.1041 -0.1483
12816TIP3    H159863   4.865   3.879   3.631 -0.0368  0.9314 -0.2483
12816TIP3    H259864   4.878   3.774   3.523 -0.7767 -0.2227  0.7504
12817TIP3   OH259865   5.754   6.649   0.562  0.1840  0.4323  0.0675
12817TIP3    H159866   5.783   6.703   0.488  0.4367  0.5932  0.2797
12817TIP3    H259867   5.768   6.705   0.639  1.4192 -0.2820  0.4007
12818TIP3   OH259868   5.494   5.537   2.027  0.0970 -0.7864  0.3173
12818TIP3    H159869   5.558   5.531   2.098 -0.2742 -1.2182  0.6274
12818TIP3    H259870   5.529   5.603   1.968  0.9325 -1.1680  0.3679
12819TIP3   OH259871   1.908   2.057  12.250 -0.4162  0.4400 -0.0220
12819TIP3    H159872   1.862   1.993  12.304 -1.2967  1.9455  1.0807
12819TIP3    H259873   1.947   2.005  12.180 -0.9767 -1.3118  0.9000
12820TIP3   OH259874   0.361   1.981   2.047 -0.1707 -0.0952 -0.0299
12820TIP3    H159875   0.398   1.893   2.041  0.0096  0.1012 -2.9239
12820TIP3    H259876   0.433   2.039   2.024 -0.6186  0.7565  0.6565
12821TIP3   OH259877   4.450   6.402  11.762 -0.1483 -0.2726 -0.3681
12821TIP3    H159878   4.390   6.476  11.756 -1.9693 -1.8157 -2.4081
12821TIP3    H259879   4.506   6.410  11.685  1.1507  0.1432  0.5754
12822TIP3   OH259880   1.794   2.805   0.926  0.2319 -0.7948 -0.1284
12822TIP3    H159881   1.796   2.800   0.830 -1.5252 -0.7558 -0.2037
12822TIP3    H259882   1.886   2.800   0.952  0.7961 -0.2266 -1.8418
12823TIP3   OH259883   6.639   2.947  10.795  0.2243 -0.1224  0.4327
12823TIP3    H159884   6.672   2.887  10.728  1.7663 -1.4787  2.3127
12823TIP3    H259885   6.557   2.909  10.824  0.3296 -0.3627  0.4130
12824TIP3   OH259886   0.575   5.374   6.487 -0.0865 -0.8349 -0.0355
12824TIP3    H159887   0.511   5.445   6.477  0.6206 -0.2768 -0.7728
12824TIP3    H259888   0.552   5.311   6.419 -0.5287 -1.1707  0.4221
12825TIP3   OH259889   4.793   0.560   4.439 -0.2500 -0.7026 -0.3411
12825TIP3    H159890   4.777   0.466   4.430  2.2357 -1.0308 -2.0330
12825TIP3    H259891   4.851   0.568   4.515 -0.8683 -0.4351  0.1208
12826TIP3   OH259892   1.649   4.309  14.877  0.2442  0.4851 -0.0629
12826TIP3    H159893   1.595   4.230  14.872 -0.5604  0.9548  1.0120
12826TIP3    H259894   1.671   4.317  14.969  0.4100  1.4638 -0.1776
12827TIP3   OH259895   4.954   2.174  14.078 -0.8630  0.2952 -0.1614
12827TIP3    H159896   4.973   2.251  14.025  1.6067 -0.3748 -0.4023
12827TIP3    H259897   4.960   2.101  14.017  1.9225 -0.4774  0.8877
12828TIP3   OH259898   4.168   3.944  10.649 -0.2089  0.0381  0.6764
12828TIP3    H159899   4.193   3.853  10.637  0.1864 -0.0732  2.1592
12828TIP3    H259900   4.072   3.942  10.651 -0.6165  0.4212 -4.6352
12829TIP3   OH259901   0.751   4.445   5.553  0.5154  0.0968  0.1095
12829TIP3    H159902   0.734   4.533   5.521  1.3461 -0.2043 -1.2033
12829TIP3    H259903   0.806   4.458   5.631 -1.4678  0.8176  1.4770
12830TIP3   OH259904   1.669   2.430   4.117 -0.2131  0.4291  0.0222
12830TIP3    H159905   1.714   2.451   4.035  1.1449 -0.3186  0.5438
12830TIP3    H259906   1.697   2.340   4.137 -4.6735 -1.5218 -1.4085
12831TIP3   OH259907   4.596   2.776  15.217 -0.3977 -0.7137  0.2324
12831TIP3    H159908   4.667   2.766  15.280  0.8521 -0.7857 -1.1528
12831TIP3    H259909   4.622   2.850  15.163 -2.6238  0.9535  1.2808
12832TIP3   OH259910   5.823   6.084  15.636 -0.0556  0.3970  0.5947
12832TIP3    H159911   5.874   6.032  15.698  0.6634  1.4293  0.8854
12832TIP3    H259912   5.749   6.117  15.688  0.4884  1.1731  0.8929
12833TIP3   OH259913   5.876   2.878  12.131  0.4331  0.1003  0.0611
12833TIP3    H159914   5.941   2.847  12.194 -0.6375 -0.4254  0.9312
12833TIP3    H259915   5.810   2.922  12.184 -0.8078 -0.8910 -0.6109
12834TIP3   OH259916   6.412   5.660   0.778  0.3309  0.1669 -0.2994
12834TIP3    H159917   6.448   5.608   0.706  0.6175  0.1428 -0.1419
12834TIP3    H259918   6.445   5.617   0.857 -0.3861 -0.0942 -0.1441
12835TIP3   OH259919   0.826   3.260  16.903  0.1827  0.1424 -0.0132
12835TIP3    H159920   0.839   3.200  16.829  0.0555 -0.1586  0.2059
12835TIP3    H259921   0.881   3.336  16.883  1.0408 -0.4278  0.1440
12836TIP3   OH259922   0.375   4.226  11.838 -0.4550 -0.1391  0.2280
12836TIP3    H159923   0.318   4.303  11.832 -0.4771 -0.1666  0.0696
12836TIP3    H259924   0.315   4.152  11.835 -0.3288 -0.2260 -1.7288
12837TIP3   OH259925   5.776   1.894  13.646  0.0567  0.1088 -0.3127
12837TIP3    H159926   5.773   1.935  13.733 -0.5729  0.0203 -0.2908
12837TIP3    H259927   5.759   1.966  13.586 -0.3265  0.0183 -0.3145
12838TIP3   OH259928   0.786   5.950  15.859 -0.4686  0.4553  0.7500
12838TIP3    H159929   0.802   5.932  15.952 -1.8324 -0.7555  0.7789
12838TIP3    H259930   0.780   6.046  15.854  2.0265  0.6957  1.4583
12839TIP3   OH259931   2.337   4.359   0.181  0.4348  0.2558  0.1174
12839TIP3    H159932   2.309   4.286   0.126  1.4817  0.2237 -0.3922
12839TIP3    H259933   2.263   4.420   0.180  0.1234 -0.1309 -0.6412
12840TIP3   OH259934   4.194   3.209  12.723 -0.7267 -0.2722 -0.1012
12840TIP3    H159935   4.181   3.129  12.773  1.7386 -0.4298  0.3908
12840TIP3    H259936   4.176   3.279  12.786 -0.7223 -0.4408  0.0877
12841TIP3   OH259937   3.362   2.555   1.452 -0.1509  0.2540  0.5081
12841TIP3    H159938   3.454   2.569   1.431 -0.5013  1.7546 -0.1608
12841TIP3    H259939   3.342   2.469   1.416  0.4407  0.8407 -1.3370
12842TIP3   OH259940   0.773   4.389  14.598 -0.6644  0.1118 -0.4501
12842TIP3    H159941   0.817   4.306  14.582 -0.3371 -0.2500  1.9696
12842TIP3    H259942   0.706   4.369  14.664  0.1721  1.9363  1.0414
12843TIP3   OH259943   0.714   2.738   4.387  0.8585 -0.1044 -0.4731
12843TIP3    H159944   0.701   2.730   4.293  0.3382 -0.3847 -0.3800
12843TIP3    H259945   0.807   2.758   4.397  0.9817 -0.3921 -1.0290
12844TIP3   OH259946   5.113   3.616  13.330  0.3686  0.1329 -0.4011
12844TIP3    H159947   5.160   3.533  13.342  1.1044  0.7196  1.0542
12844TIP3    H259948   5.139   3.646  13.243  1.5659 -0.2718 -0.2116
12845TIP3   OH259949   2.343   3.144   5.925  0.4147  0.7909  0.0672
12845TIP3    H159950   2.424   3.194   5.913  0.4327  0.5999 -0.6073
12845TIP3    H259951   2.334   3.091   5.846  1.0757 -1.2825  1.3060
12846TIP3   OH259952   3.495   6.247  16.454 -0.2703 -0.5478  1.0753
12846TIP3    H159953   3.438   6.199  16.395  0.0413 -0.4209  0.6682
12846TIP3    H259954   3.582   6.210  16.439  0.9372  3.0534 -2.6010
12847TIP3   OH259955   2.530   1.909   2.905  0.2497 -0.5602  0.3647
12847TIP3    H159956   2.452   1.940   2.951 -1.7591  1.7627 -4.0593
12847TIP3    H259957   2.590   1.984   2.907  0.4158 -0.6768 -0.2450
12848TIP3   OH259958   2.340   6.577   3.636 -0.0290  0.2271 -0.2306
12848TIP3    H159959   2.354   6.496   3.683  0.0235  0.3602 -0.0168
12848TIP3    H259960   2.363   6.557   3.545  0.0757  0.0310 -0.1602
12849TIP3   OH259961   5.195   4.307   3.739 -1.1218  0.7440  0.0255
12849TIP3    H159962   5.119   4.249   3.741 -1.5049  1.2586  1.6561
12849TIP3    H259963   5.217   4.321   3.831  0.2208  1.5600 -0.3916
12850TIP3   OH259964   6.759   4.582   5.171  0.0058 -0.8137 -0.0167
12850TIP3    H159965   6.828   4.517   5.153 -1.8282 -2.8460 -0.1879
12850TIP3    H259966   6.695   4.568   5.101  0.2080  2.3284 -0.9827
12851TIP3   OH259967   1.872   5.526  17.274  0.0637  0.2765 -0.4559
12851TIP3    H159968   1.782   5.536  17.245 -0.2007  0.7726  0.5094
12851TIP3    H259969   1.923   5.574  17.209 -0.3500 -0.0968 -1.0646
12852TIP3   OH259970   2.481   6.285   4.186 -0.0192 -0.8801  0.4743
12852TIP3    H159971   2.437   6.348   4.130 -2.0571 -1.3781  1.4349
12852TIP3    H259972   2.511   6.337   4.261 -0.9271 -0.8913  0.8534
12853TIP3   OH259973   3.331   6.602  16.001 -0.4830  0.0216 -0.9353
12853TIP3    H159974   3.390   6.676  15.984  0.1932  0.2602  1.8505
12853TIP3    H259975   3.244   6.640  16.002 -0.0218  1.3124  2.2269
12854TIP3   OH259976   5.964   4.504  15.747  0.3102 -0.1046  0.2147
12854TIP3    H159977   5.935   4.595  15.745  0.2257 -0.1410 -0.2562
12854TIP3    H259978   6.023   4.500  15.822 -2.6870 -0.5644  2.8033
12855TIP3   OH259979   6.221   1.323   0.999  0.1076  0.1564 -0.2001
12855TIP3    H159980   6.208   1.365   0.914  0.7617 -0.5013 -0.6369
12855TIP3    H259981   6.136   1.329   1.042 -0.1187  0.8853 -0.7174
12856TIP3   OH259982   1.183   2.897  14.290 -0.2246 -0.4386  0.3350
12856TIP3    H159983   1.207   2.956  14.362  1.3761  0.5312 -0.9156
12856TIP3    H259984   1.088   2.901  14.286 -0.3109 -0.0145  1.9694
12857TIP3   OH259985   4.984   5.998  15.184 -0.8271 -0.0684  0.1074
12857TIP3    H159986   4.987   6.083  15.138  0.5693 -0.1661 -0.0087
12857TIP3    H259987   4.962   5.935  15.115  4.1880 -0.6713 -1.2795
12858TIP3   OH259988   4.956   4.646   4.218 -0.8317  0.6364  0.0754
12858TIP3    H159989   4.958   4.569   4.160 -1.8399  0.6106  0.0569
12858TIP3    H259990   4.874   4.637   4.266 -0.3857  1.0841  0.9366
12859TIP3   OH259991   3.651   4.908  11.792 -0.4542 -0.3218  0.1520
12859TIP3    H159992   3.618   4.909  11.882  0.8481  1.7476  0.6687
12859TIP3    H259993   3.746   4.914  11.801 -0.2869 -0.3141 -1.3622
12860TIP3   OH259994   4.220   1.116  13.896 -0.2999  0.1071  0.0168
12860TIP3    H159995   4.256   1.035  13.861  2.7162  1.7834 -1.2208
12860TIP3    H259996   4.247   1.117  13.988 -0.9253 -0.5407  0.2175
12861TIP3   OH259997   2.222   0.303   4.829 -0.7970  0.1938  0.2913
12861TIP3    H159998   2.130   0.285   4.848 -1.1174  0.4390 -0.9542
12861TIP3    H259999   2.264   0.306   4.915 -1.8103 -0.6286  0.8431
12862TIP3   OH260000   0.272   0.475   4.540  0.2828 -0.0312  0.7811
12862TIP3    H160001   0.242   0.553   4.588 -0.4407  0.6470 -0.7055
12862TIP3    H260002   0.194   0.444   4.494  1.3172  0.5999 -1.6017
12863TIP3   OH260003   3.055   1.675  13.123  0.4003 -0.0721  0.9822
12863TIP3    H160004   2.969   1.672  13.081  1.2259 -0.5720 -0.7553
12863TIP3    H260005   3.065   1.766  13.151  0.1407  0.5046 -0.6853
12864TIP3   OH260006   1.838   1.224  16.575  0.0316  0.1094  0.2846
12864TIP3    H160007   1.812   1.278  16.501  0.0446 -1.2964 -0.7772
12864TIP3    H260008   1.916   1.267  16.610 -2.0007  2.8949  1.8585
12865TIP3   OH260009   0.744   4.467  15.679  0.0903 -0.3732  1.3828
12865TIP3    H160010   0.733   4.530  15.608 -0.0905 -3.1356 -1.2216
12865TIP3    H260011   0.655   4.449  15.709  0.0830  0.0052  1.5957
12866TIP3   OH260012   3.205   6.305  11.833  0.2373  0.4432 -0.0862
12866TIP3    H160013   3.277   6.361  11.804  0.1868  0.6457  0.1840
12866TIP3    H260014   3.218   6.223  11.785  0.4284  0.6132 -0.3252
12867TIP3   OH260015   0.740   0.478  16.321 -0.0499  0.2393  0.6196
12867TIP3    H160016   0.692   0.414  16.268  2.4029 -1.4504  0.2561
12867TIP3    H260017   0.715   0.563  16.284 -0.9318 -0.7074 -1.1031
12868TIP3   OH260018   1.983   0.324  11.241  0.5999  0.7024  0.3108
12868TIP3    H160019   2.051   0.392  11.245  1.5577 -0.2272  0.2169
12868TIP3    H260020   2.020   0.250  11.290 -0.6635  0.4320  0.9110
12869TIP3   OH260021   3.513   4.553  14.723 -0.1863 -0.6268  0.4594
12869TIP3    H160022   3.439   4.493  14.719  0.9541 -2.1585  1.3906
12869TIP3    H260023   3.589   4.500  14.700  0.7617  0.6652  0.4847
12870TIP3   OH260024   4.313   1.965  12.805 -1.1236  0.0739  0.4337
12870TIP3    H160025   4.358   2.034  12.853  0.3801  0.0325 -0.8470
12870TIP3    H260026   4.383   1.910  12.769 -2.2673 -1.7025  0.7920
12871TIP3   OH260027   4.508   5.866   0.380  0.4892  0.4153  0.3543
12871TIP3    H160028   4.541   5.790   0.331  0.6373  0.6577  0.0716
12871TIP3    H260029   4.587   5.913   0.407  0.4216  0.0630  1.1910
12872TIP3   OH260030   6.652   5.693  11.596  0.2051 -0.0850  0.8590
12872TIP3    H160031   6.609   5.735  11.522  0.4207  0.1447  0.8631
12872TIP3    H260032   6.678   5.765  11.653 -1.2793 -0.3206  1.8927
12873TIP3   OH260033   5.604   4.735   5.322 -0.1665  0.2671 -0.4600
12873TIP3    H160034   5.676   4.794   5.346  0.1049 -0.2107 -0.0545
12873TIP3    H260035   5.531   4.793   5.301  0.2057  0.7533 -0.4400
12874TIP3   OH260036   2.548   4.977  14.040 -0.2240  0.3589  0.3278
12874TIP3    H160037   2.501   4.912  14.092 -0.0127  0.4888  0.6796
12874TIP3    H260038   2.491   5.053  14.038 -0.2780  0.3173  0.2806
12875TIP3   OH260039   2.620   3.996   4.035  0.2740  0.3040  0.1807
12875TIP3    H160040   2.610   4.067   3.972 -0.5007  0.5331  0.5465
12875TIP3    H260041   2.708   3.961   4.019  0.8071  1.5775  0.2326
12876TIP3   OH260042   5.186   0.255  16.913 -0.2291  0.0305 -0.1254
12876TIP3    H160043   5.176   0.349  16.897  2.8524  1.1500  3.1511
12876TIP3    H260044   5.278   0.237  16.893 -0.3984 -1.9714  0.6743
12877TIP3   OH260045   1.930   1.690  12.175 -0.1672  0.0082  0.0496
12877TIP3    H160046   2.025   1.681  12.178 -0.2133 -0.5080  0.0846
12877TIP3    H260047   1.897   1.600  12.170 -0.6544  0.1797  0.0615
12878TIP3   OH260048   5.626   3.543  13.959 -0.3105 -0.3482 -0.1453
12878TIP3    H160049   5.577   3.480  13.906  0.4972 -1.9970  0.9692
12878TIP3    H260050   5.641   3.497  14.042  0.2143  1.3825  0.7568
12879TIP3   OH260051   1.187   0.183   1.727 -0.0884  0.1650  0.0988
12879TIP3    H160052   1.107   0.204   1.774 -1.2208 -1.6094 -0.9073
12879TIP3    H260053   1.188   0.087   1.724  2.6433  0.0809  1.0036
12880TIP3   OH260054   6.552   3.144  11.816 -0.3846  0.5013  0.0893
12880TIP3    H160055   6.488   3.206  11.850 -0.5082  1.1317 -1.2694
12880TIP3    H260056   6.549   3.154  11.721  0.4911 -0.6979 -0.0974
12881TIP3   OH260057   6.292   0.148  12.837  1.2114  0.5615 -0.7880
12881TIP3    H160058   6.283   0.204  12.914  0.4799 -0.3276 -0.2058
12881TIP3    H260059   6.341   0.202  12.774 -0.4752  2.3017 -0.7032
12882TIP3   OH260060   1.093   1.537   2.449 -0.6173  0.2329  0.0377
12882TIP3    H160061   1.066   1.610   2.392 -0.9775 -0.4189 -0.6473
12882TIP3    H260062   1.011   1.492   2.470 -0.3068 -0.4430 -0.2010
12883TIP3   OH260063   6.273   1.377   4.383 -0.2782  0.4536  0.1354
12883TIP3    H160064   6.330   1.425   4.444  0.2125  0.4483 -0.3085
12883TIP3    H260065   6.241   1.444   4.323 -1.5712  0.6313  0.9924
12884TIP3   OH260066   0.429   2.633  11.957  0.5144 -0.0997 -0.4627
12884TIP3    H160067   0.356   2.572  11.948 -1.9235  2.7603 -2.4877
12884TIP3    H260068   0.432   2.654  12.050 -2.9968  1.4056 -0.5255
12885TIP3   OH260069   6.470   1.853   2.288 -0.2184  0.3099 -0.0132
12885TIP3    H160070   6.401   1.878   2.349  1.2915  1.4700  1.3096
12885TIP3    H260071   6.503   1.936   2.253  1.8238 -0.0570  0.9308
12886TIP3   OH260072   1.915   4.970  15.937 -0.6510  0.3430 -0.2896
12886TIP3    H160073   1.973   4.955  16.012  1.3598  0.7557 -1.6728
12886TIP3    H260074   1.847   4.904  15.946  0.7908 -1.0992  0.7055
12887TIP3   OH260075   0.434   5.567   1.663  0.3963  0.7752 -0.1027
12887TIP3    H160076   0.454   5.509   1.590 -1.2469 -0.5148  0.4214
12887TIP3    H260077   0.492   5.538   1.733  0.8182  0.9386 -0.3802
12888TIP3   OH260078   5.172   0.053  14.422 -0.0048  0.1481  0.6480
12888TIP3    H160079   5.238   0.022  14.360  0.5568  1.8172  0.3371
12888TIP3    H260080   5.188   0.003  14.502 -0.2231 -1.4751 -0.2899
12889TIP3   OH260081   4.317   3.494   4.169  0.6527 -0.0754 -0.0633
12889TIP3    H160082   4.321   3.482   4.074 -3.5819  0.1205 -0.4469
12889TIP3    H260083   4.341   3.409   4.205  0.2853 -0.7804 -1.4269
12890TIP3   OH260084   4.845   6.491  11.570 -0.1301 -0.7791  0.1738
12890TIP3    H160085   4.825   6.585  11.576  0.5104 -0.7317  2.9612
12890TIP3    H260086   4.760   6.449  11.561 -0.4848  0.0180 -0.3413
12891TIP3   OH260087   4.738   6.575  14.678  0.0904  0.0199 -0.0380
12891TIP3    H160088   4.707   6.486  14.661  0.4320  0.2266 -1.8997
12891TIP3    H260089   4.781   6.569  14.764 -0.2727 -1.4946  0.0688
12892TIP3   OH260090   6.642   6.324   5.997  0.0443  0.2214  0.0944
12892TIP3    H160091   6.639   6.351   5.905  1.2317  1.1915  0.3162
12892TIP3    H260092   6.656   6.405   6.045 -0.9162 -0.2265  1.1812
12893TIP3   OH260093   2.694   4.500  14.829  0.0677 -0.5508 -0.5571
12893TIP3    H160094   2.618   4.530  14.879 -0.3267 -1.9346 -0.2929
12893TIP3    H260095   2.735   4.580  14.798 -0.8618  0.2621  0.2455
12894TIP3   OH260096   1.704   0.252   2.851 -0.2663 -0.3754  0.0508
12894TIP3    H160097   1.681   0.174   2.800  2.7031 -1.7092  0.5132
12894TIP3    H260098   1.781   0.287   2.806 -0.5348  1.3265  0.8596
12895TIP3   OH260099   5.636   2.729  14.095 -0.9276 -0.1663  0.6377
12895TIP3    H160100   5.581   2.727  14.173 -0.2179  1.5313  1.2490
12895TIP3    H260101   5.725   2.740  14.129 -0.7684  2.4244 -0.3631
12896TIP3   OH260102   0.474   5.124  12.671 -0.0556 -0.5338  0.1030
12896TIP3    H160103   0.527   5.099  12.746  0.3955  0.4208  0.1224
12896TIP3    H260104   0.459   5.218  12.682  0.9615 -0.1157 -1.5409
12897TIP3   OH260105   2.732   4.317   0.299  0.2123  0.2193  0.1396
12897TIP3    H160106   2.754   4.267   0.220  1.7253  0.9448  0.0672
12897TIP3    H260107   2.801   4.294   0.362  0.2828  1.3401  0.4916
12898TIP3   OH260108   3.193   2.291   5.960  0.2402  0.5543  0.2137
12898TIP3    H160109   3.234   2.290   6.047  1.2696  1.1732 -0.2435
12898TIP3    H260110   3.255   2.339   5.905  0.4829 -1.3332 -1.2878
12899TIP3   OH260111   5.341   2.850   4.272 -0.7762 -0.3821 -0.3900
12899TIP3    H160112   5.322   2.768   4.317 -0.4522 -0.2501 -0.0135
12899TIP3    H260113   5.436   2.857   4.274 -0.8886  1.1209  1.5672
12900TIP3   OH260114   4.953   2.974   5.238 -0.0703 -0.3561  0.0571
12900TIP3    H160115   4.903   2.937   5.165  0.7240 -3.9482  1.1378
12900TIP3    H260116   4.904   3.052   5.263 -2.3285 -0.9559 -2.0548
12901TIP3   OH260117   2.318   5.556  17.321 -0.4312  0.4892 -0.6246
12901TIP3    H160118   2.297   5.529  17.232 -1.3018 -0.7459 -0.0697
12901TIP3    H260119   2.413   5.569  17.320 -0.1221 -1.5121 -1.2471
12902TIP3   OH260120   6.390   5.373  17.370  0.1014  1.4524 -0.5772
12902TIP3    H160121   6.335   5.451  17.362  0.0145  1.4874  0.3246
12902TIP3    H260122   6.380   5.344  17.460 -0.3288  0.0371 -1.0500
12903TIP3   OH260123   1.961   1.138  11.771  0.5738  0.6405 -0.1235
12903TIP3    H160124   2.004   1.067  11.820 -0.5212  0.4758  0.6433
12903TIP3    H260125   1.886   1.162  11.825 -0.9476  0.1731 -1.9127
12904TIP3   OH260126   4.190   4.067  12.507 -1.2144 -0.1440 -0.3584
12904TIP3    H160127   4.134   4.076  12.584 -2.1779 -0.3896 -1.0063
12904TIP3    H260128   4.234   4.151  12.499  1.1544 -0.9941  2.1092
12905TIP3   OH260129   3.342   3.742  14.374  0.1804  0.4509 -0.0176
12905TIP3    H160130   3.275   3.789  14.423 -0.5046 -1.4554  0.9842
12905TIP3    H260131   3.380   3.807  14.315 -1.3154  1.9945  0.6684
12906TIP3   OH260132   1.190   4.940  12.860 -0.3126 -0.4706 -0.1875
12906TIP3    H160133   1.152   5.018  12.820 -1.8289 -1.1630 -0.1775
12906TIP3    H260134   1.171   4.949  12.953 -1.8731 -1.5136 -0.3528
12907TIP3   OH260135   5.674   3.822  15.985  0.0957 -0.1568  0.8153
12907TIP3    H160136   5.749   3.868  16.023 -1.9122  1.3866  3.2704
12907TIP3    H260137   5.660   3.747  16.042 -1.3978  0.7169  1.6567
12908TIP3   OH260138   6.203   4.417   5.219  0.2037 -0.6136 -0.0501
12908TIP3    H160139   6.252   4.363   5.156 -1.1913 -0.3573 -1.4259
12908TIP3    H260140   6.141   4.356   5.259 -0.1060 -0.4296 -0.2418
12909TIP3   OH260141   2.408   4.923   0.341  0.6184  0.1991  0.3072
12909TIP3    H160142   2.448   5.009   0.353  1.2419 -0.0454  0.0042
12909TIP3    H260143   2.366   4.927   0.255 -0.6631  0.7002  0.9253
12910TIP3   OH260144   1.710   5.395   6.027 -0.5179 -0.0322  0.0669
12910TIP3    H160145   1.665   5.434   6.102 -0.7197 -1.9056  0.9578
12910TIP3    H260146   1.648   5.402   5.955 -0.9077  0.4229  0.4434
12911TIP3   OH260147   3.424   6.753   2.205 -0.1383 -0.2534  0.3883
12911TIP3    H160148   3.509   6.753   2.163 -0.2462 -2.7631  0.0352
12911TIP3    H260149   3.361   6.748   2.133 -0.4268 -1.6038  0.7001
12912TIP3   OH260150   0.515   3.431  12.291 -0.1883 -0.0153  0.2306
12912TIP3    H160151   0.454   3.505  12.290 -1.0548 -0.7127 -0.1554
12912TIP3    H260152   0.483   3.374  12.221  0.7336 -0.5398  0.2329
12913TIP3   OH260153   6.097   2.011  15.321 -0.1968 -0.5022 -0.3691
12913TIP3    H160154   6.132   1.969  15.399 -1.0379  0.8580  0.7922
12913TIP3    H260155   6.162   1.994  15.253  1.3519 -0.3711  1.0228
12914TIP3   OH260156   3.867   1.125   2.770  0.1662 -0.0066  0.4499
12914TIP3    H160157   3.795   1.185   2.787 -0.3821 -0.9947  1.8348
12914TIP3    H260158   3.930   1.142   2.840 -0.1415 -1.1998  1.0594
12915TIP3   OH260159   2.765   2.563  16.281  0.3824 -0.9235  0.1628
12915TIP3    H160160   2.750   2.501  16.353  2.6087 -2.6618 -0.7226
12915TIP3    H260161   2.835   2.619  16.312  1.5114 -1.8254 -0.6619
12916TIP3   OH260162   5.552   6.488  15.981 -0.3329 -0.3950 -0.0856
12916TIP3    H160163   5.524   6.408  15.936  1.4239 -1.1580  0.0746
12916TIP3    H260164   5.643   6.500  15.954  0.0812  0.3621  1.5053
12917TIP3   OH260165   1.164   1.724   6.225 -0.4412  0.2428 -0.0434
12917TIP3    H160166   1.232   1.659   6.207  0.4739  1.1057  0.2214
12917TIP3    H260167   1.178   1.749   6.316 -0.9417  0.6330 -0.0681
12918TIP3   OH260168   2.793   3.233   3.485  0.1304 -0.1852  0.1682
12918TIP3    H160169   2.789   3.164   3.552 -0.3080 -0.4735 -0.1458
12918TIP3    H260170   2.885   3.261   3.485  0.5688 -1.5188 -0.4249
12919TIP3   OH260171   6.687   2.137   0.347  0.2532 -0.0338 -0.3233
12919TIP3    H160172   6.728   2.051   0.338  1.0313  0.4713 -1.9424
12919TIP3    H260173   6.742   2.196   0.295 -2.4040  0.7038 -2.5184
12920TIP3   OH260174   3.609   0.516   2.026  0.1430 -0.0130  0.4918
12920TIP3    H160175   3.542   0.463   2.069 -0.6312 -0.0597 -0.7132
12920TIP3    H260176   3.602   0.602   2.066 -2.4693  0.7574 -1.3517
12921TIP3   OH260177   1.628   2.233  12.618  0.7744  0.5989 -0.1638
12921TIP3    H160178   1.583   2.186  12.548  1.9321 -0.0600 -0.4953
12921TIP3    H260179   1.598   2.192  12.699 -3.3640  3.6113  0.1840
12922TIP3   OH260180   1.036   5.513   0.089  0.0495  0.4232 -0.8136
12922TIP3    H160181   1.031   5.437   0.148  0.7632 -1.0639 -2.5552
12922TIP3    H260182   0.945   5.537   0.075 -0.1220  1.5087  1.6584
12923TIP3   OH260183   2.650   1.450   3.578 -0.2638 -0.1240 -0.1973
12923TIP3    H160184   2.578   1.406   3.532 -0.4547 -0.4957  0.4374
12923TIP3    H260185   2.667   1.529   3.526 -1.1634 -0.0075 -0.3340
12924TIP3   OH260186   0.412   5.383   0.669 -0.3991  0.2483 -0.8046
12924TIP3    H160187   0.406   5.479   0.661 -1.3982  0.1257 -1.7502
12924TIP3    H260188   0.467   5.356   0.596  0.3044  0.1358 -0.2403
12925TIP3   OH260189   6.585   3.005  13.514  0.0581 -0.0574  0.1993
12925TIP3    H160190   6.593   2.999  13.609  0.2336  0.6547  0.2316
12925TIP3    H260191   6.675   2.996  13.482  0.1712  1.0887  0.1801
12926TIP3   OH260192   3.499   1.433  14.737  0.0794 -0.1994 -0.7445
12926TIP3    H160193   3.405   1.426  14.754  0.2584  1.0945  1.1920
12926TIP3    H260194   3.528   1.505  14.794  2.1647 -0.2534 -1.6411
12927TIP3   OH260195   4.945   3.574  15.935 -1.1580  0.1047 -0.1034
12927TIP3    H160196   4.949   3.670  15.942 -1.1183  0.0977 -0.0327
12927TIP3    H260197   5.024   3.544  15.979 -0.0684  0.1422 -1.9056
12928TIP3   OH260198   0.843   3.024   2.371  0.3565  0.0555  0.5553
12928TIP3    H160199   0.808   3.101   2.416 -0.7052 -0.1038  0.0316
12928TIP3    H260200   0.783   3.009   2.298 -0.7505 -2.5517  1.8778
12929TIP3   OH260201   1.906   1.842  12.910 -0.0903 -0.1139  0.4867
12929TIP3    H160202   1.876   1.849  12.820 -2.6389  0.2142  1.2788
12929TIP3    H260203   1.826   1.843  12.962  1.3245  0.4192  2.8035
12930TIP3   OH260204   3.449   4.064   4.740  0.5368  0.1301  0.0118
12930TIP3    H160205   3.532   4.072   4.694  0.4034  0.7011 -0.1422
12930TIP3    H260206   3.467   4.005   4.813  0.6875 -1.0376 -0.9245
12931TIP3   OH260207   1.250   3.194   3.018  0.0034  0.0815  0.1744
12931TIP3    H160208   1.209   3.279   3.009 -0.0517 -0.0427 -0.9043
12931TIP3    H260209   1.335   3.204   2.975  0.0760 -0.3530  0.2130
12932TIP3   OH260210   1.466   0.414  16.440  0.4441  0.3716 -0.4003
12932TIP3    H160211   1.384   0.414  16.489  1.0550 -1.0878  0.6602
12932TIP3    H260212   1.444   0.370  16.357  0.4452 -1.2534  0.4358
12933TIP3   OH260213   0.872   6.386  16.158  0.0176 -0.6601 -0.1456
12933TIP3    H160214   0.915   6.429  16.232 -1.3186  1.7443 -0.6836
12933TIP3    H260215   0.882   6.292  16.176 -0.7246 -0.1916  3.3791
12934TIP3   OH260216   4.255   2.361  13.318 -0.0190  0.7352 -0.2362
12934TIP3    H160217   4.313   2.290  13.289 -0.7880  0.1307 -0.3229
12934TIP3    H260218   4.241   2.343  13.411  0.0761  0.9829 -0.1734
12935TIP3   OH260219   3.965   5.330   0.549  0.0677  0.1310 -0.6581
12935TIP3    H160220   4.010   5.391   0.608  1.7283 -0.4627 -1.2708
12935TIP3    H260221   3.938   5.258   0.605  1.7872 -0.5096 -0.6251
12936TIP3   OH260222   2.580   6.516  16.041 -0.6034  0.0919  0.1644
12936TIP3    H160223   2.587   6.453  15.969 -0.3848  1.6197 -1.2079
12936TIP3    H260224   2.486   6.522  16.058 -0.5662 -1.5100  1.2035
12937TIP3   OH260225   3.672   6.078  11.021 -0.2247  0.1581  0.5192
12937TIP3    H160226   3.718   6.136  11.082 -3.4650  1.2338  2.1940
12937TIP3    H260227   3.684   5.990  11.059  1.9084  0.0895 -0.1704
12938TIP3   OH260228   3.039   5.497   4.902 -0.0332  0.0481  0.6017
12938TIP3    H160229   3.094   5.561   4.856 -0.0186  0.2280  0.8723
12938TIP3    H260230   2.963   5.547   4.931  0.2454  0.0730  1.3124
12939TIP3   OH260231   5.487   4.976  16.134  0.0770  0.1863 -0.0936
12939TIP3    H160232   5.566   4.954  16.182  0.0425  0.8131  0.2693
12939TIP3    H260233   5.509   5.055  16.086  0.1422 -0.4925 -1.2177
12940TIP3   OH260234   0.491   0.445   5.533 -0.5002  0.3628 -0.3272
12940TIP3    H160235   0.573   0.411   5.569  0.6175  0.7500 -2.4107
12940TIP3    H260236   0.456   0.501   5.603  0.9300  0.1070  0.6319
12941TIP3   OH260237   4.277   4.522   3.750 -0.4849 -0.3198  0.4089
12941TIP3    H160238   4.199   4.576   3.763 -0.0852  0.4164 -0.1541
12941TIP3    H260239   4.309   4.549   3.664  0.6760 -0.2483  0.8532
12942TIP3   OH260240   6.230   2.143  11.335 -0.3889 -0.0805  0.0527
12942TIP3    H160241   6.220   2.123  11.428 -2.4255 -0.9718 -0.3013
12942TIP3    H260242   6.178   2.076  11.291  1.3738 -0.3148 -1.8100
12943TIP3   OH260243   4.737   4.567  14.086  0.0072  0.4508 -0.2350
12943TIP3    H160244   4.747   4.483  14.130 -0.4492 -0.4336 -1.7727
12943TIP3    H260245   4.784   4.558  14.004 -1.0504  1.2761 -0.9683
12944TIP3   OH260246   2.462   6.385   5.074 -0.0169  0.2157  0.4845
12944TIP3    H160247   2.518   6.447   5.029 -1.6723  1.2471 -0.2744
12944TIP3    H260248   2.435   6.323   5.006 -1.1062  0.7284  0.4262
12945TIP3   OH260249   1.537   2.602   2.846  0.2054  0.1690 -0.2075
12945TIP3    H160250   1.620   2.591   2.891  1.5372 -1.5612 -2.8792
12945TIP3    H260251   1.521   2.519   2.803 -4.3819 -0.5896  2.3121
12946TIP3   OH260252   5.740   1.009  14.130 -0.1054 -0.0973 -0.7062
12946TIP3    H160253   5.687   1.058  14.194 -3.7695 -0.5989 -3.0395
12946TIP3    H260254   5.734   1.060  14.050 -0.8503 -2.3632 -2.2034
12947TIP3   OH260255   6.348   2.831   3.964 -0.3623  0.2918  0.3099
12947TIP3    H160256   6.270   2.862   4.010 -0.2604  0.4690  0.3663
12947TIP3    H260257   6.315   2.794   3.882 -0.6407 -0.8648  0.9196
12948TIP3   OH260258   3.028   2.235  13.666  0.3245  0.1622 -0.2797
12948TIP3    H160259   3.093   2.166  13.655  1.5129  0.9394  1.3972
12948TIP3    H260260   3.010   2.237  13.760 -0.2207  1.6560 -0.3885
12949TIP3   OH260261   0.546   3.127   4.002  0.2663 -0.2207 -0.8707
12949TIP3    H160262   0.594   3.098   4.079  0.0558  0.1402 -0.5985
12949TIP3    H260263   0.541   3.050   3.946 -0.1171 -0.6565 -0.2489
12950TIP3   OH260264   3.721   0.672  13.849  0.5704 -0.4350  0.1078
12950TIP3    H160265   3.662   0.748  13.854  0.3649 -0.6166  0.5409
12950TIP3    H260266   3.796   0.703  13.800  0.5958  0.1265  0.4920
12951TIP3   OH260267   4.750   0.168  17.203  0.2135  0.4125  0.0826
12951TIP3    H160268   4.807   0.104  17.246 -0.3433  1.1950  2.1140
12951TIP3    H260269   4.807   0.214  17.142  0.9262 -1.1225 -0.4383
12952TIP3   OH260270   3.826   2.115  11.474  0.1115 -0.2516  0.0647
12952TIP3    H160271   3.837   2.179  11.404  0.6253 -0.5123 -0.1025
12952TIP3    H260272   3.891   2.047  11.454  0.0347 -0.4906  0.6091
12953TIP3   OH260273   3.647   5.680   0.608  0.5426 -0.2605 -0.3240
12953TIP3    H160274   3.552   5.663   0.612  0.7430 -1.4875 -0.4342
12953TIP3    H260275   3.666   5.685   0.515  0.6469 -0.4083 -0.3112
12954TIP3   OH260276   4.015   5.579   5.197  0.0355 -0.5061  0.1020
12954TIP3    H160277   4.009   5.673   5.214  0.9977 -0.4130 -0.0590
12954TIP3    H260278   3.961   5.566   5.118 -1.4300 -0.3694  1.0362
12955TIP3   OH260279   0.568   6.673  12.721  0.1979  0.1444  0.1448
12955TIP3    H160280   0.583   6.701  12.631 -1.0167  1.0876  0.2056
12955TIP3    H260281   0.635   6.606  12.737  1.8220  1.4757 -0.7484
12956TIP3   OH260282   6.440   5.524   1.684  0.3326  0.1596 -0.8660
12956TIP3    H160283   6.489   5.591   1.636  2.0535 -1.4175 -1.3944
12956TIP3    H260284   6.474   5.441   1.652  2.9095 -1.1015  4.0794
12957TIP3   OH260285   1.347   5.355  14.095 -0.4164  0.4633 -0.2212
12957TIP3    H160286   1.442   5.367  14.105 -0.1750 -0.4688 -1.1948
12957TIP3    H260287   1.328   5.274  14.143 -0.6129  0.3429 -0.4981
12958TIP3   OH260288   2.107   6.639   1.983  0.1217  0.0412  0.0634
12958TIP3    H160289   2.058   6.602   2.056 -1.5229  0.4485 -0.7846
12958TIP3    H260290   2.139   6.724   2.016  0.3073 -0.2451  0.6349
12959TIP3   OH260291   2.122   3.195  12.516 -0.5459 -0.4270  0.5775
12959TIP3    H160292   2.146   3.131  12.582 -0.8871  0.9800  2.1457
12959TIP3    H260293   2.032   3.172  12.491 -0.4873 -0.8483  0.7534
12960TIP3   OH260294   1.573   6.453  16.093  0.2916  0.1138 -0.9719
12960TIP3    H160295   1.558   6.358  16.103  1.0247 -0.0076 -1.0068
12960TIP3    H260296   1.558   6.469  16.000 -1.2552  0.3006 -0.7243
12961TIP3   OH260297   2.917   3.779   1.198  0.1987 -0.2407  0.3191
12961TIP3    H160298   2.884   3.758   1.285  0.5646  2.2139  1.1145
12961TIP3    H260299   2.877   3.863   1.176 -0.2494 -1.0150 -2.1195
12962TIP3   OH260300   4.763   3.949   4.085 -0.1799 -0.2473  0.1727
12962TIP3    H160301   4.854   3.918   4.090  0.0519  0.5029  0.9630
12962TIP3    H260302   4.771   4.043   4.073 -0.8225  0.0379  1.7628
12963TIP3   OH260303   2.806   0.818  11.674  0.0348 -0.4737 -0.4811
12963TIP3    H160304   2.884   0.795  11.723  0.6588 -0.3444 -1.3918
12963TIP3    H260305   2.831   0.807  11.582 -1.0957 -0.6842 -0.7764
12964TIP3   OH260306   2.668   4.488   4.899  1.1649 -0.0246  0.0004
12964TIP3    H160307   2.704   4.508   4.985 -0.7461  1.0701  0.5998
12964TIP3    H260308   2.711   4.407   4.873  1.9399 -0.2579  1.8716
12965TIP3   OH260309   3.281   2.239  14.286 -0.1841 -0.8175 -0.6382
12965TIP3    H160310   3.228   2.190  14.350  2.0798 -1.7929  0.6396
12965TIP3    H260311   3.331   2.171  14.241  3.5502  0.1300  1.6427
12966TIP3   OH260312   5.450   4.410  14.574 -0.3566  0.1869 -0.4529
12966TIP3    H160313   5.538   4.447  14.586  0.1689 -1.2887  0.4772
12966TIP3    H260314   5.407   4.471  14.514  0.7145  1.8851  0.4167
12967TIP3   OH260315   4.037   3.223  15.433  0.0886  0.1773  0.4597
12967TIP3    H160316   4.086   3.176  15.500  0.1557 -0.3305  0.0610
12967TIP3    H260317   3.948   3.187  15.437  0.6157 -1.4521 -1.1806
12968TIP3   OH260318   0.564   1.501  13.463 -0.0715  0.8174  0.2883
12968TIP3    H160319   0.534   1.548  13.385  0.6195  1.7085  0.5421
12968TIP3    H260320   0.515   1.418  13.462  1.0120  0.1557 -1.8791
12969TIP3   OH260321   2.443   0.021   3.913 -0.2025 -0.4330  0.0772
12969TIP3    H160322   2.483   0.032   3.827 -1.7595 -0.5638 -0.7009
12969TIP3    H260323   2.349   0.036   3.898 -0.7699 -2.3736  1.3550
12970TIP3   OH260324   5.561   4.517  16.989  0.1094 -0.1080 -0.2504
12970TIP3    H160325   5.541   4.447  16.928  1.0369 -1.0136  0.4509
12970TIP3    H260326   5.646   4.551  16.961 -0.3659  0.8022 -0.6315
12971TIP3   OH260327   1.100   4.448  15.288 -0.7604 -0.0851  0.3854
12971TIP3    H160328   1.104   4.415  15.198 -2.0823  0.8082 -0.0331
12971TIP3    H260329   1.058   4.378  15.338 -1.4504  0.0244 -0.0262
12972TIP3   OH260330   2.365   1.291   2.482  0.7200  0.0946 -0.3856
12972TIP3    H160331   2.439   1.240   2.448  1.9214  1.1012  0.6097
12972TIP3    H260332   2.300   1.226   2.507  2.5776 -1.0965  1.7341
12973TIP3   OH260333   5.307   4.103   4.201 -0.5619 -0.6278 -0.1475
12973TIP3    H160334   5.353   4.070   4.278  1.0905  0.0188 -0.8116
12973TIP3    H260335   5.220   4.127   4.233 -0.3343 -1.5557  1.2320
12974TIP3   OH260336   2.149   6.388  13.521 -0.6552 -0.2421 -0.0571
12974TIP3    H160337   2.146   6.368  13.614 -1.1357  2.3529  0.5723
12974TIP3    H260338   2.240   6.412  13.504 -0.6424 -0.3730 -0.1775
12975TIP3   OH260339   5.146   1.129  15.258 -0.6678  0.0153  0.5172
12975TIP3    H160340   5.080   1.194  15.232  0.1286  0.2976 -0.9027
12975TIP3    H260341   5.109   1.045  15.231 -0.5107  0.1654 -0.1985
12976TIP3   OH260342   3.740   6.078   5.864 -0.1790  0.0424 -0.4183
12976TIP3    H160343   3.671   6.071   5.930 -1.4770  0.9498 -1.6126
12976TIP3    H260344   3.820   6.095   5.914 -0.8463 -0.8203  0.9879
12977TIP3   OH260345   6.005   2.129   0.718  0.3935 -0.0443  0.4541
12977TIP3    H160346   5.987   2.187   0.644  0.3884 -0.5679  0.0435
12977TIP3    H260347   5.978   2.180   0.795  0.1991  0.4202  0.0851
12978TIP3   OH260348   1.718   4.280   5.177 -0.1123  0.3174 -0.3461
12978TIP3    H160349   1.647   4.314   5.122 -1.7905  1.0349  2.0682
12978TIP3    H260350   1.686   4.194   5.206  0.9205 -0.2233 -0.7552
12979TIP3   OH260351   5.507   6.584  13.021 -0.2194 -0.4074 -0.1033
12979TIP3    H160352   5.420   6.551  12.999 -1.2810  1.3760  1.1964
12979TIP3    H260353   5.533   6.636  12.945  0.1789 -1.7227 -0.9038
12980TIP3   OH260354   0.848   0.986   3.271  0.1414  0.3556 -0.2118
12980TIP3    H160355   0.821   1.072   3.306  0.2432  0.6716 -0.9072
12980TIP3    H260356   0.844   0.928   3.347  0.4122  1.0502  0.3495
12981TIP3   OH260357   0.268   5.946  12.751  0.0949  0.2594  0.3454
12981TIP3    H160358   0.305   5.863  12.719  0.8818  1.0939 -1.0512
12981TIP3    H260359   0.345   6.000  12.771 -0.3884  1.0893  0.0086
12982TIP3   OH260360   2.632   0.807   4.149 -0.0429 -0.4141 -0.2418
12982TIP3    H160361   2.722   0.840   4.148 -0.1895  0.0054  0.0331
12982TIP3    H260362   2.640   0.717   4.179  0.3962 -0.7342 -1.2564
12983TIP3   OH260363   6.518   2.805  12.005  0.0343  0.0052 -0.7823
12983TIP3    H160364   6.534   2.792  12.098  0.7644 -0.6894 -1.0008
12983TIP3    H260365   6.427   2.837  12.001 -0.2599 -0.6789  0.1105
12984TIP3   OH260366   4.774   1.005  12.908  0.0750  0.4771 -0.1998
12984TIP3    H160367   4.707   1.069  12.884 -0.2079  0.5226  0.6782
12984TIP3    H260368   4.794   1.025  13.000 -1.5785 -2.0024  0.8152
12985TIP3   OH260369   5.872   3.684   2.358  0.3484  0.8331 -0.4588
12985TIP3    H160370   5.867   3.613   2.422  1.5909  0.7923 -0.3861
12985TIP3    H260371   5.804   3.746   2.384  0.5438  0.6003  0.6217
12986TIP3   OH260372   0.597   1.908   5.584 -0.3698  0.0527  0.5688
12986TIP3    H160373   0.673   1.962   5.607 -0.3241 -0.0345  0.6215
12986TIP3    H260374   0.550   1.896   5.666  0.1858 -0.8716  0.7694
12987TIP3   OH260375   5.449   3.119   4.452  0.4866  0.1549 -0.3236
12987TIP3    H160376   5.395   3.175   4.396  1.5013  1.7354  0.2009
12987TIP3    H260377   5.396   3.105   4.530  0.0129 -0.0833 -0.6809
12988TIP3   OH260378   3.611   1.410   2.573 -0.0456  0.1899  0.0394
12988TIP3    H160379   3.665   1.443   2.645  0.5205 -1.3827  0.3709
12988TIP3    H260380   3.663   1.428   2.494  1.2509 -1.7409  0.3929
12989TIP3   OH260381   1.174   6.251  14.933  0.0652 -0.2193 -0.5423
12989TIP3    H160382   1.211   6.304  14.862 -0.8456  1.6732  0.3032
12989TIP3    H260383   1.236   6.259  15.005 -1.0887  1.6095  0.3265
12990TIP3   OH260384   2.443   4.283   2.863 -0.2319 -0.4119  0.3989
12990TIP3    H160385   2.403   4.200   2.835 -0.8220  0.8020 -2.8019
12990TIP3    H260386   2.475   4.323   2.782  0.5948  2.2420  1.8959
12991TIP3   OH260387   5.000   2.212   0.006  0.5095  0.0137  0.7284
12991TIP3    H160388   5.000   2.307  -0.007  0.3563 -0.0715  0.0519
12991TIP3    H260389   4.913   2.184  -0.021  1.1732 -0.5432 -0.9878
12992TIP3   OH260390   5.261   4.784  14.839  0.0358  0.4516  0.3898
12992TIP3    H160391   5.195   4.814  14.901 -0.6905  0.7063 -0.4869
12992TIP3    H260392   5.227   4.809  14.753 -0.0526 -1.8626 -0.3064
12993TIP3   OH260393   0.969   2.290   4.648  0.2418 -0.2276  0.6710
12993TIP3    H160394   1.040   2.302   4.585 -0.5996 -2.0393 -0.7096
12993TIP3    H260395   0.982   2.201   4.682 -0.9123 -0.2891  0.9951
12994TIP3   OH260396   6.142   6.023  14.811  0.4841  0.0673  0.0916
12994TIP3    H160397   6.169   6.016  14.719 -0.5834 -1.4565 -0.1544
12994TIP3    H260398   6.204   6.084  14.850  3.0222 -1.7223 -0.8881
12995TIP3   OH260399   1.841   3.340   2.005  0.1788 -0.0893 -1.0102
12995TIP3    H160400   1.894   3.336   1.926  1.0535 -0.2145 -0.4351
12995TIP3    H260401   1.797   3.255   2.010  0.2214 -0.1272 -1.2971
12996TIP3   OH260402   4.967   3.087  14.825  0.2528  0.0226 -0.1750
12996TIP3    H160403   4.932   3.091  14.914 -0.9688 -0.0055 -0.6220
12996TIP3    H260404   4.904   3.138  14.773  1.6354  1.1381 -0.8232
12997TIP3   OH260405   1.018   2.910   6.470 -0.3994  0.1216 -0.0085
12997TIP3    H160406   0.976   2.828   6.444 -1.3803  0.6925 -0.2833
12997TIP3    H260407   1.111   2.895   6.454 -0.5774 -0.8737 -0.2144
12998TIP3   OH260408   1.848   4.371  12.249  0.1224  0.0724 -0.5590
12998TIP3    H160409   1.826   4.397  12.338  1.8472 -0.3831  0.0408
12998TIP3    H260410   1.835   4.450  12.197 -0.3136  0.5094  0.2023
12999TIP3   OH260411   2.411   3.155   1.673  0.1661  0.2520  0.1547
12999TIP3    H160412   2.410   3.064   1.704  0.4797  0.2941  0.2976
12999TIP3    H260413   2.371   3.204   1.744  2.6379  0.6155  1.4231
13000TIP3   OH260414   0.303   4.484   2.439  0.8813  0.3527 -0.1203
13000TIP3    H160415   0.320   4.512   2.349 -0.8482 -0.2225 -0.6491
13000TIP3    H260416   0.288   4.390   2.433 -0.5644  0.5226  0.5508
13001TIP3   OH260417   5.978   3.459   2.615  0.2895  0.0454  0.0276
13001TIP3    H160418   6.011   3.397   2.550 -2.2281 -1.9421  0.5123
13001TIP3    H260419   5.981   3.411   2.698 -1.4345  0.6598  0.4765
13002TIP3   OH260420   0.867   3.752  13.452 -0.6073 -0.2301 -0.5627
13002TIP3    H160421   0.832   3.671  13.489 -1.1089 -0.5687 -1.7415
13002TIP3    H260422   0.836   3.753  13.361 -1.0263  1.5262 -0.4314
13003TIP3   OH260423   1.898   1.922   2.698  0.2011 -0.6409 -0.4646
13003TIP3    H160424   1.957   1.851   2.723 -0.8652 -1.0018  1.1530
13003TIP3    H260425   1.928   1.948   2.611  1.9092 -1.6727 -0.2279
13004TIP3   OH260426   3.571   3.949  12.825  0.2017 -0.1766 -0.5946
13004TIP3    H160427   3.561   3.854  12.818  0.6311 -0.2787  0.0672
13004TIP3    H260428   3.518   3.973  12.901 -0.5995  0.2406 -1.2699
13005TIP3   OH260429   2.304   2.070   1.004  0.3910  0.3058 -0.3032
13005TIP3    H160430   2.288   2.005   1.073  0.2410  0.5217 -0.1318
13005TIP3    H260431   2.245   2.045   0.933 -0.0597  0.5664 -0.0272
13006TIP3   OH260432   0.751   3.120  14.218 -0.3192  0.3592  0.0614
13006TIP3    H160433   0.657   3.123  14.198 -0.1950 -0.1786 -0.6629
13006TIP3    H260434   0.792   3.168  14.146  0.0159 -0.1610 -0.1047
13007TIP3   OH260435   6.152   6.332  12.231 -0.4468 -0.0126 -0.1881
13007TIP3    H160436   6.125   6.317  12.321  0.2316 -0.5846 -0.0721
13007TIP3    H260437   6.149   6.246  12.189  0.0933  0.0932 -0.4627
13008TIP3   OH260438   2.067   2.440   3.754 -0.2768  0.0969 -0.6324
13008TIP3    H160439   2.082   2.349   3.726 -1.2110  0.2648 -1.7754
13008TIP3    H260440   2.149   2.485   3.732 -0.5987 -0.0118 -2.1748
13009TIP3   OH260441   0.837   0.952   5.554  0.1042 -0.3038  0.1245
13009TIP3    H160442   0.870   0.986   5.471 -0.0834  1.7936  0.8348
13009TIP3    H260443   0.755   1.000   5.568  0.8753  0.5097  2.1964
13010TIP3   OH260444   5.331   1.728   2.518 -0.3723 -0.0450 -0.0256
13010TIP3    H160445   5.290   1.814   2.510 -1.5990 -0.4835  1.1026
13010TIP3    H260446   5.304   1.697   2.605  1.6467 -0.7592  0.4060
13011TIP3   OH260447   4.512   5.062  17.129 -0.2342 -0.8034 -0.0402
13011TIP3    H160448   4.452   5.106  17.069  0.1943 -0.4475 -0.2141
13011TIP3    H260449   4.455   5.017  17.192 -0.6915 -1.4027 -0.8704
13012TIP3   OH260450   6.422   2.110   1.918 -0.0681  0.3184 -0.9846
13012TIP3    H160451   6.429   2.205   1.907 -0.8283  0.5872  0.5810
13012TIP3    H260452   6.500   2.076   1.875  1.5408  1.8514  0.5310
13013TIP3   OH260453   0.961   1.198  13.949  0.4223 -0.1317  0.3167
13013TIP3    H160454   0.914   1.152  13.880  2.1086 -1.2297 -0.1638
13013TIP3    H260455   0.943   1.147  14.028 -0.2138  0.2010  0.3931
13014TIP3   OH260456   5.186   5.990   5.534 -0.8297 -0.6400  0.9566
13014TIP3    H160457   5.271   6.005   5.575 -0.2188 -1.8561  0.2164
13014TIP3    H260458   5.207   5.936   5.457 -2.2178 -0.5293  0.4844
13015TIP3   OH260459   1.745   1.390   3.627 -0.3160  0.4858 -0.2599
13015TIP3    H160460   1.765   1.445   3.703 -0.5132  0.0315  0.1249
13015TIP3    H260461   1.826   1.390   3.576  0.0557  0.2017  0.3206
13016TIP3   OH260462   3.264   5.897  12.541  0.1452 -0.4064  0.3691
13016TIP3    H160463   3.313   5.911  12.460  0.8459  0.0037  0.8500
13016TIP3    H260464   3.202   5.969  12.544  1.1855  0.5074  0.9559
13017TIP3   OH260465   4.290   0.899  14.181  0.2748 -0.0560  0.7853
13017TIP3    H160466   4.371   0.850  14.196 -0.4194 -1.5346 -0.1255
13017TIP3    H260467   4.315   0.990  14.198  2.2468 -0.4175  0.1591
13018TIP3   OH260468   5.237   1.492  15.959 -0.3113  0.2062 -0.0499
13018TIP3    H160469   5.143   1.491  15.979 -0.2575  3.4454  0.9074
13018TIP3    H260470   5.242   1.515  15.866 -0.4054 -0.6505 -0.2852
13019TIP3   OH260471   1.561   6.407  12.700 -0.2831  0.2966  0.2770
13019TIP3    H160472   1.636   6.381  12.754  1.1690 -0.1767 -1.8153
13019TIP3    H260473   1.574   6.500  12.685  0.8722 -0.0833 -1.3948
13020TIP3   OH260474   5.424   6.105   1.618 -0.3426 -0.1308 -0.6444
13020TIP3    H160475   5.398   6.189   1.657 -0.4335 -1.2414  1.8524
13020TIP3    H260476   5.514   6.092   1.647  0.0048 -0.4751 -1.8256
13021TIP3   OH260477   6.282   1.861   2.581  0.0469  0.7414 -0.2362
13021TIP3    H160478   6.352   1.796   2.570  0.7373  1.4169  0.0839
13021TIP3    H260479   6.276   1.873   2.676 -0.6092  0.5839 -0.2550
13022TIP3   OH260480   2.527   3.445   5.690  0.4626  0.5903 -0.0474
13022TIP3    H160481   2.569   3.396   5.762  2.2173  0.3308 -1.1812
13022TIP3    H260482   2.597   3.501   5.656  0.4143 -0.9632 -3.0191
13023TIP3   OH260483   5.232   0.879  15.513  0.3531 -0.1250  0.0949
13023TIP3    H160484   5.305   0.821  15.491 -0.1395 -0.3741 -0.9880
13023TIP3    H260485   5.220   0.868  15.607  0.8711 -1.0808  0.0711
13024TIP3   OH260486   3.700   3.217   4.939  0.4133 -0.0567 -0.3421
13024TIP3    H160487   3.651   3.295   4.909 -0.9235  0.6443  3.2004
13024TIP3    H260488   3.645   3.143   4.912 -0.0155  0.4277 -0.8362
13025TIP3   OH260489   2.340   0.527  13.296 -0.5719 -0.3751 -0.3662
13025TIP3    H160490   2.275   0.501  13.231 -1.8553  0.3589  0.6009
13025TIP3    H260491   2.424   0.520  13.249 -1.3902 -0.5656 -1.8634
13026TIP3   OH260492   5.417   0.889  12.123 -0.2186 -0.2487 -0.8360
13026TIP3    H160493   5.340   0.865  12.072  0.6397 -0.0519 -2.2679
13026TIP3    H260494   5.482   0.823  12.102  0.7898  0.9385 -1.5638
13027TIP3   OH260495   3.792   1.318  11.163 -0.5766  0.5851 -0.6671
13027TIP3    H160496   3.842   1.350  11.088 -0.7914  2.0185 -0.2252
13027TIP3    H260497   3.857   1.312  11.234 -0.5870  0.2378 -0.6834
13028TIP3   OH260498   0.044   5.071   2.826  0.3135 -0.0324 -0.3232
13028TIP3    H160499  -0.005   5.040   2.750 -0.5568  0.5285 -0.0099
13028TIP3    H260500   0.129   5.028   2.819  0.3977  0.3047 -1.8247
13029TIP3   OH260501   2.332   3.375   4.791 -0.7256  0.7259 -0.4770
13029TIP3    H160502   2.405   3.432   4.769  0.7279 -0.2486  1.5460
13029TIP3    H260503   2.365   3.319   4.861 -3.5313  0.5360  0.8488
13030TIP3   OH260504   2.051   4.345  13.847 -0.1280 -0.1137  0.5216
13030TIP3    H160505   1.997   4.423  13.854 -1.0241 -0.4837 -1.5954
13030TIP3    H260506   2.037   4.313  13.758 -0.0721 -2.8742  1.3899
13031TIP3   OH260507   5.211   3.803  14.387  0.0388  0.7695 -0.3449
13031TIP3    H160508   5.153   3.867  14.346 -0.4188 -0.6754 -2.0428
13031TIP3    H260509   5.156   3.727  14.404  0.3015  1.1088  2.6920
13032TIP3   OH260510   1.894   5.619   2.565 -0.6205  0.1058  0.8484
13032TIP3    H160511   1.966   5.620   2.501 -1.2643  0.4393  0.1065
13032TIP3    H260512   1.935   5.596   2.648  0.2209 -0.4530  0.2861
13033TIP3   OH260513   4.191   4.447   0.123 -0.1317 -0.0319  0.1889
13033TIP3    H160514   4.161   4.537   0.119 -1.4440 -0.5021 -1.8716
13033TIP3    H260515   4.214   4.425   0.033  0.6137 -1.6202  0.7249
13034TIP3   OH260516   6.475   2.811  16.317  0.0372  0.3809  0.1718
13034TIP3    H160517   6.522   2.850  16.390  0.5075 -0.8326  0.5262
13034TIP3    H260518   6.383   2.810  16.345 -0.0651  1.6202 -0.0342
13035TIP3   OH260519   2.229   2.658  13.569 -0.7877  0.1239 -0.3672
13035TIP3    H160520   2.167   2.729  13.548 -1.9842 -0.5076  0.8576
13035TIP3    H260521   2.260   2.627  13.484 -0.7079  1.7007 -0.9472
13036TIP3   OH260522   4.885   5.656  15.402 -0.2617  0.7546  0.4880
13036TIP3    H160523   4.793   5.639  15.420 -0.3245  1.0421  0.4461
13036TIP3    H260524   4.901   5.612  15.318 -1.2943  3.5946 -1.3593
13037TIP3   OH260525   0.181   1.115  16.610 -0.0105 -0.3229 -0.2267
13037TIP3    H160526   0.180   1.032  16.657 -0.9062 -0.0940  0.1940
13037TIP3    H260527   0.238   1.171  16.663  1.7599 -1.0553 -1.2702
13038TIP3   OH260528   2.118   2.381  12.612 -0.0465  0.0417 -0.6406
13038TIP3    H160529   2.181   2.336  12.556 -0.5088  1.4445 -2.3811
13038TIP3    H260530   2.033   2.345  12.586 -0.2145  0.2767 -0.4163
13039TIP3   OH260531   6.698   2.870   1.058 -0.0303  0.1610  0.3201
13039TIP3    H160532   6.751   2.855   1.136  3.1115  0.1410 -1.6403
13039TIP3    H260533   6.638   2.941   1.083  2.3290  1.6799  2.1708
13040TIP3   OH260534   2.622   6.308  13.729 -0.1110  0.1258 -0.6173
13040TIP3    H160535   2.711   6.306  13.693  0.5182 -1.3283  0.8659
13040TIP3    H260536   2.624   6.246  13.802 -2.3773  0.0167 -0.5667
13041TIP3   OH260537   1.218   4.484  12.995  0.1832  0.2178  0.1089
13041TIP3    H160538   1.197   4.452  13.083 -0.2056  0.4711  0.1073
13041TIP3    H260539   1.311   4.508  13.000  0.7284 -1.6797 -0.1128
13042TIP3   OH260540   4.194   5.520   3.915 -0.3020 -0.4926 -0.4584
13042TIP3    H160541   4.144   5.599   3.939 -0.4506 -1.2128  1.7574
13042TIP3    H260542   4.170   5.505   3.824  0.1292  2.3067 -1.1469
13043TIP3   OH260543   6.222   5.570   4.489  0.4418 -0.8161  0.1286
13043TIP3    H160544   6.306   5.561   4.444  1.6267  0.0058  2.0388
13043TIP3    H260545   6.164   5.607   4.423  1.3613 -2.0907 -1.4528
13044TIP3   OH260546   6.463   3.003  16.100 -0.2738 -0.1953  0.1754
13044TIP3    H160547   6.464   2.975  16.192  0.6570 -2.1510 -0.3841
13044TIP3    H260548   6.531   3.070  16.094  1.7225 -2.1107  0.3676
13045TIP3   OH260549   1.858   0.164   4.175  0.1417 -0.1873  0.2642
13045TIP3    H160550   1.772   0.200   4.197  0.6719  0.0659  2.0591
13045TIP3    H260551   1.845   0.121   4.090 -1.3897  1.0716 -0.1780
13046TIP3   OH260552   1.655   6.586  15.383  0.2360 -0.5117 -0.4269
13046TIP3    H160553   1.724   6.524  15.408  0.6705  0.3324  0.5374
13046TIP3    H260554   1.646   6.644  15.458 -0.8791 -0.0215 -0.9149
13047TIP3   OH260555   1.880   4.428  14.504 -0.0997 -0.0941 -0.0084
13047TIP3    H160556   1.897   4.334  14.499  0.8310  0.0543  0.1688
13047TIP3    H260557   1.963   4.469  14.479  0.2519  0.6772  2.1837
13048TIP3   OH260558   6.216   4.620   1.989 -0.1048 -0.6504 -0.3473
13048TIP3    H160559   6.264   4.552   2.036  0.2055  0.3260  0.7735
13048TIP3    H260560   6.223   4.594   1.897  3.2830 -0.1820 -0.3756
13049TIP3   OH260561   4.125   1.475  13.575  0.5949 -0.4165  0.2439
13049TIP3    H160562   4.148   1.568  13.580  0.2695 -0.3659  0.9387
13049TIP3    H260563   4.164   1.437  13.654  1.1570 -0.9712 -0.2930
13050TIP3   OH260564   2.841   2.745  14.223  0.2635  0.0212  0.5875
13050TIP3    H160565   2.857   2.809  14.153 -0.8945  0.4960  0.7383
13050TIP3    H260566   2.899   2.772  14.294  0.7279  0.1225  0.1748
13051TIP3   OH260567   4.102   4.994   6.180 -0.1269 -0.6378  0.1518
13051TIP3    H160568   4.068   5.071   6.226  0.9182  0.3509 -0.6650
13051TIP3    H260569   4.024   4.941   6.161 -0.6397 -0.8419  2.5545
13052TIP3   OH260570   2.573   6.333   4.696  0.1642 -0.1815  0.5431
13052TIP3    H160571   2.508   6.385   4.650 -1.3647 -2.7235 -0.3867
13052TIP3    H260572   2.638   6.311   4.629  0.8203  0.5319  0.9360
13053TIP3   OH260573   2.003   4.903  13.214 -0.5505 -0.0581  0.7403
13053TIP3    H160574   2.008   4.902  13.310  0.2497  1.1809  0.7469
13053TIP3    H260575   1.945   4.977  13.194 -1.9125 -1.2263  0.2701
13054TIP3   OH260576   0.714   3.181   1.113  0.4125  0.1580 -0.1764
13054TIP3    H160577   0.740   3.263   1.156  0.2166  0.3112 -0.3464
13054TIP3    H260578   0.627   3.161   1.150 -0.8497  1.5406 -2.1761
13055TIP3   OH260579   4.766   6.051  13.661 -0.7719 -0.7773  0.4609
13055TIP3    H160580   4.696   6.116  13.653  0.1267  0.0875 -0.7570
13055TIP3    H260581   4.769   6.031  13.754 -1.0076  1.0396  0.8968
13056TIP3   OH260582   5.329   5.773   2.923  0.5542 -0.2554  0.1564
13056TIP3    H160583   5.278   5.854   2.916  0.9621 -0.0912 -1.1024
13056TIP3    H260584   5.341   5.761   3.017  0.2068  0.9699  0.3790
13057TIP3   OH260585   0.259   1.033  17.076 -0.1453  0.1893  0.3093
13057TIP3    H160586   0.325   0.963  17.071 -1.2724 -1.0406  1.7096
13057TIP3    H260587   0.267   1.066  17.166 -0.0086  1.5294 -0.1694
13058TIP3   OH260588   3.108   3.698   6.535  0.1134 -0.1319  0.1679
13058TIP3    H160589   3.123   3.664   6.447  0.6685  0.1792  0.1363
13058TIP3    H260590   3.145   3.632   6.593  1.5187  0.5378  0.0967
13059TIP3   OH260591   1.578   4.072  14.143 -0.1076  0.2678  0.7190
13059TIP3    H160592   1.657   4.128  14.148 -0.6825  1.0268  1.8930
13059TIP3    H260593   1.600   4.006  14.078  1.2150  0.9288  0.4454
13060TIP3   OH260594   3.425   0.640  12.972 -0.5267 -0.1487  0.2657
13060TIP3    H160595   3.502   0.592  13.002 -0.1859 -0.4011 -0.9523
13060TIP3    H260596   3.404   0.700  13.044 -0.3136 -1.3622  1.3670
13061TIP3   OH260597   5.281   2.549   5.846  0.2247  0.1929  0.2296
13061TIP3    H160598   5.205   2.498   5.873 -0.0004  0.2642 -0.2481
13061TIP3    H260599   5.352   2.521   5.904 -0.2914  0.4946  1.0132
13062TIP3   OH260600   0.167   0.333   3.786  0.2696 -0.4468 -0.2273
13062TIP3    H160601   0.247   0.371   3.751  1.0440 -0.7362  1.1607
13062TIP3    H260602   0.123   0.297   3.709  0.1815  1.9346 -1.4000
13063TIP3   OH260603   2.145   2.725   2.367  0.2245  0.1199  0.0068
13063TIP3    H160604   2.067   2.777   2.346  0.8821  1.2958  0.3935
13063TIP3    H260605   2.111   2.637   2.383 -1.4015  1.1235  2.7206
13064TIP3   OH260606   4.295   0.397   4.250 -0.1186  0.0465  0.5040
13064TIP3    H160607   4.224   0.374   4.310 -0.9560  1.5568  0.1600
13064TIP3    H260608   4.250   0.428   4.171  0.9384  0.0604 -0.1098
13065TIP3   OH260609   6.452   1.936  11.415  0.5784 -0.3297 -0.0265
13065TIP3    H160610   6.541   1.901  11.415 -0.1005 -2.1893  0.6050
13065TIP3    H260611   6.443   1.978  11.501  0.4668 -1.2775  0.4464
13066TIP3   OH260612   1.179   2.609   0.447  0.1618  0.4189  0.4727
13066TIP3    H160613   1.135   2.601   0.363  2.1015 -1.0466 -0.4903
13066TIP3    H260614   1.108   2.611   0.511 -1.3561  1.3667 -1.1555
13067TIP3   OH260615   5.978   0.111  13.812  0.5511 -0.4616 -0.5669
13067TIP3    H160616   6.006   0.053  13.883 -0.2257 -1.9302 -1.3921
13067TIP3    H260617   6.052   0.169  13.796 -0.6487  3.0451  4.3614
13068TIP3   OH260618   1.757   6.330  14.563 -0.4118 -0.7349 -0.1920
13068TIP3    H160619   1.707   6.249  14.577 -1.4625 -0.2955 -1.1856
13068TIP3    H260620   1.811   6.311  14.486  0.4363 -0.9555  0.4365
13069TIP3   OH260621   1.606   1.768   5.752  0.4954  0.2097  0.5029
13069TIP3    H160622   1.565   1.848   5.784 -0.6158 -0.7072  1.4824
13069TIP3    H260623   1.589   1.768   5.658 -2.2678 -0.3366  0.9128
13070TIP3   OH260624   3.217   3.125   5.104 -0.3254  0.4055 -0.3763
13070TIP3    H160625   3.217   3.128   5.200  2.1622  0.3362 -0.3158
13070TIP3    H260626   3.252   3.038   5.083 -1.9430 -0.0420 -1.4027
13071TIP3   OH260627   6.442   1.288  16.463  0.2039 -0.0707 -0.0675
13071TIP3    H160628   6.393   1.206  16.472 -0.4783  0.3190 -0.1839
13071TIP3    H260629   6.505   1.286  16.535 -1.1543  0.2224  1.1781
13072TIP3   OH260630   2.506   1.751   4.765 -0.2695 -0.1592  0.0950
13072TIP3    H160631   2.597   1.743   4.795  0.3415 -1.1315 -1.8789
13072TIP3    H260632   2.460   1.679   4.807 -0.0026 -0.0070  0.6543
13073TIP3   OH260633   3.437   3.380  11.578 -0.7910 -0.2482  0.0735
13073TIP3    H160634   3.374   3.393  11.650  0.9860  2.2394  1.3227
13073TIP3    H260635   3.422   3.454  11.520 -1.0604 -1.3431 -1.2931
13074TIP3   OH260636   0.718   2.306   4.107 -0.3507  0.3390 -0.3987
13074TIP3    H160637   0.759   2.372   4.163  0.9155  0.4804 -1.4407
13074TIP3    H260638   0.627   2.334   4.099 -0.1529  1.2054  0.2614
13075TIP3   OH260639   6.464   2.622   2.946 -0.3636  0.2267 -0.4236
13075TIP3    H160640   6.497   2.607   2.857 -0.3273  0.5489 -0.4641
13075TIP3    H260641   6.460   2.534   2.985 -2.4189 -0.1763 -1.4403
13076TIP3   OH260642   5.723   3.686  11.273  0.2290  0.2249 -0.2868
13076TIP3    H160643   5.754   3.769  11.237  0.3938 -0.2689 -1.3340
13076TIP3    H260644   5.636   3.675  11.236  0.0552  0.1124  0.1545
13077TIP3   OH260645   1.031   5.461   6.005  0.1982  0.0850  0.6328
13077TIP3    H160646   0.975   5.438   5.931  1.3805  0.0328 -0.2712
13077TIP3    H260647   1.031   5.383   6.061  0.8099 -0.5754 -0.2748
13078TIP3   OH260648   3.187   1.904   0.157  0.0011  0.2200 -0.0669
13078TIP3    H160649   3.147   1.919   0.242  2.1197  0.1991  0.9982
13078TIP3    H260650   3.187   1.990   0.115  1.1185  0.7755  0.9958
13079TIP3   OH260651   1.365   4.316   5.098 -0.6889  0.0991  0.3678
13079TIP3    H160652   1.412   4.236   5.073  0.8149  0.4729  1.7953
13079TIP3    H260653   1.274   4.287   5.111 -0.6450 -0.9018 -1.2772
13080TIP3   OH260654   0.429   5.021   4.478  0.0604 -0.5508  0.2904
13080TIP3    H160655   0.341   5.019   4.442 -0.1887  2.0818  0.6086
13080TIP3    H260656   0.425   4.963   4.554 -1.2035 -0.9699 -0.0715
13081TIP3   OH260657   0.375   5.589  13.017  0.3537 -0.3162 -0.1995
13081TIP3    H160658   0.288   5.557  13.041  0.9975 -1.4755  0.6745
13081TIP3    H260659   0.403   5.640  13.093 -0.1607  1.3884 -1.0963
13082TIP3   OH260660   4.052   3.780   5.501  1.2239  0.1186  0.8728
13082TIP3    H160661   4.019   3.743   5.583 -0.5497  1.4217  0.7841
13082TIP3    H260662   3.974   3.797   5.449  2.3113 -1.1379 -1.3502
13083TIP3   OH260663   6.334   6.082  17.023  0.3564  0.1431 -0.9769
13083TIP3    H160664   6.411   6.130  16.990  1.3151  0.9950  2.1443
13083TIP3    H260665   6.298   6.139  17.091 -1.5733 -1.3886 -0.6237
13084TIP3   OH260666   2.347   6.641   1.243  0.3089  0.1894  0.0889
13084TIP3    H160667   2.295   6.691   1.306  2.1657  0.9662  1.0951
13084TIP3    H260668   2.356   6.699   1.167 -0.3475  0.0189 -0.1199
13085TIP3   OH260669   2.373   4.551   5.296  0.0590 -0.0498  0.4908
13085TIP3    H160670   2.332   4.631   5.263 -1.4966  0.2252  2.8494
13085TIP3    H260671   2.457   4.580   5.333  0.1958  0.2229 -0.0259
13086TIP3   OH260672   0.767   0.859  16.342  0.1878 -0.1554  0.0446
13086TIP3    H160673   0.701   0.833  16.407  0.7400 -0.1482  0.6177
13086TIP3    H260674   0.782   0.952  16.359  0.5031 -0.2090  0.0589
13087TIP3   OH260675   0.553   1.702  14.116 -0.2135  0.7267 -0.0337
13087TIP3    H160676   0.637   1.734  14.084  0.5770  0.5579  1.7533
13087TIP3    H260677   0.573   1.619  14.159 -1.5220  0.0394 -0.6763
13088TIP3   OH260678   6.234   0.455  17.231 -0.6908  0.0704  0.3880
13088TIP3    H160679   6.309   0.431  17.286 -0.5407 -1.6541 -0.4930
13088TIP3    H260680   6.158   0.448  17.289 -0.5696 -2.0345  0.3631
13089TIP3   OH260681   1.111   6.263  13.899 -0.2195  0.0683 -0.2384
13089TIP3    H160682   1.055   6.247  13.823 -1.1439 -1.1925  0.6471
13089TIP3    H260683   1.170   6.188  13.902 -0.1029  0.1726  0.1896
13090TIP3   OH260684   5.585   3.360   6.482  0.1124 -0.2133 -0.0224
13090TIP3    H160685   5.518   3.341   6.548  0.1190 -0.0483  0.0316
13090TIP3    H260686   5.661   3.309   6.509  0.3664  0.4483  0.5234
13091TIP3   OH260687   2.289   3.093  13.158 -0.1061 -0.0532  0.5034
13091TIP3    H160688   2.317   3.006  13.133 -0.3226  0.1191 -0.3522
13091TIP3    H260689   2.366   3.132  13.201  0.3650 -0.2485 -0.1544
13092TIP3   OH260690   0.217   6.596  13.082  0.0373  0.1768 -0.2880
13092TIP3    H160691   0.148   6.530  13.088 -0.7730  0.8929 -1.3990
13092TIP3    H260692   0.270   6.569  13.007 -0.7376  1.1462 -1.2267
13093TIP3   OH260693   6.537   2.214   2.623  0.3679  0.2630  0.1437
13093TIP3    H160694   6.572   2.257   2.544 -1.7518  0.0824 -0.9489
13093TIP3    H260695   6.522   2.123   2.595  0.9423 -0.1747  1.2147
13094TIP3   OH260696   0.051   0.431  13.102 -0.0917  0.3974  0.1879
13094TIP3    H160697   0.021   0.522  13.098 -2.2213 -0.2732 -1.8097
13094TIP3    H260698  -0.028   0.381  13.124  0.6378 -1.0994 -0.4162
13095TIP3   OH260699   1.337   5.837   1.081  0.1556  0.1760 -0.3054
13095TIP3    H160700   1.414   5.819   1.135  0.5973 -1.0792 -1.3005
13095TIP3    H260701   1.264   5.799   1.131  0.0578  1.8646  0.9069
13096TIP3   OH260702   3.439   0.845  13.182 -0.2754 -0.1345 -0.5202
13096TIP3    H160703   3.386   0.917  13.216 -0.2513  0.3644 -1.4955
13096TIP3    H260704   3.433   0.777  13.249  0.8696  1.2867  1.1311
13097TIP3   OH260705   0.801   2.190  17.073 -0.2073  0.2790 -0.3723
13097TIP3    H160706   0.718   2.147  17.051  0.0005 -0.4990  0.2997
13097TIP3    H260707   0.836   2.219  16.989 -0.8262 -0.0105 -0.7373
13098TIP3   OH260708   3.776   3.804   2.291 -0.7664  1.0147  0.8062
13098TIP3    H160709   3.798   3.897   2.291  0.5017  0.7647 -1.1374
13098TIP3    H260710   3.713   3.794   2.220 -0.4985  0.3111  0.6620
13099TIP3   OH260711   0.849   6.362   0.770  0.0925 -0.4287 -0.1135
13099TIP3    H160712   0.852   6.429   0.837 -0.0908 -1.0823  0.5647
13099TIP3    H260713   0.799   6.291   0.809  0.8182 -1.2202 -0.5741
13100TIP3   OH260714   4.597   0.449   1.499 -0.0204 -0.4343 -0.3479
13100TIP3    H160715   4.595   0.499   1.581  1.0788  0.1279 -0.6481
13100TIP3    H260716   4.524   0.387   1.507 -0.1907 -0.1019  0.8673
13101TIP3   OH260717   4.188   2.106   0.234 -0.1029  0.2755 -0.5452
13101TIP3    H160718   4.205   2.013   0.249  0.4153  0.1813 -1.6383
13101TIP3    H260719   4.199   2.146   0.321  1.5125 -0.4182 -0.3793
13102TIP3   OH260720   3.936   3.837  14.604  0.1714  0.3708 -0.2939
13102TIP3    H160721   3.992   3.859  14.530 -1.1565  1.5444 -1.0094
13102TIP3    H260722   3.994   3.842  14.680  1.0775  1.3843 -1.0166
13103TIP3   OH260723   2.707   5.861   5.153  0.2749 -0.1700  0.2787
13103TIP3    H160724   2.719   5.887   5.244 -1.4712  1.7620  0.0285
13103TIP3    H260725   2.703   5.944   5.105  0.1835 -1.1171 -1.4159
13104TIP3   OH260726   5.598   0.914   4.390 -0.5362  0.0551 -0.4900
13104TIP3    H160727   5.573   0.831   4.431 -1.1757 -0.2857 -1.5251
13104TIP3    H260728   5.663   0.889   4.324 -0.7561  0.3671 -0.8255
13105TIP3   OH260729   4.719   6.555   4.931 -0.2807 -0.5711 -0.4328
13105TIP3    H160730   4.703   6.589   5.019 -0.1585 -1.0169 -0.2347
13105TIP3    H260731   4.781   6.484   4.944 -0.7545 -1.0635 -0.8031
13106TIP3   OH260732   6.716   2.095   1.360  0.3076 -0.2687 -0.4849
13106TIP3    H160733   6.745   2.005   1.377  1.7806  0.1324 -0.7302
13106TIP3    H260734   6.691   2.095   1.267 -0.8411 -0.6942 -0.1941
13107TIP3   OH260735   1.386   4.889  12.153 -0.3577  0.0654 -0.6397
13107TIP3    H160736   1.392   4.984  12.143 -0.5906  0.0651 -0.7984
13107TIP3    H260737   1.317   4.877  12.218 -0.0241  0.0180 -0.2944
13108TIP3   OH260738   6.209   4.703   6.015 -0.0441  0.0378  0.0378
13108TIP3    H160739   6.253   4.738   6.092 -0.2933 -2.2781  1.3352
13108TIP3    H260740   6.278   4.695   5.949  0.2924  1.4900  0.1734
13109TIP3   OH260741   6.311   6.498  11.856  0.0312 -0.0276 -0.2603
13109TIP3    H160742   6.350   6.534  11.937  0.1022 -0.1850 -0.2240
13109TIP3    H260743   6.219   6.483  11.878  0.3265 -1.2715  0.1949
13110TIP3   OH260744   3.557   1.159   4.105 -0.8788 -0.1828 -0.5136
13110TIP3    H160745   3.549   1.254   4.099 -0.7611 -0.1084  0.4641
13110TIP3    H260746   3.651   1.142   4.098 -0.9649 -0.3071 -1.5958
13111TIP3   OH260747   5.935   2.237  15.354  0.3187  0.4803  0.3916
13111TIP3    H160748   5.941   2.146  15.324 -1.0699  1.0808 -1.9184
13111TIP3    H260749   5.969   2.234  15.444 -0.4218 -2.4647  0.7037
13112TIP3   OH260750   5.452   3.410   5.399 -0.5413 -0.1333  0.2109
13112TIP3    H160751   5.374   3.358   5.415  0.2909 -2.4687 -2.5087
13112TIP3    H260752   5.522   3.363   5.443 -0.2068  0.3007  0.1509
13113TIP3   OH260753   6.477   6.586   4.070  0.4883 -0.1391 -0.1100
13113TIP3    H160754   6.551   6.525   4.073  1.4612  0.9920 -0.3999
13113TIP3    H260755   6.487   6.639   4.149 -1.7611 -1.8885  1.4759
13114TIP3   OH260756   2.066   1.360   3.717  0.1333  0.2004 -0.0365
13114TIP3    H160757   2.050   1.450   3.748 -0.9590 -0.5532  1.7193
13114TIP3    H260758   2.001   1.307   3.763  1.7531 -1.7311  0.1425
13115TIP3   OH260759   5.807   6.470  12.299 -0.2757 -0.0322  0.0353
13115TIP3    H160760   5.875   6.487  12.364 -0.4154 -1.1315  0.4898
13115TIP3    H260761   5.807   6.375  12.289 -1.7939 -0.0675  0.1127
13116TIP3   OH260762   1.000   0.289  13.315  0.2131 -0.0754  0.0567
13116TIP3    H160763   1.061   0.362  13.303  0.4684 -0.1242  0.9795
13116TIP3    H260764   1.054   0.211  13.300  0.2474 -0.1015  0.3056
13117TIP3   OH260765   3.166   1.262  11.684 -0.1751 -0.5805 -0.4448
13117TIP3    H160766   3.177   1.357  11.680  1.5797 -0.7886 -3.0718
13117TIP3    H260767   3.255   1.228  11.678 -0.7842 -2.4171  0.4445
13118TIP3   OH260768   1.817   0.368   2.484  0.2771 -0.6143 -0.5528
13118TIP3    H160769   1.903   0.395   2.516 -0.9136  1.2209  1.3501
13118TIP3    H260770   1.800   0.285   2.529 -0.2251  0.6065  1.6705
13119TIP3   OH260771   2.524   4.945   0.844  0.3668 -0.1239  0.3300
13119TIP3    H160772   2.576   4.890   0.902  0.1239 -0.3532  0.3321
13119TIP3    H260773   2.516   4.894   0.763 -0.1319 -0.2344  0.4470
13120TIP3   OH260774   3.900   0.797   4.927 -0.1351  0.0486  0.2056
13120TIP3    H160775   3.883   0.771   4.836 -0.9949  0.5904  0.2018
13120TIP3    H260776   3.814   0.822   4.961  0.3687  1.0363  0.7845
13121TIP3   OH260777   4.076   2.661   5.722 -0.2521 -0.5083  0.3265
13121TIP3    H160778   4.050   2.671   5.813  0.5539  1.1533  0.4032
13121TIP3    H260779   4.149   2.721   5.711 -1.0462  0.1773 -1.6959
13122TIP3   OH260780   5.054   4.647   0.523 -0.2311  0.8566  0.0626
13122TIP3    H160781   4.986   4.657   0.589 -0.3806 -2.5462  0.5860
13122TIP3    H260782   5.069   4.736   0.491 -2.1736  2.2445  2.6106
13123TIP3   OH260783   6.335   1.223   3.460 -0.0802  0.0242  0.3655
13123TIP3    H160784   6.370   1.311   3.466  2.4714 -0.9718  1.3498
13123TIP3    H260785   6.241   1.232   3.479  0.0799  2.4933  0.2068
13124TIP3   OH260786   5.450   0.749   2.513  0.1722 -0.8175  0.1109
13124TIP3    H160787   5.368   0.705   2.491 -0.9806  0.6489  1.2474
13124TIP3    H260788   5.466   0.809   2.440 -0.7471  0.1453  0.6605
13125TIP3   OH260789   6.686   2.411   5.743  0.3557 -0.1332  0.1128
13125TIP3    H160790   6.647   2.330   5.777 -1.9239  1.0657  0.5741
13125TIP3    H260791   6.690   2.468   5.820  0.7093  0.6355 -0.4733
13126TIP3   OH260792   0.591   2.080   3.113  0.1636  0.5333 -0.5603
13126TIP3    H160793   0.534   2.012   3.078  0.0816  1.5363 -2.4994
13126TIP3    H260794   0.613   2.050   3.201 -0.8976 -1.3495 -0.8903
13127TIP3   OH260795   3.254   6.612  14.824 -0.2242 -0.8124  0.3353
13127TIP3    H160796   3.201   6.538  14.794 -0.5735 -0.4136 -0.0547
13127TIP3    H260797   3.190   6.679  14.848  0.0595  0.3846 -1.9278
13128TIP3   OH260798   4.836   1.988   0.662 -0.1760  0.1814  0.4300
13128TIP3    H160799   4.895   2.057   0.633 -0.2361  0.2023  0.3565
13128TIP3    H260800   4.892   1.912   0.676 -0.0670  0.3204  0.7783
13129TIP3   OH260801   1.650   1.583   5.406 -0.3507  0.2291  0.3775
13129TIP3    H160802   1.696   1.542   5.479 -0.0610 -2.5494 -1.2325
13129TIP3    H260803   1.651   1.677   5.427  0.2684 -0.3745  3.5651
13130TIP3   OH260804   1.347   5.651   4.669 -0.3979 -0.0117 -0.4420
13130TIP3    H160805   1.363   5.571   4.619  1.6793 -0.5810  1.0209
13130TIP3    H260806   1.310   5.621   4.752  0.4155  0.5184  0.1265
13131TIP3   OH260807   4.987   0.375   1.423 -0.2156  0.1839 -0.0294
13131TIP3    H160808   5.062   0.434   1.419 -2.0333  2.5911 -1.0304
13131TIP3    H260809   4.950   0.389   1.511 -0.3631  0.1671 -0.0882
13132TIP3   OH260810   6.523   5.776   5.389  0.0037  0.0062 -0.6380
13132TIP3    H160811   6.556   5.695   5.428 -1.3591 -0.2742 -0.0060
13132TIP3    H260812   6.444   5.796   5.438 -0.7293  0.6860 -2.0255
13133TIP3   OH260813   6.265   2.798   3.708 -0.1275  0.4088 -0.1169
13133TIP3    H160814   6.341   2.848   3.680  0.5786 -0.2340  0.6207
13133TIP3    H260815   6.275   2.713   3.667  0.6010 -0.3439  1.5263
13134TIP3   OH260816   0.008   5.510   5.255 -0.6680 -0.0256  0.1326
13134TIP3    H160817  -0.030   5.435   5.301 -1.1652  1.2726  1.9462
13134TIP3    H260818   0.038   5.474   5.172 -0.7139 -2.2774  1.0106
13135TIP3   OH260819   5.615   1.512  14.460  0.0978  0.2265  0.2179
13135TIP3    H160820   5.525   1.542  14.467 -0.0043  0.4846 -1.7431
13135TIP3    H260821   5.609   1.423  14.425  0.5889 -0.0823  0.8835
13136TIP3   OH260822   2.393   3.967  14.946  0.0506  0.2456  0.0832
13136TIP3    H160823   2.370   3.908  15.018  2.3015 -0.3668  0.3985
13136TIP3    H260824   2.314   3.973  14.894 -0.7734 -1.7031  0.9887
13137TIP3   OH260825   4.119   3.322  15.727 -0.1082 -0.7823  0.5562
13137TIP3    H160826   4.158   3.386  15.787  0.5598 -0.6963  0.0387
13137TIP3    H260827   4.166   3.334  15.645 -3.1400  1.4198 -1.1062
13138TIP3   OH260828   5.895   2.435   1.324  0.1284  0.5667 -0.4013
13138TIP3    H160829   5.949   2.513   1.310  0.5538  0.0072 -2.1260
13138TIP3    H260830   5.865   2.411   1.236 -0.5866 -0.7970  0.1916
13139TIP3   OH260831   4.747   2.653   5.657  0.8459 -0.5178 -0.2047
13139TIP3    H160832   4.830   2.696   5.636  0.9491 -0.0476  1.0455
13139TIP3    H260833   4.723   2.690   5.742 -0.9856 -0.1417 -0.8497
13140TIP3   OH260834   4.494   4.539  12.890  0.1535 -0.1581  0.1526
13140TIP3    H160835   4.547   4.499  12.959  0.7432 -0.0132 -0.2099
13140TIP3    H260836   4.410   4.495  12.895  0.6629 -1.1709  0.0169
13141TIP3   OH260837   0.260   6.386  15.694  0.3506  0.1956  0.3473
13141TIP3    H160838   0.227   6.444  15.763  0.2836 -0.2213  0.6698
13141TIP3    H260839   0.240   6.298  15.725  2.4690 -0.1396  0.9547
13142TIP3   OH260840   4.711   3.684   4.518 -0.1580 -0.7030 -0.4858
13142TIP3    H160841   4.700   3.687   4.613  1.8957 -2.8659 -0.0739
13142TIP3    H260842   4.625   3.705   4.483 -0.3855  2.9187  1.7311
13143TIP3   OH260843   2.046   3.175   2.150  0.1687  0.2749 -0.7638
13143TIP3    H160844   2.029   3.262   2.115  0.1949  0.3913 -0.4912
13143TIP3    H260845   2.130   3.149   2.113  0.6400  0.7738 -0.0764
13144TIP3   OH260846   3.091   2.843   2.872 -0.0511  0.4559 -0.2414
13144TIP3    H160847   3.141   2.854   2.953  0.1970  0.1983 -0.3545
13144TIP3    H260848   3.140   2.776   2.824 -0.5318  0.1790 -0.3411
13145TIP3   OH260849   4.033   0.598  16.524 -0.4144 -0.1741  0.1668
13145TIP3    H160850   4.068   0.573  16.439 -1.3822  0.0509 -0.3104
13145TIP3    H260851   4.010   0.515  16.566  0.2509 -0.2973  0.3051
13146TIP3   OH260852   3.347   1.444   1.873  0.3680  0.3521 -0.2144
13146TIP3    H160853   3.397   1.480   1.946  0.4024  0.7882 -0.4494
13146TIP3    H260854   3.411   1.439   1.801  0.3204 -0.0186 -0.2321
13147TIP3   OH260855   1.256   3.314   3.439  0.1398  0.1334  0.0658
13147TIP3    H160856   1.172   3.307   3.485 -0.0411 -0.1882 -0.3021
13147TIP3    H260857   1.309   3.242   3.474 -0.5749 -1.1631 -1.3811
13148TIP3   OH260858   0.842   5.239  11.609 -0.9728 -0.0863  0.6971
13148TIP3    H160859   0.771   5.249  11.673 -1.3075 -1.6518  0.6060
13148TIP3    H260860   0.806   5.184  11.540 -0.1588  0.4118 -0.1580
13149TIP3   OH260861   5.464   5.373  17.055  0.3087  0.2860  0.1071
13149TIP3    H160862   5.505   5.317  17.121  3.4872  0.6781 -1.3683
13149TIP3    H260863   5.372   5.347  17.057  0.7570 -1.6141  2.7564
13150TIP3   OH260864   5.980   0.824   2.833 -0.1016 -0.6613  0.1715
13150TIP3    H160865   5.972   0.823   2.737 -0.2431  1.5175  0.1268
13150TIP3    H260866   5.980   0.731   2.857  1.0042 -1.3150 -2.0175
13151TIP3   OH260867   3.444   0.893  14.108 -0.0707  0.3934  0.1594
13151TIP3    H160868   3.529   0.910  14.068  0.6242  0.8212  1.7280
13151TIP3    H260869   3.434   0.963  14.173 -1.1416 -0.2474  0.7121
13152TIP3   OH260870   0.760   2.635   2.289 -0.1409 -0.5367  0.0670
13152TIP3    H160871   0.723   2.664   2.206  0.2119 -0.4089 -0.0463
13152TIP3    H260872   0.808   2.555   2.267  1.3561  0.3888 -0.1742
13153TIP3   OH260873   6.278   6.408  15.183 -0.2073  0.2334 -0.5956
13153TIP3    H160874   6.184   6.427  15.174 -0.0669  1.5341  0.4130
13153TIP3    H260875   6.312   6.416  15.094 -1.2299 -1.4715 -1.1961
13154TIP3   OH260876   0.849   2.546  14.890 -0.1109  0.0092  0.4348
13154TIP3    H160877   0.789   2.588  14.951 -0.6944  0.4181 -0.3958
13154TIP3    H260878   0.812   2.458  14.876 -0.0482 -0.0380  0.5622
13155TIP3   OH260879   4.636   6.100  14.105  0.2354  0.0425  0.3541
13155TIP3    H160880   4.717   6.072  14.062  1.6964  0.1280  2.8727
13155TIP3    H260881   4.588   6.019  14.121 -0.1624 -0.0212 -0.9975
13156TIP3   OH260882   5.272   0.651   3.073  0.4151 -0.1715 -0.3742
13156TIP3    H160883   5.268   0.660   2.977 -1.3185  0.0118 -0.3197
13156TIP3    H260884   5.183   0.673   3.102  1.0154  0.0864  1.3140
13157TIP3   OH260885   2.385   0.168   3.253 -0.4545  0.4873  0.2447
13157TIP3    H160886   2.292   0.186   3.261 -0.7732 -1.1146  0.4427
13157TIP3    H260887   2.390   0.089   3.198  0.7026 -0.2071  1.2907
13158TIP3   OH260888   4.277   3.941   4.959  0.1305 -0.3853  0.1324
13158TIP3    H160889   4.262   3.909   4.870 -1.4525  1.0542 -0.1770
13158TIP3    H260890   4.361   3.987   4.954  0.1377 -0.4644 -0.5709
13159TIP3   OH260891   6.029   0.478   0.052 -0.1399  0.0202 -0.7597
13159TIP3    H160892   6.071   0.546   0.105 -0.6206 -1.1694  1.2304
13159TIP3    H260893   5.935   0.488   0.070 -0.1339 -1.9682  0.6428
13160TIP3   OH260894   3.531   1.562   0.960  0.2764  0.4116  0.1115
13160TIP3    H160895   3.542   1.555   1.054  1.6202 -0.1420 -0.0613
13160TIP3    H260896   3.614   1.531   0.924 -0.3381  0.2805 -1.2595
13161TIP3   OH260897   5.315   6.632  15.337 -0.0725  0.1681 -0.9473
13161TIP3    H160898   5.271   6.622  15.422  0.2966  0.3120 -0.7367
13161TIP3    H260899   5.313   6.544  15.298  0.9408 -0.2069 -0.1990
13162TIP3   OH260900   5.263   2.457  14.668 -0.7978 -0.0886  0.1920
13162TIP3    H160901   5.235   2.546  14.646  0.9940 -0.0047 -2.1127
13162TIP3    H260902   5.207   2.400  14.614  0.1529 -0.1622 -0.7435
13163TIP3   OH260903   0.230   5.222  12.295  0.4097 -0.1297 -0.0593
13163TIP3    H160904   0.276   5.144  12.328  1.1011 -0.3411 -1.4473
13163TIP3    H260905   0.269   5.238  12.209 -0.7033  0.9335 -0.3900
13164TIP3   OH260906   0.288   1.113   1.808 -0.0962  0.0086 -0.1890
13164TIP3    H160907   0.382   1.132   1.810  0.1748 -1.1106 -0.9351
13164TIP3    H260908   0.282   1.020   1.829 -0.9374 -0.1715 -1.1274
13165TIP3   OH260909   6.024   0.248   1.909  0.3485 -0.5168  0.6382
13165TIP3    H160910   6.062   0.236   1.823  2.4695  0.2877  1.4055
13165TIP3    H260911   5.957   0.316   1.897  0.7388 -0.2925 -0.3330
13166TIP3   OH260912   1.972   1.299   1.691 -0.6678  0.4749 -0.0316
13166TIP3    H160913   1.961   1.204   1.690 -0.2252  0.4038  0.7533
13166TIP3    H260914   1.891   1.333   1.729 -1.1167  0.4682 -0.9622
13167TIP3   OH260915   4.881   2.227   3.875 -0.4241 -0.4034  0.3832
13167TIP3    H160916   4.940   2.301   3.887 -0.3772 -0.5490  1.1121
13167TIP3    H260917   4.939   2.150   3.873 -0.4580 -0.4189 -0.5145
13168TIP3   OH260918   4.552   2.788  16.882 -0.9237  0.3226  0.6594
13168TIP3    H160919   4.566   2.755  16.971 -0.3474 -0.8238  0.1669
13168TIP3    H260920   4.513   2.874  16.894 -1.3504 -0.0372  2.0216
13169TIP3   OH260921   6.026   4.890  13.331 -0.3491  0.0416  0.3956
13169TIP3    H160922   6.084   4.877  13.255  0.1670  1.3534  0.5559
13169TIP3    H260923   6.062   4.832  13.398  1.1064  1.1981  0.6576
13170TIP3   OH260924   2.565   5.638  16.139 -0.4129  0.2271  0.5299
13170TIP3    H160925   2.645   5.664  16.093 -0.2215 -1.2219  0.0126
13170TIP3    H260926   2.509   5.600  16.071 -0.3516 -1.4430  1.3830
13171TIP3   OH260927   3.748   2.987  16.731  0.2054 -0.2282 -0.8737
13171TIP3    H160928   3.712   3.075  16.721  0.1884 -0.3464 -2.0523
13171TIP3    H260929   3.829   2.989  16.680  0.9950 -0.4740  0.3282
13172TIP3   OH260930   5.361   5.651   1.052  0.1352  0.1272 -0.7331
13172TIP3    H160931   5.447   5.688   1.033  1.1220 -1.3522  0.6135
13172TIP3    H260932   5.300   5.706   1.003  1.8131  1.3519 -1.5445
13173TIP3   OH260933   1.705   4.931   3.259 -1.1113  0.3800 -0.0165
13173TIP3    H160934   1.770   4.976   3.313 -1.9904 -0.8377  2.1788
13173TIP3    H260935   1.753   4.856   3.222 -0.9194  0.2319  0.5166
13174TIP3   OH260936   4.726   0.868   1.903 -0.5081 -0.5504 -0.4606
13174TIP3    H160937   4.805   0.817   1.889  0.2467  0.2898  0.5462
13174TIP3    H260938   4.758   0.956   1.925 -1.6270 -0.6607  1.9072
13175TIP3   OH260939   6.233   2.443  13.938  0.6536  0.0451  1.2434
13175TIP3    H160940   6.323   2.470  13.958  0.6235  0.3552  0.9766
13175TIP3    H260941   6.210   2.493  13.859  0.7720 -1.1276  0.4245
13176TIP3   OH260942   3.612   3.223  11.804 -0.1954 -0.1170  1.0410
13176TIP3    H160943   3.704   3.215  11.829 -0.0826 -0.8473  0.4218
13176TIP3    H260944   3.615   3.245  11.711 -0.6324  1.0793  1.2904
13177TIP3   OH260945   6.236   3.519  16.941  0.2132  0.2642  0.6273
13177TIP3    H160946   6.186   3.601  16.947  0.2986  0.3021  0.8444
13177TIP3    H260947   6.327   3.546  16.956  0.5538  0.4663 -1.5468
13178TIP3   OH260948   5.690   1.626  13.504 -0.3629  0.2332  0.0145
13178TIP3    H160949   5.693   1.694  13.571 -0.1988 -0.9001  1.2020
13178TIP3    H260950   5.609   1.643  13.455 -0.5792  0.9845  0.6208
13179TIP3   OH260951   0.717   4.396   3.159  0.2558 -0.1535 -0.2564
13179TIP3    H160952   0.810   4.374   3.164 -0.1232 -2.2117 -1.1933
13179TIP3    H260953   0.694   4.384   3.067 -1.3018 -1.3886  0.2515
13180TIP3   OH260954   3.803   2.361  14.705 -0.8148 -0.3371  0.3329
13180TIP3    H160955   3.804   2.328  14.614  0.2450 -0.3982  0.3501
13180TIP3    H260956   3.752   2.441  14.701 -1.1514 -0.5699 -0.2349
13181TIP3   OH260957   3.767   5.928  15.192  0.4594  0.5587  0.1333
13181TIP3    H160958   3.685   5.895  15.228  0.8319  0.2424  0.7139
13181TIP3    H260959   3.754   5.929  15.097  0.0090 -0.0839  0.1837
13182TIP3   OH260960   3.024   3.051  11.337  0.2490  0.3772 -0.2105
13182TIP3    H160961   3.039   3.098  11.255  0.9618  1.8913  0.7376
13182TIP3    H260962   3.001   3.120  11.400  2.0156 -0.4172  1.4112
13183TIP3   OH260963   5.882   2.707  14.703  0.1564 -0.9812  0.1379
13183TIP3    H160964   5.961   2.660  14.677  0.5102  0.3910 -1.4543
13183TIP3    H260965   5.908   2.799  14.707 -1.5016 -0.3955 -1.2204
13184TIP3   OH260966   0.733   4.891  12.469 -0.2091  0.1316  0.3223
13184TIP3    H160967   0.649   4.865  12.508  0.0213  0.2017  0.8778
13184TIP3    H260968   0.723   4.984  12.450 -0.0725  0.2660  0.8898
13185TIP3   OH260969   5.117   4.550   6.556 -0.0295  0.4602  0.5410
13185TIP3    H160970   5.055   4.617   6.530 -0.6174 -0.3457 -0.2045
13185TIP3    H260971   5.196   4.598   6.582 -0.1279  1.4022 -0.8271
13186TIP3   OH260972   1.434   1.306   5.773  0.6056 -0.0809 -0.0480
13186TIP3    H160973   1.443   1.386   5.826  1.7547  0.8002 -1.4867
13186TIP3    H260974   1.339   1.296   5.762  0.4238  0.8724  0.4678
13187TIP3   OH260975   2.697   2.667  16.029  0.2809 -0.2121  0.4507
13187TIP3    H160976   2.700   2.631  16.118 -0.2556 -0.3027  0.4408
13187TIP3    H260977   2.776   2.720  16.021  1.6658 -2.2219  0.1121
13188TIP3   OH260978   2.914   6.433  11.609 -0.3887 -0.8484  0.5569
13188TIP3    H160979   2.973   6.400  11.677  0.8702 -0.5368 -0.3585
13188TIP3    H260980   2.962   6.420  11.527 -2.0149 -1.5662 -0.3439
13189TIP3   OH260981   0.019   0.545   6.236 -0.6611 -0.1667 -0.2672
13189TIP3    H160982  -0.050   0.601   6.271  0.7841  0.9156  0.9833
13189TIP3    H260983   0.100   0.582   6.271  0.5445 -1.5723 -1.4393
13190TIP3   OH260984   5.118   2.113  10.919 -0.4629  0.1513  0.0473
13190TIP3    H160985   5.024   2.100  10.904 -0.3940 -1.0797  0.5726
13190TIP3    H260986   5.147   2.168  10.845 -1.4513 -0.0414 -0.4973
13191TIP3   OH260987   4.735   5.854  17.373 -0.1349  0.0249  0.2371
13191TIP3    H160988   4.778   5.785  17.323  0.2806  1.9289 -2.2209
13191TIP3    H260989   4.649   5.863  17.331 -0.1319  1.0552  0.4335
13192TIP3   OH260990   3.445   3.928  11.460 -0.4377  0.1835 -0.4576
13192TIP3    H160991   3.460   3.940  11.366  1.5740 -0.3996 -0.2649
13192TIP3    H260992   3.472   4.011  11.500  0.3464 -0.1470 -0.2754
13193TIP3   OH260993   6.408   5.374   2.870  0.0148  0.1287  0.3675
13193TIP3    H160994   6.380   5.287   2.897 -0.7379  0.1639 -0.2886
13193TIP3    H260995   6.362   5.391   2.788  0.2480  1.0982  0.4184
13194TIP3   OH260996   1.271   0.316  17.073  0.2387  0.2097  0.0838
13194TIP3    H160997   1.230   0.397  17.043 -1.5529  0.0248  1.7842
13194TIP3    H260998   1.333   0.344  17.140 -2.2208  0.1666  2.5786
13195TIP3   OH260999   0.445   5.306   4.527  0.5666 -0.5493  0.3720
13195TIP3    H161000   0.451   5.217   4.493  0.1872 -0.2322 -0.5570
13195TIP3    H261001   0.536   5.332   4.543  0.6110 -1.8430  2.7451
13196TIP3   OH261002   1.097   0.483   2.658  0.6240  0.8556 -0.3267
13196TIP3    H161003   1.117   0.439   2.575 -0.1365 -0.4415  0.1600
13196TIP3    H261004   1.032   0.427   2.700  1.1965  1.3557  1.2813
13197TIP3   OH261005   6.280   5.765  15.396 -0.2438 -0.0167 -0.4203
13197TIP3    H161006   6.248   5.754  15.306 -1.9356  0.3103  0.1110
13197TIP3    H261007   6.300   5.858  15.403  0.3466 -0.1267 -0.5907
13198TIP3   OH261008   2.212   2.541  12.845 -0.6557  0.2172 -0.5201
13198TIP3    H161009   2.289   2.589  12.813  0.3035  0.8065  2.3701
13198TIP3    H261010   2.172   2.504  12.766  1.9435  0.8277 -2.2457
13199TIP3   OH261011   2.116   6.366   5.617 -0.1951 -0.1769  0.2961
13199TIP3    H161012   2.133   6.459   5.606 -0.5266 -0.1052  0.4002
13199TIP3    H261013   2.099   6.334   5.528 -0.1094 -0.1355  0.2645
13200TIP3   OH261014   4.137   0.064   4.688 -0.3787  0.2566 -0.5717
13200TIP3    H161015   4.094   0.048   4.773  3.2577 -1.1118  1.2218
13200TIP3    H261016   4.154   0.158   4.688 -0.6726  0.3211  0.0568
13201TIP3   OH261017   0.441   3.394   0.112  0.4341  0.1495 -0.3386
13201TIP3    H161018   0.486   3.317   0.076  1.3253  0.9878 -1.0812
13201TIP3    H261019   0.417   3.369   0.201  0.2490 -1.1606 -0.7380
13202TIP3   OH261020   4.569   5.591  14.996 -0.0599 -0.2526 -0.3546
13202TIP3    H161021   4.608   5.533  14.930  0.8097 -0.6112  0.4491
13202TIP3    H261022   4.637   5.657  15.012  0.2169 -0.8450  1.0172
13203TIP3   OH261023   6.743   4.208   4.071  0.1535 -0.7759 -0.0118
13203TIP3    H161024   6.789   4.174   3.995  0.5174 -1.0328  0.3149
13203TIP3    H261025   6.654   4.223   4.041  0.2368 -1.0882 -0.4254
13204TIP3   OH261026   1.641   2.734  15.176 -0.6612 -0.0248 -0.3921
13204TIP3    H161027   1.723   2.783  15.179  0.2237 -1.3430 -1.4729
13204TIP3    H261028   1.611   2.743  15.086 -0.2904 -1.6663 -0.7276
13205TIP3   OH261029   5.406   4.267   0.193 -0.3455  0.7285 -0.0609
13205TIP3    H161030   5.313   4.282   0.173 -0.9185 -0.6636  1.3101
13205TIP3    H261031   5.448   4.351   0.176 -1.9478  1.5333 -0.2540
13206TIP3   OH261032   2.566   1.954   3.516 -0.1026  0.6142 -0.5274
13206TIP3    H161033   2.499   1.886   3.505 -1.0548  1.3800  0.3701
13206TIP3    H261034   2.603   1.938   3.602  0.9367  0.1730 -1.0329
13207TIP3   OH261035   4.619   1.559   1.585  0.0253  0.0118 -0.5285
13207TIP3    H161036   4.543   1.529   1.536  0.8879 -1.2314 -1.1733
13207TIP3    H261037   4.693   1.543   1.527  0.7205  1.9886 -0.2478
13208TIP3   OH261038   1.907   2.728  15.393 -0.0425 -0.7640 -0.5976
13208TIP3    H161039   1.992   2.743  15.435 -0.4953 -1.0201  0.4407
13208TIP3    H261040   1.898   2.800  15.331  0.0585  0.4199  0.7085
13209TIP3   OH261041   2.745   2.768  15.089 -0.3593 -0.3672  0.3016
13209TIP3    H161042   2.721   2.690  15.139 -0.4947  0.1692  1.0949
13209TIP3    H261043   2.662   2.800  15.054 -0.5962  0.4792  1.5626
13210TIP3   OH261044   5.271   1.636   4.252  0.1300  0.2930  0.1795
13210TIP3    H161045   5.319   1.706   4.209  1.9842 -2.0365 -1.7951
13210TIP3    H261046   5.334   1.595   4.311 -1.6299  1.7165  3.3568
13211TIP3   OH261047   2.884   2.852  11.423 -0.3581 -1.0879 -0.3938
13211TIP3    H161048   2.794   2.879  11.404 -0.1141 -0.6033 -0.9063
13211TIP3    H261049   2.938   2.922  11.386  0.1443  0.3655  2.7159
13212TIP3   OH261050   3.675   4.327  16.774  0.3670 -0.0548  0.2027
13212TIP3    H161051   3.648   4.257  16.715 -0.1534 -0.1273  0.5236
13212TIP3    H261052   3.665   4.407  16.722  0.2869 -0.1530  0.0645
13213TIP3   OH261053   3.731   5.052  12.489 -0.0370 -0.1943  0.0953
13213TIP3    H161054   3.680   5.099  12.422  0.8655  1.8739  0.7780
13213TIP3    H261055   3.765   5.121  12.546  1.8507 -1.6573  0.8508
13214TIP3   OH261056   3.067   2.876  12.019  0.3718 -0.3755  0.8576
13214TIP3    H161057   3.111   2.938  11.961 -0.8346  0.4100  0.7454
13214TIP3    H261058   2.974   2.887  12.000  0.0431 -1.1633  1.9011
13215TIP3   OH261059   2.122   5.349   4.220  0.0148 -0.4783 -0.3218
13215TIP3    H161060   2.176   5.420   4.255 -0.4422 -0.7179  0.9525
13215TIP3    H261061   2.171   5.269   4.243 -0.8766 -0.7015  0.9324
13216TIP3   OH261062   4.911   5.271   0.360  0.8828 -0.4609 -0.5934
13216TIP3    H161063   4.851   5.206   0.396  1.1986 -0.4083  0.0306
13216TIP3    H261064   4.862   5.353   0.362  0.6981 -0.5640 -0.8239
13217TIP3   OH261065   5.674   5.651  14.212  0.2765  0.1065 -0.0441
13217TIP3    H161066   5.686   5.630  14.119  0.4302  1.4111 -0.3519
13217TIP3    H261067   5.612   5.586  14.244  0.0534 -0.2358 -1.1280
13218TIP3   OH261068   6.718   3.449  15.242 -0.1080 -0.2205  0.6004
13218TIP3    H161069   6.792   3.484  15.292  0.5212 -1.5937  0.6700
13218TIP3    H261070   6.645   3.449  15.303  0.2260 -0.2876  1.0008
13219TIP3   OH261071   0.459   1.609  15.138 -0.2966 -0.0579  0.1334
13219TIP3    H161072   0.370   1.584  15.113 -0.6415  0.5624  0.6807
13219TIP3    H261073   0.480   1.552  15.212  0.1121 -0.8086 -0.5455
13220TIP3   OH261074   4.558   5.177  14.776 -0.2455  0.7504  0.1038
13220TIP3    H161075   4.588   5.267  14.764  0.3244  0.3726 -1.5642
13220TIP3    H261076   4.567   5.137  14.689 -3.6293  0.0135 -0.0409
13221TIP3   OH261077   3.915   4.962   2.847  0.3523  0.0186  0.7362
13221TIP3    H161078   3.868   4.879   2.836  0.4632  0.0051  0.3669
13221TIP3    H261079   3.874   5.002   2.924 -0.3922  0.0860  0.3162
13222TIP3   OH261080   3.481   5.718  14.198  0.5156 -0.0404  0.6433
13222TIP3    H161081   3.548   5.721  14.266  2.0112 -1.7814 -0.6430
13222TIP3    H261082   3.419   5.652  14.228  0.4951  0.0980  0.9027
13223TIP3   OH261083   0.604   2.187  11.067 -0.3839 -0.2254  0.6195
13223TIP3    H161084   0.561   2.272  11.077  1.0009  0.8603 -1.7772
13223TIP3    H261085   0.622   2.180  10.973  3.7015 -0.9880  1.2655
13224TIP3   OH261086   0.578   4.945  15.549 -0.0379 -0.0546  0.0111
13224TIP3    H161087   0.652   4.911  15.598  0.3577  0.7736  0.0123
13224TIP3    H261088   0.600   5.037  15.534 -0.4252 -0.1508 -1.2049
13225TIP3   OH261089   0.390   4.258   3.419  0.2089 -0.0789 -0.1349
13225TIP3    H161090   0.325   4.212   3.366  0.1098  1.7269 -1.6679
13225TIP3    H261091   0.474   4.221   3.391 -0.0205 -1.5947  1.0241
13226TIP3   OH261092   1.243   0.061  11.856 -0.1019  0.0435  0.3700
13226TIP3    H161093   1.166   0.050  11.801  0.2986  0.5402 -0.2962
13226TIP3    H261094   1.267   0.153  11.846  1.2165 -0.3561 -0.2781
13227TIP3   OH261095   5.133   6.379  15.269  0.0031 -0.2378  0.2398
13227TIP3    H161096   5.071   6.333  15.326 -0.3457  0.2996  0.2974
13227TIP3    H261097   5.218   6.367  15.311  0.1413 -1.9772 -0.4443
13228TIP3   OH261098   5.814   3.119   3.308  0.2611 -0.2030 -0.3291
13228TIP3    H161099   5.886   3.171   3.342  1.0384 -0.5568 -1.3598
13228TIP3    H261100   5.824   3.123   3.213  0.1414 -1.9304 -0.4515
13229TIP3   OH261101   4.444   3.893  16.710 -0.6619 -0.2253  0.0596
13229TIP3    H161102   4.409   3.878  16.798 -1.0579  0.5529  0.0437
13229TIP3    H261103   4.373   3.867  16.652 -0.3493 -0.8722 -0.0416
13230TIP3   OH261104   1.633   0.582   2.419 -0.1283  0.3116  0.3737
13230TIP3    H161105   1.703   0.622   2.369 -1.3819 -0.4738 -2.2043
13230TIP3    H261106   1.677   0.528   2.484  1.8607 -2.1959 -2.7604
13231TIP3   OH261107   3.401   3.405   3.245 -0.5440  0.1723  0.3525
13231TIP3    H161108   3.452   3.443   3.316 -0.9403  0.8648  0.2697
13231TIP3    H261109   3.331   3.357   3.289  0.4679 -1.2676  0.4905
13232TIP3   OH261110   4.082   4.549  16.444 -0.0714  0.0746  0.0041
13232TIP3    H161111   4.067   4.642  16.424  0.4226  0.0323 -0.6187
13232TIP3    H261112   4.069   4.505  16.360  0.8059 -0.2785  0.0410
13233TIP3   OH261113   4.557   3.828   0.623 -0.1100 -0.4563 -0.3434
13233TIP3    H161114   4.491   3.892   0.594 -0.4794 -0.0000  1.3790
13233TIP3    H261115   4.604   3.804   0.543 -1.5536  0.1396 -1.4196
13234TIP3   OH261116   0.774   3.716  11.763 -0.1647  0.4327  0.2933
13234TIP3    H161117   0.828   3.747  11.691 -0.1036 -0.3729 -0.0140
13234TIP3    H261118   0.789   3.621  11.766 -2.4562 -0.0422 -0.6075
13235TIP3   OH261119   0.355   5.628   2.207 -0.5529  0.5431  0.0311
13235TIP3    H161120   0.398   5.565   2.265  0.8618  0.3613 -1.1428
13235TIP3    H261121   0.314   5.692   2.265 -0.3467 -0.3798  1.2170
13236TIP3   OH261122   5.283   4.871  11.778 -0.1536  0.2554 -0.2082
13236TIP3    H161123   5.313   4.917  11.856 -1.6661 -0.8826  1.1054
13236TIP3    H261124   5.302   4.779  11.795  1.1666  0.1348 -2.0037
13237TIP3   OH261125   1.373   3.595   3.335  0.5078 -0.4024 -0.2024
13237TIP3    H161126   1.469   3.600   3.334  0.5065 -0.4649 -0.6916
13237TIP3    H261127   1.354   3.503   3.353  0.5336 -0.1736  1.0772
13238TIP3   OH261128   1.569   5.035   4.037  0.4642  0.0344 -0.0587
13238TIP3    H161129   1.548   4.960   3.981 -1.2756 -1.1062  1.9523
13238TIP3    H261130   1.485   5.060   4.076  1.3097  1.9179  0.6696
13239TIP3   OH261131   2.339   1.493   5.370  0.2058 -0.0250 -0.1362
13239TIP3    H161132   2.263   1.519   5.318  1.0603  1.1584 -0.8325
13239TIP3    H261133   2.302   1.442   5.442 -1.0979 -0.8046 -1.3127
13240TIP3   OH261134   5.367   5.291   5.366 -0.0274 -0.1261 -0.6009
13240TIP3    H161135   5.357   5.382   5.396  2.3725  1.0721 -3.0222
13240TIP3    H261136   5.425   5.297   5.290  1.8263 -3.8911  0.2667
13241TIP3   OH261137   2.773   0.169   4.593  0.6833  0.1030  0.1511
13241TIP3    H161138   2.781   0.264   4.591 -0.0145  0.1564 -1.1551
13241TIP3    H261139   2.862   0.137   4.584  0.8856  0.6334  0.2378
13242TIP3   OH261140   6.093   5.243   3.384  0.5050  0.4828 -0.3866
13242TIP3    H161141   6.163   5.231   3.448 -0.4959 -0.4210  0.5746
13242TIP3    H261142   6.072   5.154   3.354 -0.2833  0.7341 -0.6066
13243TIP3   OH261143   4.135   1.473   1.568 -0.2678 -0.3547 -0.0607
13243TIP3    H161144   4.211   1.531   1.565 -1.0960  0.7927  0.1516
13243TIP3    H261145   4.125   1.451   1.661 -0.3257 -0.3036 -0.0541
13244TIP3   OH261146   6.275   2.251  12.709  0.1820 -0.7905 -0.3837
13244TIP3    H161147   6.241   2.210  12.630 -0.8416 -1.5119  0.4143
13244TIP3    H261148   6.202   2.304  12.742  0.3130 -1.1645  0.5295
13245TIP3   OH261149   5.571   2.061   5.336  0.2513  0.0731  0.3569
13245TIP3    H161150   5.601   1.973   5.359 -1.3260 -0.6335 -0.2059
13245TIP3    H261151   5.623   2.119   5.392  3.0746 -1.0067 -0.9467
13246TIP3   OH261152   4.186   5.295   1.245  0.2153 -0.6601 -0.1608
13246TIP3    H161153   4.140   5.350   1.182  1.3583 -0.2127 -0.6332
13246TIP3    H261154   4.214   5.218   1.195 -1.4401 -1.7547  0.5129
13247TIP3   OH261155   5.787   2.739  15.339 -0.1149  0.3198 -0.0631
13247TIP3    H161156   5.835   2.692  15.271 -0.0265 -0.1197  0.3038
13247TIP3    H261157   5.854   2.785  15.389  0.0148 -0.8302  0.8700
13248TIP3   OH261158   0.543   4.288   4.520 -0.2274 -0.1308 -0.0493
13248TIP3    H161159   0.571   4.262   4.608  0.8488 -0.3089 -0.4325
13248TIP3    H261160   0.600   4.239   4.461 -1.0909 -0.1827 -0.8551
13249TIP3   OH261161   6.027   3.180   6.401 -0.3010 -0.1545  0.4926
13249TIP3    H161162   6.087   3.106   6.400 -1.4849 -1.1549  0.0139
13249TIP3    H261163   6.075   3.250   6.445  0.6968 -1.3430  1.3644
13250TIP3   OH261164   0.852   0.893  12.399  0.1815  0.2932 -0.4176
13250TIP3    H161165   0.859   0.898  12.494  1.1198 -0.7184 -0.4241
13250TIP3    H261166   0.769   0.848  12.383  0.0287  0.4534 -0.0910
13251TIP3   OH261167   6.227   6.483   4.062  0.1741 -0.0721  0.2162
13251TIP3    H161168   6.305   6.528   4.095  0.0324 -0.4534  1.0725
13251TIP3    H261169   6.217   6.407   4.118 -1.3522  0.4599  0.7153
13252TIP3   OH261170   2.209   4.047   5.289  0.0222  0.1549  0.0131
13252TIP3    H161171   2.171   4.075   5.206 -1.1389  2.1015  1.1162
13252TIP3    H261172   2.277   4.112   5.307 -1.3745  1.2565  1.6876
13253TIP3   OH261173   4.469   6.646   4.852 -0.2429 -0.2043  0.1941
13253TIP3    H161174   4.438   6.615   4.937  0.5890 -0.2397  0.4965
13253TIP3    H261175   4.564   6.635   4.856 -0.2085 -0.3210 -0.7897
13254TIP3   OH261176   2.525   6.704  14.206 -0.5038  0.0385 -0.4371
13254TIP3    H161177   2.478   6.621  14.203 -0.7593  0.1459  0.3224
13254TIP3    H261178   2.618   6.678  14.208 -0.3442 -0.1354 -4.1337
13255TIP3   OH261179   1.583   5.524  14.708 -0.2957 -0.7024 -0.1845
13255TIP3    H161180   1.651   5.528  14.775  0.6311  0.4169 -1.1536
13255TIP3    H261181   1.567   5.431  14.695 -0.3043 -0.9414  1.3885
13256TIP3   OH261182   3.301   5.296  14.077  0.6630  0.0683 -0.2367
13256TIP3    H161183   3.246   5.252  14.142 -1.7803 -0.2700 -2.3746
13256TIP3    H261184   3.241   5.351  14.027  2.8029  1.9744 -0.9220
13257TIP3   OH261185   3.752   5.925  11.328 -0.5700 -0.2009  0.3338
13257TIP3    H161186   3.764   5.912  11.234  0.5220  0.9783  0.2867
13257TIP3    H261187   3.835   5.897  11.367 -0.9126 -0.4145  0.9314
13258TIP3   OH261188   1.103   0.367  16.770 -0.8023 -0.2757  0.5079
13258TIP3    H161189   1.048   0.359  16.848  2.1837  0.3009  2.8660
13258TIP3    H261190   1.093   0.459  16.744  0.1941  0.2646  1.9133
13259TIP3   OH261191   2.263   6.300   0.953 -0.2303 -0.4026  0.3886
13259TIP3    H161192   2.222   6.218   0.927  0.3523 -0.7050  0.4218
13259TIP3    H261193   2.189   6.359   0.971 -0.8409  0.4583 -3.7601
13260TIP3   OH261194   5.736   0.396   0.084 -0.0944 -0.0747 -0.4401
13260TIP3    H161195   5.770   0.381   0.172  0.3107  0.5984 -0.4750
13260TIP3    H261196   5.777   0.327   0.031 -0.6432 -0.7161 -0.0353
13261TIP3   OH261197   1.861   4.114  14.474 -0.7510 -0.3682 -0.0737
13261TIP3    H161198   1.847   4.098  14.567 -0.5358 -1.4228 -0.2100
13261TIP3    H261199   1.878   4.027  14.437 -0.7182  0.0509 -1.0754
13262TIP3   OH261200   6.067   1.994  13.321 -0.2344 -0.9109 -0.1915
13262TIP3    H161201   5.980   1.958  13.302 -0.7312  0.4905 -0.7013
13262TIP3    H261202   6.054   2.047  13.399 -0.4760  1.4408 -1.7507
13263TIP3   OH261203   3.974   5.118   1.903 -0.1709 -0.0049 -0.3928
13263TIP3    H161204   4.018   5.193   1.944  1.8154 -0.9829 -0.5895
13263TIP3    H261205   3.922   5.157   1.832  1.2737  1.1793 -0.8577
13264TIP3   OH261206   5.765   2.497   0.420 -0.0836 -0.1156  0.3627
13264TIP3    H161207   5.821   2.557   0.470  0.3484  0.3704 -0.6917
13264TIP3    H261208   5.798   2.501   0.331 -0.9800 -0.8296 -0.0191
13265TIP3   OH261209   0.087   1.675   2.206 -0.1518 -0.5384  0.0942
13265TIP3    H161210   0.086   1.768   2.185  1.3542 -0.6971 -0.7569
13265TIP3    H261211   0.079   1.672   2.302 -2.4888  0.3433  0.0045
13266TIP3   OH261212   6.004   0.610   0.796 -0.3053  0.4819  0.0428
13266TIP3    H161213   6.021   0.524   0.835  2.0256  0.6047 -0.5737
13266TIP3    H261214   5.983   0.592   0.704 -1.2132  0.5063  0.2335
13267TIP3   OH261215   4.126   0.750   1.207 -0.0016  0.5272 -0.1572
13267TIP3    H161216   4.128   0.767   1.301 -0.6280  0.1780 -0.0711
13267TIP3    H261217   4.214   0.769   1.176 -0.0123  1.4653  0.3585
13268TIP3   OH261218   3.121   5.125  11.329  0.8309 -0.1977  0.2399
13268TIP3    H161219   3.084   5.039  11.347 -0.1075  0.3291  0.8616
13268TIP3    H261220   3.182   5.141  11.401  0.1905  0.1251  0.7099
13269TIP3   OH261221   5.640   3.692  12.143  0.4284  0.8699 -0.2069
13269TIP3    H161222   5.682   3.730  12.066  1.1367  0.0586 -0.2307
13269TIP3    H261223   5.702   3.705  12.214  1.0677 -0.9362 -0.3798
13270TIP3   OH261224   4.907   0.148   2.389  0.1677  0.2095  0.5620
13270TIP3    H161225   4.816   0.173   2.374  0.3328  0.8968  0.6805
13270TIP3    H261226   4.906   0.107   2.476  0.1107  0.9439  0.9096
13271TIP3   OH261227   6.006   5.038   0.600 -0.1740  0.0736  0.7613
13271TIP3    H161228   6.023   5.014   0.691  1.9680 -2.4741 -0.1873
13271TIP3    H261229   6.042   5.127   0.592  0.7748 -0.1537  2.1069
13272TIP3   OH261230   3.498   5.827   6.456 -0.0933  0.5350  0.8281
13272TIP3    H161231   3.446   5.779   6.393  2.1332 -2.2089  0.8622
13272TIP3    H261232   3.485   5.919   6.434  0.4376 -0.2423 -3.5538
13273TIP3   OH261233   3.169   1.352  16.986  0.0489 -0.1910 -0.4463
13273TIP3    H161234   3.255   1.393  16.972  0.5595 -1.2884 -0.6598
13273TIP3    H261235   3.114   1.388  16.917  0.0815  1.1805  0.2080
13274TIP3   OH261236   2.980   3.096   3.676 -0.1677  0.2291 -0.1508
13274TIP3    H161237   3.071   3.076   3.698 -0.1694  0.3310 -0.0512
13274TIP3    H261238   2.928   3.051   3.742 -0.3529 -2.4895 -1.9829
13275TIP3   OH261239   5.165   2.301   2.197  0.1487 -0.3829 -0.2486
13275TIP3    H161240   5.186   2.395   2.198  0.9233 -0.5507 -0.0432
13275TIP3    H261241   5.073   2.298   2.172  0.2867  0.4011 -0.9162
13276TIP3   OH261242   0.092   3.494  13.055  0.2215 -0.3677  0.4839
13276TIP3    H161243   0.133   3.531  12.977  1.0712 -1.7598  0.2375
13276TIP3    H261244   0.141   3.530  13.129 -0.9458  1.4081  0.4603
13277TIP3   OH261245   1.949   2.061   0.439 -0.1070  0.4798  0.0071
13277TIP3    H161246   1.868   2.010   0.440 -0.5144  1.0707  2.0686
13277TIP3    H261247   2.011   2.006   0.391 -1.9836  0.5117 -2.6196
13278TIP3   OH261248   3.635   2.314  14.118  0.6809 -0.3149  0.2030
13278TIP3    H161249   3.661   2.223  14.132 -0.0831 -0.3268  1.7670
13278TIP3    H261250   3.715   2.364  14.133  1.0622 -0.7072 -0.4814
13279TIP3   OH261251   2.766   5.580  16.752  0.0358 -0.1280  0.0541
13279TIP3    H161252   2.728   5.639  16.687 -1.7911 -0.5134  0.7141
13279TIP3    H261253   2.825   5.635  16.803 -0.4029  0.7432 -0.3605
13280TIP3   OH261254   5.832   6.627   2.532  0.5668  0.1850 -0.4428
13280TIP3    H161255   5.913   6.646   2.580  0.2804  0.8175 -0.1876
13280TIP3    H261256   5.835   6.686   2.457  0.0148  0.7447 -0.0438
13281TIP3   OH261257   6.120   0.920  16.033 -0.0719  0.1522 -0.3952
13281TIP3    H161258   6.205   0.929  16.076  0.2877 -2.2078 -0.4846
13281TIP3    H261259   6.061   0.974  16.086  1.1786  0.6968  0.5151
13282TIP3   OH261260   4.512   6.051   1.254 -0.1345 -0.2580 -0.0556
13282TIP3    H161261   4.465   5.971   1.230 -0.2808 -0.6353  1.3658
13282TIP3    H261262   4.603   6.033   1.231 -0.3975 -0.2454 -1.1251
13283TIP3   OH261263   0.869   3.828   1.691 -0.3122 -0.3719  0.3045
13283TIP3    H161264   0.959   3.861   1.680 -0.3583 -0.4751 -0.4618
13283TIP3    H261265   0.833   3.880   1.762  0.0187  0.3813 -0.0664
13284TIP3   OH261266   2.208   2.646   3.271  0.1745 -0.0380  0.4012
13284TIP3    H161267   2.142   2.590   3.311 -0.6787  1.2779  0.8836
13284TIP3    H261268   2.160   2.722   3.238  1.3018  0.4603 -0.1689
13285TIP3   OH261269   5.546   1.068  13.782  0.2695 -0.2814 -0.6015
13285TIP3    H161270   5.605   0.998  13.812 -0.9098 -1.2615 -0.4743
13285TIP3    H261271   5.534   1.124  13.859  0.8996 -0.1661 -0.5836
13286TIP3   OH261272   2.742   4.960  11.675 -0.0615 -0.0972 -0.4559
13286TIP3    H161273   2.778   4.873  11.659  0.4581 -0.3824  1.9442
13286TIP3    H261274   2.818   5.017  11.679 -0.2690  0.1690 -0.2893
13287TIP3   OH261275   4.439   4.962  15.617  0.0791  0.3532 -0.4793
13287TIP3    H161276   4.425   4.883  15.669  0.9476  0.0403 -0.7032
13287TIP3    H261277   4.354   5.006  15.615 -0.5409 -0.8404 -0.7992
13288TIP3   OH261278   3.750   4.878  15.482 -0.0484 -0.6349  0.3150
13288TIP3    H161279   3.668   4.856  15.526  0.3261 -0.8664  0.9061
13288TIP3    H261280   3.751   4.823  15.404 -0.6626 -0.3066  0.0716
13289TIP3   OH261281   1.462   2.985   4.230  0.1885  0.1321 -0.3454
13289TIP3    H161282   1.423   2.939   4.156 -1.7296  0.5218  0.3680
13289TIP3    H261283   1.531   3.038   4.191  1.4634 -2.1518 -1.3799
13290TIP3   OH261284   3.154   2.437   0.260 -0.1276  0.0186  0.2895
13290TIP3    H161285   3.104   2.460   0.181  0.3895 -0.1712 -0.0957
13290TIP3    H261286   3.087   2.429   0.328 -0.7616 -1.2421 -0.4379
13291TIP3   OH261287   2.105   4.348  16.577 -0.2439  0.0968 -0.1060
13291TIP3    H161288   2.180   4.405  16.588 -0.1899  0.0921 -0.4551
13291TIP3    H261289   2.030   4.408  16.571 -0.1499  0.1462 -0.8079
13292TIP3   OH261290   1.874   2.480   6.191 -0.3977  0.2391  0.2156
13292TIP3    H161291   1.783   2.506   6.183  0.0475  1.8920  0.1682
13292TIP3    H261292   1.871   2.390   6.225 -2.0212  0.2131  0.0536
13293TIP3   OH261293   0.086   2.987   3.201  0.3150  0.0587 -0.5552
13293TIP3    H161294   0.169   2.965   3.243  0.9610 -0.4962 -2.0628
13293TIP3    H261295   0.066   2.912   3.146 -1.2351  0.1689 -0.1951
13294TIP3   OH261296   0.868   0.140   2.853  0.2323  0.3278 -0.0728
13294TIP3    H161297   0.826   0.186   2.926 -1.8285 -1.3018 -0.1295
13294TIP3    H261298   0.895   0.056   2.889  1.9613  0.6695 -0.4921
13295TIP3   OH261299   3.523   0.127   0.582 -0.4603 -0.1599 -0.1805
13295TIP3    H161300   3.464   0.198   0.557 -0.9671 -0.1927  0.8958
13295TIP3    H261301   3.507   0.059   0.516  0.4362  0.9164 -1.5501
13296TIP3   OH261302   1.764   4.364   5.450  0.3535 -0.8806 -0.3749
13296TIP3    H161303   1.857   4.385   5.440  0.7407 -2.6252 -0.8492
13296TIP3    H261304   1.739   4.326   5.366 -1.0616  0.4253 -0.5852
13297TIP3   OH261305   1.375   4.976   4.772  0.8825  0.0442 -0.2469
13297TIP3    H161306   1.424   4.984   4.690 -0.5627  0.4977 -1.1053
13297TIP3    H261307   1.284   4.966   4.745  0.2689  0.9538  1.3167
13298TIP3   OH261308   4.598   0.140   1.934 -0.1901 -0.6687 -0.8156
13298TIP3    H161309   4.593   0.065   1.993 -1.5994 -0.2057 -0.3261
13298TIP3    H261310   4.509   0.154   1.904  0.0130  0.9287 -0.7693
13299TIP3   OH261311   1.227   2.875   3.470 -0.6008  0.2197  0.3412
13299TIP3    H161312   1.160   2.822   3.514  1.4329 -2.1695  0.7949
13299TIP3    H261313   1.237   2.952   3.525 -0.7729 -0.9061  2.0117
13300TIP3   OH261314   0.707   1.157  14.721 -0.7212  0.1988  0.6147
13300TIP3    H161315   0.742   1.073  14.751  0.6732  1.0091  1.4103
13300TIP3    H261316   0.612   1.144  14.717 -0.6152 -1.1322  1.6421
13301TIP3   OH261317   1.469   4.823   6.508  0.2064 -0.4232  0.3373
13301TIP3    H161318   1.488   4.782   6.593  1.1767  0.6247  0.6513
13301TIP3    H261319   1.427   4.906   6.531  0.1484 -0.2944 -0.2255
13302TIP3   OH261320   5.568   4.148  13.593 -0.1805  0.7307  0.7164
13302TIP3    H161321   5.663   4.157  13.587 -0.2889  1.1492 -0.6232
13302TIP3    H261322   5.534   4.217  13.536 -1.2631 -0.1708  0.2417
13303TIP3   OH261323   6.727   4.694  10.773 -0.1188 -0.2114  0.5502
13303TIP3    H161324   6.755   4.714  10.862 -0.4744 -0.7242  0.7817
13303TIP3    H261325   6.771   4.611  10.752 -1.6955 -1.2299  1.0579
13304TIP3   OH261326   5.038   2.510  12.416  0.8623 -0.3300 -0.0277
13304TIP3    H161327   5.094   2.508  12.339  2.0016 -2.4660  0.7828
13304TIP3    H261328   5.046   2.423  12.455 -0.6267  0.2827  1.8483
13305TIP3   OH261329   4.624   4.807  13.004  0.1799  0.0324  0.6102
13305TIP3    H161330   4.533   4.821  13.030  0.0414 -0.5656  0.4743
13305TIP3    H261331   4.623   4.722  12.959  0.0785  1.7208 -2.8774
13306TIP3   OH261332   5.621   5.889   5.912  0.2297  0.7355  0.3537
13306TIP3    H161333   5.533   5.893   5.950 -0.4934  0.1848 -1.1747
13306TIP3    H261334   5.675   5.848   5.980 -0.2311  2.7703  2.0591
13307TIP3   OH261335   4.867   2.058  15.843 -0.1989  0.1130  0.2797
13307TIP3    H161336   4.863   2.137  15.790 -0.7474  0.6427  1.0918
13307TIP3    H261337   4.778   2.047  15.876 -0.1050 -0.8007  0.2444
13308TIP3   OH261338   2.961   3.865  12.752  0.3957  0.0174  0.2337
13308TIP3    H161339   3.027   3.807  12.790  1.6065  0.5195 -1.0277
13308TIP3    H261340   2.947   3.830  12.664  0.2216  0.9142 -0.0986
13309TIP3   OH261341   3.266   3.435   1.425  0.1199 -0.3305  0.1636
13309TIP3    H161342   3.303   3.523   1.419 -0.4259 -0.1390 -0.5019
13309TIP3    H261343   3.336   3.377   1.394 -0.9505  0.2368 -3.7744
13310TIP3   OH261344   1.381   0.602   4.613  1.2300  0.3518 -0.4710
13310TIP3    H161345   1.290   0.575   4.620  1.5674 -0.7129  0.0077
13310TIP3    H261346   1.377   0.691   4.579 -0.0474  0.9582  1.1714
13311TIP3   OH261347   5.498   2.330   5.667  0.3443  0.2968 -0.1855
13311TIP3    H161348   5.535   2.368   5.747 -0.9650  0.9473  0.1555
13311TIP3    H261349   5.442   2.400   5.632 -0.6878 -0.6816 -0.5479
13312TIP3   OH261350   6.644   1.697   0.541  0.2877  0.4622  0.0996
13312TIP3    H161351   6.646   1.651   0.457 -0.5622  1.0959 -0.2852
13312TIP3    H261352   6.615   1.631   0.604 -1.9226  0.6683 -0.6102
13313TIP3   OH261353   4.821   3.594  13.233 -0.6540  0.2487  0.0611
13313TIP3    H161354   4.917   3.587  13.232 -0.7327 -0.9768  0.2041
13313TIP3    H261355   4.805   3.688  13.246  0.5583  0.2312  2.2322
13314TIP3   OH261356   6.554   0.087  15.403 -0.7369  0.1489 -0.1425
13314TIP3    H161357   6.617   0.026  15.440  0.1335  0.1708 -1.5545
13314TIP3    H261358   6.544   0.154  15.471  0.6001  0.0398  0.1809
13315TIP3   OH261359   5.320   0.141   0.373  0.2923  0.1578 -0.2453
13315TIP3    H161360   5.300   0.151   0.279  2.1122 -0.8346 -0.7803
13315TIP3    H261361   5.334   0.047   0.384 -0.6011  0.1678  1.2146
13316TIP3   OH261362   2.332   2.456  10.905 -0.0830  0.0675 -0.6180
13316TIP3    H161363   2.391   2.384  10.927 -0.0051  0.2127 -0.3529
13316TIP3    H261364   2.333   2.459  10.809 -0.4590 -0.5896 -0.6485
13317TIP3   OH261365   5.679   3.864  15.457 -0.0629 -0.1851 -0.5779
13317TIP3    H161366   5.661   3.888  15.548 -0.9473  0.0296 -0.7942
13317TIP3    H261367   5.596   3.880  15.412  0.1211 -1.0792 -1.2602
13318TIP3   OH261368   6.736   6.404  11.228 -0.3202 -0.2223  0.7042
13318TIP3    H161369   6.680   6.451  11.166  0.6118 -0.0799 -0.0503
13318TIP3    H261370   6.691   6.321  11.243 -0.4099 -0.3968 -0.4258
13319TIP3   OH261371   2.699   5.871  16.978 -0.9244  0.7556  0.0222
13319TIP3    H161372   2.724   5.955  16.940  2.1523  0.7514  1.6668
13319TIP3    H261373   2.743   5.806  16.923 -0.9700  0.4106  0.3868
13320TIP3   OH261374   5.838   3.092   3.956 -0.1913 -0.0783 -0.0137
13320TIP3    H161375   5.928   3.102   3.987 -0.6723 -0.9017  1.8253
13320TIP3    H261376   5.793   3.172   3.985  0.1002  0.7159 -1.6597
13321TIP3   OH261377   6.329   5.908  10.608  0.3749 -0.0953 -0.2781
13321TIP3    H161378   6.327   5.884  10.515 -0.3495  1.4677 -0.7057
13321TIP3    H261379   6.294   5.832  10.654  1.1313 -1.0489 -1.2385
13322TIP3   OH261380   5.649   1.090   4.076  0.2411  0.2333  0.1503
13322TIP3    H161381   5.741   1.067   4.065 -0.0987 -0.6919 -0.9254
13322TIP3    H261382   5.605   1.006   4.087 -0.6365  0.5753 -0.6293
13323TIP3   OH261383   1.116   1.863  15.882  0.2615  0.1960 -0.3994
13323TIP3    H161384   1.187   1.861  15.946  0.4211 -0.4774 -0.5950
13323TIP3    H261385   1.116   1.776  15.843 -0.9852  0.0419 -0.0668
13324TIP3   OH261386   4.941   6.138   5.153 -0.2633 -0.3205 -0.2586
13324TIP3    H161387   5.033   6.114   5.141 -0.1785 -0.6581  0.9539
13324TIP3    H261388   4.894   6.054   5.154 -0.2442 -0.3493  1.7410
13325TIP3   OH261389   0.611   3.308  11.755  0.2991 -0.6398 -0.3956
13325TIP3    H161390   0.523   3.305  11.793  0.4985 -0.3882  0.0982
13325TIP3    H261391   0.639   3.216  11.751 -0.2613 -0.7822 -1.2229
13326TIP3   OH261392   1.619   5.631  14.286 -0.4664 -0.2890  0.6464
13326TIP3    H161393   1.707   5.595  14.300  0.7556  2.0993 -0.3591
13326TIP3    H261394   1.560   5.558  14.304  1.8161 -2.7313 -1.0978
13327TIP3   OH261395   5.960   5.711   3.152 -0.2514 -0.5302  0.1136
13327TIP3    H161396   5.976   5.644   3.085  1.0512 -0.6528  0.5127
13327TIP3    H261397   5.886   5.679   3.202  1.6516 -2.8199  1.6691
13328TIP3   OH261398   1.645   4.039   0.532 -0.0238 -0.7431  0.7078
13328TIP3    H161399   1.680   4.064   0.447  1.4734 -1.4800  1.0796
13328TIP3    H261400   1.579   3.973   0.512 -1.4251  0.8110 -0.0167
13329TIP3   OH261401   6.532   1.291  11.883  0.1837 -0.0789  0.0447
13329TIP3    H161402   6.528   1.260  11.793  2.2560 -2.7338  0.7324
13329TIP3    H261403   6.604   1.354  11.883 -0.6380  0.8915 -0.3440
13330TIP3   OH261404   6.535   0.079   3.204 -0.1642  0.2030  0.1394
13330TIP3    H161405   6.524   0.131   3.125  1.8433  0.5964  0.0692
13330TIP3    H261406   6.593   0.007   3.178 -1.7835 -1.3376  0.5750
13331TIP3   OH261407   3.471   1.984   1.382 -0.2889 -0.4924 -0.0339
13331TIP3    H161408   3.400   2.046   1.396  0.4418  0.2835  0.2982
13331TIP3    H261409   3.432   1.898   1.398 -1.3878 -0.1570 -0.8072
13332TIP3   OH261410   3.536   3.446  12.904 -0.4613  0.7930  0.2352
13332TIP3    H161411   3.615   3.425  12.955 -0.9716 -2.0905  0.0024
13332TIP3    H261412   3.465   3.441  12.967 -0.7377  0.6870 -0.0839
13333TIP3   OH261413   6.343   5.764   4.880  0.1641 -0.3372  0.1777
13333TIP3    H161414   6.291   5.763   4.800  0.6303 -0.0302 -0.1375
13333TIP3    H261415   6.413   5.700   4.864  0.6811  0.2491  0.0417
13334TIP3   OH261416   1.002   0.694   5.839  0.1109 -0.2656 -0.1032
13334TIP3    H161417   1.020   0.619   5.897 -1.3538 -0.2431  0.4300
13334TIP3    H261418   1.005   0.657   5.751 -0.3024 -0.9015  0.1369
13335TIP3   OH261419   1.610   2.300   1.503  0.1347 -0.0809  0.8856
13335TIP3    H161420   1.672   2.349   1.557 -0.8171  0.0654  1.8860
13335TIP3    H261421   1.633   2.208   1.517  1.2408  0.0140 -0.1571
13336TIP3   OH261422   1.874   3.479  15.460  0.5531  0.0366 -0.1370
13336TIP3    H161423   1.930   3.453  15.387  0.7551  0.2251 -0.0474
13336TIP3    H261424   1.827   3.556  15.427  2.0934  1.3585  0.6062
13337TIP3   OH261425   2.044   0.621  12.496 -0.1611  0.6844 -0.6501
13337TIP3    H161426   2.106   0.573  12.551  0.4594  0.8918 -1.1558
13337TIP3    H261427   1.961   0.574  12.507  0.2709 -0.0878 -0.6077
13338TIP3   OH261428   0.969   1.296  12.144  0.1838 -0.1350  0.2235
13338TIP3    H161429   1.040   1.293  12.080  0.7419 -2.3025  0.8456
13338TIP3    H261430   0.904   1.235  12.109 -0.0560 -0.3850  1.0894
13339TIP3   OH261431   6.439   0.568  15.791  0.4234 -0.2134  0.1767
13339TIP3    H161432   6.485   0.639  15.747 -0.2325 -0.7641 -1.4700
13339TIP3    H261433   6.355   0.605  15.817  0.3360 -0.2161 -0.1064
13340TIP3   OH261434   4.524   3.583   3.528 -0.0597 -0.4835  0.1320
13340TIP3    H161435   4.562   3.572   3.441  0.7793 -0.6036  0.4950
13340TIP3    H261436   4.451   3.521   3.531 -1.3307  0.8803 -1.1468
13341TIP3   OH261437   1.272   4.328   1.084  0.1353 -0.0763  0.0090
13341TIP3    H161438   1.346   4.358   1.030  0.7296  1.0949  1.3950
13341TIP3    H261439   1.204   4.394   1.070  0.0132 -0.1846  0.0922
13342TIP3   OH261440   5.398   3.614   4.702  0.4867  0.4052  0.3625
13342TIP3    H161441   5.378   3.699   4.740 -0.8557  0.7051 -0.9213
13342TIP3    H261442   5.357   3.550   4.760  1.4203  0.6225  1.2794
13343TIP3   OH261443   1.498   4.341  17.327 -0.2215  0.2438  0.1710
13343TIP3    H161444   1.403   4.335  17.333 -0.1538  0.3081  1.5384
13343TIP3    H261445   1.529   4.251  17.340 -0.0942  0.1287 -0.7991
13344TIP3   OH261446   5.589   2.692  13.149 -0.0034  0.0613  0.0524
13344TIP3    H161447   5.645   2.754  13.195 -0.1340  0.2742 -0.0743
13344TIP3    H261448   5.561   2.630  13.216 -0.3496  0.4819  0.3018
13345TIP3   OH261449   3.676   2.384   4.279 -0.2092 -0.3413  0.1486
13345TIP3    H161450   3.685   2.454   4.214 -0.0683  0.3783  0.9346
13345TIP3    H261451   3.705   2.423   4.361 -0.4664 -1.2212  0.6700
13346TIP3   OH261452   3.334   3.013  12.776 -0.2960 -0.3936  0.0588
13346TIP3    H161453   3.271   3.006  12.704 -0.5551  0.6738  0.1549
13346TIP3    H261454   3.299   3.084  12.831  0.2734 -0.7113  0.8490
13347TIP3   OH261455   3.293   3.313  13.619 -0.0292  0.0297  0.5195
13347TIP3    H161456   3.252   3.393  13.653  0.9394  0.8688 -0.2070
13347TIP3    H261457   3.375   3.306  13.668  1.4746  1.3604 -1.6258
13348TIP3   OH261458   3.914   4.864   3.992  1.3082 -0.0051  0.5881
13348TIP3    H161459   3.853   4.913   4.047 -0.8238  0.0815 -1.6555
13348TIP3    H261460   3.972   4.931   3.956  0.2560  0.5239 -0.1991
13349TIP3   OH261461   1.352   3.362   0.497 -0.1073  0.4687 -0.1695
13349TIP3    H161462   1.393   3.276   0.502 -0.3866  0.2288 -1.6401
13349TIP3    H261463   1.258   3.344   0.503 -0.2459  0.5164 -1.9153
13350TIP3   OH261464   4.315   5.532  12.260 -0.4508 -0.2814  0.0141
13350TIP3    H161465   4.220   5.526  12.246 -0.3625 -1.6136 -0.1915
13350TIP3    H261466   4.346   5.442  12.246  0.8451  0.1505  0.0609
13351TIP3   OH261467   6.556   5.355  16.545 -0.9116 -0.5594 -0.4616
13351TIP3    H161468   6.624   5.420  16.562 -3.2936  1.9288  0.2275
13351TIP3    H261469   6.575   5.323  16.456  1.5684 -0.6075  0.0152
13352TIP3   OH261470   5.976   2.335  13.031  0.2850 -0.0448  0.4105
13352TIP3    H161471   5.902   2.289  13.071  0.2999  0.3357  0.8933
13352TIP3    H261472   6.050   2.274  13.040 -0.0435 -0.5840 -0.4216
13353TIP3   OH261473   6.591   1.901   1.847  0.4058  0.1420 -0.4574
13353TIP3    H161474   6.590   1.832   1.914  1.5682  1.0677  0.5704
13353TIP3    H261475   6.514   1.884   1.793  0.0597 -1.2993  0.4470
13354TIP3   OH261476   0.673   6.134  16.836  0.2952 -0.4151  0.1804
13354TIP3    H161477   0.761   6.132  16.800  0.4228 -3.2916  0.4077
13354TIP3    H261478   0.645   6.043  16.835 -2.0620  0.2100  1.6324
13355TIP3   OH261479   3.381   4.333   4.210 -0.4806 -0.0303  0.1441
13355TIP3    H161480   3.393   4.380   4.293 -0.4525 -1.5503  1.0359
13355TIP3    H261481   3.329   4.256   4.233 -0.5439 -0.4448 -1.2799
13356TIP3   OH261482   3.182   0.811   4.176  0.1944  0.3484 -0.3256
13356TIP3    H161483   3.181   0.888   4.119  2.0743  0.2264 -0.5960
13356TIP3    H261484   3.267   0.770   4.159 -0.4186 -1.3351  0.4272
13357TIP3   OH261485   4.740   0.262   1.273  0.0977  0.1394  0.6203
13357TIP3    H161486   4.817   0.295   1.318 -1.1387  2.1632  1.4027
13357TIP3    H261487   4.669   0.272   1.337 -1.4123  1.5683 -1.1396
13358TIP3   OH261488   1.952   4.341   4.792  0.4189  0.1829  0.0062
13358TIP3    H161489   1.894   4.410   4.822 -0.4707  0.3793 -1.9847
13358TIP3    H261490   1.959   4.355   4.697 -1.7461 -3.7476 -0.9758
13359TIP3   OH261491   3.741   1.025  13.171 -0.0239 -0.3896  0.0641
13359TIP3    H161492   3.670   1.071  13.214  0.4168 -0.6225  1.0741
13359TIP3    H261493   3.736   0.936  13.203  0.5367 -0.4842 -0.0838
13360TIP3   OH261494   0.455   0.507   0.949  0.5792 -0.1094 -0.2230
13360TIP3    H161495   0.421   0.574   0.889  2.5130  0.3868 -0.8472
13360TIP3    H261496   0.447   0.546   1.036  1.0265  0.6468 -0.5133
13361TIP3   OH261497   6.142   1.854   1.527 -0.0793  0.3788  0.4502
13361TIP3    H161498   6.058   1.842   1.483 -0.0804 -1.3558  0.8437
13361TIP3    H261499   6.143   1.786   1.595  1.7606  0.1643  0.2600
13362TIP3   OH261500   1.782   6.444   1.253 -0.4026 -0.2060 -0.0384
13362TIP3    H161501   1.716   6.378   1.271 -1.5492  0.9347  0.0462
13362TIP3    H261502   1.845   6.435   1.324 -1.0456 -0.5700  0.4961
13363TIP3   OH261503   5.961   2.022  14.489  0.1641 -0.1565  0.3034
13363TIP3    H161504   5.898   1.950  14.491 -0.5261  0.4548  1.1710
13363TIP3    H261505   6.042   1.981  14.457 -0.4423 -1.1278 -0.0446
13364TIP3   OH261506   4.396   1.495  15.998 -0.6485 -0.5806 -0.6610
13364TIP3    H161507   4.391   1.572  15.941 -1.6446 -0.5779 -0.5908
13364TIP3    H261508   4.330   1.512  16.066 -0.3200 -1.1339 -0.2015
13365TIP3   OH261509   6.430   0.335   0.031  0.3313  0.6103 -0.1609
13365TIP3    H161510   6.487   0.324   0.107 -1.2081 -0.2958  0.9188
13365TIP3    H261511   6.466   0.274  -0.035  0.1853 -0.5052  0.7636
13366TIP3   OH261512   0.536   3.762   5.990 -0.5258 -0.3170 -0.7677
13366TIP3    H161513   0.610   3.773   6.049 -0.5738 -0.6020 -0.6555
13366TIP3    H261514   0.494   3.848   5.989 -0.6434 -0.3646 -0.2241
13367TIP3   OH261515   5.679   4.875  14.607 -0.2728  0.4576 -0.0640
13367TIP3    H161516   5.682   4.948  14.545  0.1409 -1.2517 -2.1619
13367TIP3    H261517   5.656   4.916  14.690  1.3700  3.1852 -0.8059
13368TIP3   OH261518   2.553   3.747   0.993 -0.7912  0.1146 -0.1673
13368TIP3    H161519   2.594   3.663   1.010  0.6935  0.7699 -0.3485
13368TIP3    H261520   2.471   3.725   0.949  1.0054 -1.2040 -3.1709
13369TIP3   OH261521   5.883   4.726   0.055 -0.1350 -0.3643  0.4023
13369TIP3    H161522   5.917   4.808   0.093  0.9777 -1.0669  0.9831
13369TIP3    H261523   5.788   4.733   0.064 -0.0912  1.0673  0.0004
13370TIP3   OH261524   5.312   5.735  16.021 -0.6357 -0.1320  0.0277
13370TIP3    H161525   5.271   5.661  16.066 -0.7239 -1.5712 -2.2657
13370TIP3    H261526   5.402   5.707  16.005 -0.9693 -0.2872 -1.8413
13371TIP3   OH261527   1.995   4.293  11.974 -0.6234 -0.2869  0.3008
13371TIP3    H161528   2.065   4.340  11.929 -0.7852 -1.2804 -1.0544
13371TIP3    H261529   1.982   4.341  12.056 -0.1383  1.4427 -0.5968
13372TIP3   OH261530   6.641   2.779   3.745 -0.0873 -0.2626 -0.0999
13372TIP3    H161531   6.630   2.813   3.657  0.4540 -0.9111 -0.4254
13372TIP3    H261532   6.578   2.828   3.798 -1.0221 -0.4564 -1.0018
13373TIP3   OH261533   6.115   4.021   1.781 -0.1376  0.2872 -0.2323
13373TIP3    H161534   6.127   4.036   1.687 -1.4951  1.9933 -0.1777
13373TIP3    H261535   6.020   4.018   1.794  0.0090 -1.9008  0.8490
13374TIP3   OH261536   2.713   2.602   3.775 -0.1878  0.2893  0.1806
13374TIP3    H161537   2.697   2.587   3.868 -0.7355 -0.7711 -0.0669
13374TIP3    H261538   2.662   2.534   3.731  0.3638  0.5453 -0.8823
13375TIP3   OH261539   3.779   3.405  15.970 -0.2834  0.0598 -0.3809
13375TIP3    H161540   3.758   3.383  15.879  0.6047 -1.7959 -0.1856
13375TIP3    H261541   3.841   3.338  15.997 -2.3660 -0.9525  2.3559
13376TIP3   OH261542   6.385   5.907   0.446  0.7074 -0.1801  0.2732
13376TIP3    H161543   6.360   5.999   0.459  1.5444  0.3862 -1.6886
13376TIP3    H261544   6.480   5.908   0.448  0.7849 -0.6435 -1.5948
13377TIP3   OH261545   4.077   0.198  15.674 -0.0409 -0.6797  0.3368
13377TIP3    H161546   4.100   0.188  15.766 -1.9201 -2.0435  0.7138
13377TIP3    H261547   4.009   0.265  15.673  1.6584  1.1269 -0.4065
13378TIP3   OH261548   1.232   0.304  16.004 -0.2157  0.5991 -0.0205
13378TIP3    H161549   1.284   0.342  15.933 -1.1427  0.5565 -0.7496
13378TIP3    H261550   1.147   0.285  15.963 -0.5121 -0.1371  0.9152
13379TIP3   OH261551   3.378   2.310   3.322 -0.3629  0.4005  0.0638
13379TIP3    H161552   3.372   2.256   3.400 -3.7663 -0.9628 -0.9742
13379TIP3    H261553   3.433   2.260   3.262  0.2683  0.3080  0.7130
13380TIP3   OH261554   4.728   3.104   1.020 -0.1596 -0.0194  0.5962
13380TIP3    H161555   4.653   3.099   1.080 -0.5417  2.0417  0.3505
13380TIP3    H261556   4.694   3.071   0.937 -0.6644  0.4585  0.6077
13381TIP3   OH261557   5.617   5.616   5.583 -0.6956  0.5965 -0.5002
13381TIP3    H161558   5.605   5.580   5.671  0.1965  0.3067 -0.4874
13381TIP3    H261559   5.659   5.546   5.534 -0.7974  0.9079 -1.0423
13382TIP3   OH261560   5.546   3.566  15.161  0.0346  0.3502 -0.1737
13382TIP3    H161561   5.598   3.641  15.131  0.9164 -0.3361 -0.3747
13382TIP3    H261562   5.606   3.514  15.214 -0.1382 -0.9872 -1.2378
13383TIP3   OH261563   5.667   0.644  12.544  0.0175 -0.2881  0.2656
13383TIP3    H161564   5.593   0.629  12.485 -0.4346  1.3496  0.3557
13383TIP3    H261565   5.700   0.557  12.564 -0.2168 -0.9231 -1.8970
13384TIP3   OH261566   3.764   6.088  12.421  0.0719  0.7029  0.2845
13384TIP3    H161567   3.670   6.080  12.408  0.0159  1.0350  0.4919
13384TIP3    H261568   3.775   6.165  12.477  0.3354 -0.4127  1.8367
13385TIP3   OH261569   5.405   0.402  11.981 -1.3207  0.2353 -0.7026
13385TIP3    H161570   5.319   0.368  11.956 -1.3491 -0.2244 -0.0178
13385TIP3    H261571   5.386   0.482  12.031 -1.2445  1.4587 -2.5410
13386TIP3   OH261572   3.075   5.080   6.320 -0.8998 -0.2186  0.0553
13386TIP3    H161573   3.152   5.062   6.374 -0.6574 -1.9904 -0.7904
13386TIP3    H261574   3.003   5.035   6.365 -0.7488 -1.4766 -0.9026
13387TIP3   OH261575   2.887   4.067   3.647 -0.3746 -0.6420  0.3187
13387TIP3    H161576   2.948   4.034   3.713  0.7831 -3.1238 -1.8102
13387TIP3    H261577   2.943   4.097   3.576 -1.5963  1.9808  0.3465
13388TIP3   OH261578   1.032   5.289  12.383 -0.3712  0.1638 -0.0530
13388TIP3    H161579   1.017   5.195  12.376 -3.0545  0.5748 -0.9497
13388TIP3    H261580   1.041   5.318  12.293 -1.9248  1.0339  0.0309
13389TIP3   OH261581   3.316   2.126  12.283  0.0526 -0.6403  0.0144
13389TIP3    H161582   3.365   2.137  12.364 -1.1317 -1.0821  0.8187
13389TIP3    H261583   3.358   2.053  12.239  0.8915 -0.2035  0.0709
13390TIP3   OH261584   3.155   2.198  16.969 -0.2079 -0.2360  0.0166
13390TIP3    H161585   3.158   2.280  16.920 -1.7217 -0.6296 -0.7901
13390TIP3    H261586   3.246   2.169  16.973  0.2899  1.2660 -0.0503
13391TIP3   OH261587   5.697   5.264   3.572  0.2413 -0.1152  0.0913
13391TIP3    H161588   5.673   5.173   3.555 -1.3341  0.5778 -1.7175
13391TIP3    H261589   5.749   5.290   3.496  0.3419  0.6354  0.4096
13392TIP3   OH261590   4.067   5.777   3.004 -0.2598 -0.0599  0.2674
13392TIP3    H161591   4.070   5.751   2.912 -2.0300 -0.1643  0.2155
13392TIP3    H261592   3.984   5.742   3.036  0.1301  0.3666  1.7928
13393TIP3   OH261593   1.538   2.844   3.037  0.2594  0.1561 -0.4263
13393TIP3    H161594   1.458   2.875   2.995  0.3093  0.6647 -0.1583
13393TIP3    H261595   1.515   2.760   3.076 -0.4608  0.7989  0.5930
13394TIP3   OH261596   2.015   2.893  12.269  0.0686 -0.0917  0.0345
13394TIP3    H161597   1.969   2.942  12.337  1.2406 -0.0605  0.8325
13394TIP3    H261598   2.107   2.892  12.297  0.0710 -3.0809  0.2804
13395TIP3   OH261599   2.356   2.814   3.539 -0.3982  0.2602 -0.5128
13395TIP3    H161600   2.432   2.784   3.488 -0.2627  0.3720 -0.3801
13395TIP3    H261601   2.338   2.902   3.505 -1.4838 -0.3789 -1.6646
13396TIP3   OH261602   5.296   1.828   4.602  0.8160  0.0746 -0.2959
13396TIP3    H161603   5.242   1.903   4.628  1.1941  0.9127 -1.8112
13396TIP3    H261604   5.327   1.792   4.685 -1.4792 -0.0320  0.6164
13397TIP3   OH261605   1.494   5.593   1.225 -0.1284 -0.2169 -0.1687
13397TIP3    H161606   1.457   5.531   1.162  1.6501  0.2460 -1.7667
13397TIP3    H261607   1.423   5.610   1.287 -1.7060 -1.3011 -1.5982
13398TIP3   OH261608   0.742   0.425  12.328 -0.1491 -0.2104  0.4780
13398TIP3    H161609   0.770   0.427  12.419  1.6664  3.0959  0.0011
13398TIP3    H261610   0.819   0.396  12.279 -0.2813  0.4936 -0.1725
13399TIP3   OH261611   3.368   3.122  11.799 -0.0105 -0.0247  0.1157
13399TIP3    H161612   3.377   3.062  11.873  1.5320 -0.0624 -0.0705
13399TIP3    H261613   3.451   3.169  11.796 -0.3031  0.4532 -1.1865
13400TIP3   OH261614   0.371   1.466   0.416 -0.3044  0.0759  0.4009
13400TIP3    H161615   0.295   1.418   0.448  1.2651 -1.2503  2.3754
13400TIP3    H261616   0.412   1.407   0.352  0.4486 -0.3509  1.2526
13401TIP3   OH261617   6.700   3.039  17.336  0.4615  0.2369 -0.1868
13401TIP3    H161618   6.662   2.991  17.410  1.3725  2.3932  1.8111
13401TIP3    H261619   6.790   3.057  17.363  0.8088  1.1016 -1.8168
13402TIP3   OH261620   1.110   5.772  12.814 -0.2423 -1.1436 -0.0581
13402TIP3    H161621   1.128   5.684  12.848  0.3521 -1.9077 -2.2093
13402TIP3    H261622   1.022   5.765  12.776 -0.4597 -0.6096  0.3365
13403TIP3   OH261623   1.012   6.015   1.810  0.8504  0.0677  0.2485
13403TIP3    H161624   1.003   5.967   1.893  1.4942 -1.5494 -0.5740
13403TIP3    H261625   1.100   6.052   1.813  0.7864  0.2124  0.3782
13404TIP3   OH261626   0.928   1.142  13.185  0.1668  0.4664 -0.0340
13404TIP3    H161627   1.007   1.181  13.148  0.6401 -0.0876  0.3642
13404TIP3    H261628   0.950   1.126  13.277 -0.8904  1.5583  0.4349
13405TIP3   OH261629   3.992   3.321  14.342  0.0961  0.4391  0.1084
13405TIP3    H161630   4.066   3.262  14.347  1.2950  1.9424  0.9648
13405TIP3    H261631   4.001   3.364  14.257 -1.5356 -1.4580 -1.1307
13406TIP3   OH261632   4.319   4.672   5.970 -0.4389 -0.2975 -0.5079
13406TIP3    H161633   4.244   4.621   6.001 -1.2109  0.5919 -0.8803
13406TIP3    H261634   4.343   4.727   6.045  0.1596 -0.9247 -0.2293
13407TIP3   OH261635   3.988   5.072   1.056 -0.5690 -0.1428  0.3376
13407TIP3    H161636   3.982   5.055   0.962 -1.7671 -0.4832  0.4622
13407TIP3    H261637   4.045   5.002   1.089 -3.0930 -2.2918  0.4061
13408TIP3   OH261638   6.387   4.614   4.233  0.3329 -0.1067  0.3921
13408TIP3    H161639   6.316   4.580   4.180 -0.2657  1.7720 -0.1107
13408TIP3    H261640   6.464   4.565   4.205 -0.5823 -1.5237  0.2771
13409TIP3   OH261641   3.112   5.469  17.205  0.2639 -0.3423 -0.9438
13409TIP3    H161642   3.096   5.563  17.213 -1.7451 -0.5905 -1.6413
13409TIP3    H261643   3.065   5.430  17.279  1.9748 -0.7618 -0.0216
13410TIP3   OH261644   5.466   3.468  10.958 -0.7841 -0.2994  0.0715
13410TIP3    H161645   5.449   3.540  10.897  0.5547 -1.3682 -1.6752
13410TIP3    H261646   5.561   3.463  10.963 -0.8420 -1.9096  0.1440
13411TIP3   OH261647   4.818   0.244   0.722  0.1505 -0.0303  0.1896
13411TIP3    H161648   4.849   0.326   0.760  2.8238 -1.0036  0.2851
13411TIP3    H261649   4.724   0.244   0.739  0.5991  1.3743  3.3456
13412TIP3   OH261650   4.646   0.255  11.318 -0.5993  0.0260 -0.1951
13412TIP3    H161651   4.685   0.242  11.405  0.6678  0.3211 -0.6872
13412TIP3    H261652   4.596   0.175  11.302 -0.4153 -0.2588  0.5974
13413TIP3   OH261653   2.322   5.816  15.791 -0.4864  0.0903 -0.2684
13413TIP3    H161654   2.290   5.861  15.713 -1.5659 -1.2594 -0.6378
13413TIP3    H261655   2.381   5.748  15.757  1.1132  1.1526  0.2782
13414TIP3   OH261656   0.937   6.448   5.264  0.4588  0.2140  0.1011
13414TIP3    H161657   0.955   6.407   5.348  0.0701 -0.1450  0.0153
13414TIP3    H261658   0.870   6.514   5.283  1.4950  1.2363  0.3420
13415TIP3   OH261659   5.742   6.594  11.287 -0.0438  0.2877  0.6177
13415TIP3    H161660   5.671   6.643  11.245  0.7043  0.1650 -0.8301
13415TIP3    H261661   5.783   6.657  11.346 -0.7386  0.6342  0.7446
13416TIP3   OH261662   1.276   4.219  15.566 -0.0766  0.3704  0.1897
13416TIP3    H161663   1.337   4.148  15.584 -0.7141 -0.4414 -0.7086
13416TIP3    H261664   1.321   4.274  15.501 -0.0883  0.0610 -0.0820
13417TIP3   OH261665   6.314   2.348  16.714 -0.1889  0.0684  0.2641
13417TIP3    H161666   6.257   2.385  16.646 -0.0233  2.3020  1.2744
13417TIP3    H261667   6.358   2.424  16.752  0.5810 -1.2531  2.1085
13418TIP3   OH261668   0.659   4.111  17.374  0.4607 -0.5848 -0.3275
13418TIP3    H161669   0.645   4.092  17.467 -0.1566  1.8747  0.1597
13418TIP3    H261670   0.734   4.171  17.374 -2.1766  3.0440 -0.8576
13419TIP3   OH261671   1.906   0.065  13.317  0.0235  0.3849 -0.3099
13419TIP3    H161672   1.949   0.029  13.395  0.4588  1.9065  0.1919
13419TIP3    H261673   1.819   0.025  13.317  0.8239 -1.4639 -0.4026
13420TIP3   OH261674   5.146   0.798  13.043  0.2564  0.0810 -0.3576
13420TIP3    H161675   5.236   0.769  13.032 -0.2041 -0.6304 -2.8166
13420TIP3    H261676   5.140   0.824  13.135  2.7655 -0.4642  0.0211
13421TIP3   OH261677   6.275   2.838   0.706 -0.4659 -0.0308 -0.5393
13421TIP3    H161678   6.283   2.747   0.677 -0.9537  0.2216 -1.4926
13421TIP3    H261679   6.362   2.875   0.692 -0.5382 -0.0763 -1.1040
13422TIP3   OH261680   3.987   0.087  12.499 -0.1802  1.0222 -0.4422
13422TIP3    H161681   3.935   0.147  12.552 -0.3595 -0.0284  0.6056
13422TIP3    H261682   4.036   0.036  12.562  0.4340  0.4802 -1.3440
13423TIP3   OH261683   0.883   4.621   6.905 -0.3753 -0.2993  0.6040
13423TIP3    H161684   0.874   4.529   6.881  0.3242 -0.0752 -0.6165
13423TIP3    H261685   0.970   4.646   6.873 -0.3346  0.6509  1.3953
13424TIP3   OH261686   2.864   3.038  11.036  0.4672  0.0091 -0.1709
13424TIP3    H161687   2.884   3.004  10.949  0.6529  0.6601 -0.3811
13424TIP3    H261688   2.948   3.065  11.071  0.5609 -1.2088  0.6373
13425TIP3   OH261689   4.178   5.462   2.906  0.4110 -0.1875 -0.4392
13425TIP3    H161690   4.263   5.453   2.863  0.7390  1.0330 -0.0992
13425TIP3    H261691   4.152   5.373   2.927  0.8885 -0.7087 -1.9164
13426TIP3   OH261692   6.286   4.559  14.223  0.7354 -0.3420  0.2002
13426TIP3    H161693   6.294   4.629  14.288  2.4088 -2.2728  2.2676
13426TIP3    H261694   6.245   4.487  14.271  1.5944 -1.6877 -1.0064
13427TIP3   OH261695   3.599   5.459   1.588  0.5417  0.0105  0.6297
13427TIP3    H161696   3.605   5.426   1.677 -0.3626 -1.3650  0.2201
13427TIP3    H261697   3.572   5.383   1.536  2.6523  0.3428 -1.1036
13428TIP3   OH261698   0.029   3.005  16.431  0.2018 -0.1364  0.6429
13428TIP3    H161699  -0.029   3.079  16.415 -0.2881 -0.6668 -0.0987
13428TIP3    H261700   0.116   3.044  16.439  0.2365  0.3900 -1.5828
13429TIP3   OH261701   4.320   5.148   6.450 -0.2965  0.3074 -0.5958
13429TIP3    H161702   4.415   5.138   6.454 -0.1954  1.4940  0.5508
13429TIP3    H261703   4.306   5.243   6.454 -1.5365  0.1470 -0.7581
13430TIP3   OH261704   6.354   1.181   4.741  0.1847  0.1801  0.0487
13430TIP3    H161705   6.448   1.169   4.754  0.4646  0.8072 -1.1795
13430TIP3    H261706   6.329   1.246   4.807  0.5553 -0.2172  0.5799
13431TIP3   OH261707   1.717   0.602  16.945 -0.1892 -0.8825  0.3061
13431TIP3    H161708   1.687   0.526  16.896 -0.3978 -0.7694  0.2573
13431TIP3    H261709   1.639   0.634  16.990 -0.4936  0.2908 -0.9834
13432TIP3   OH261710   4.077   4.630  16.010  0.5808 -0.1571 -0.1484
13432TIP3    H161711   4.091   4.559  16.073  1.0610  1.9482  2.2994
13432TIP3    H261712   3.982   4.644  16.012  0.3914 -1.1284 -1.1853
13433TIP3   OH261713   6.139   2.132  10.736  0.1583 -0.7027 -0.1278
13433TIP3    H161714   6.044   2.134  10.750  0.2985  1.7449  0.9372
13433TIP3    H261715   6.169   2.063  10.795 -0.7841 -0.1804  1.0169
13434TIP3   OH261716   6.541   0.885  11.592  0.3651  0.2790  0.3490
13434TIP3    H161717   6.516   0.805  11.639 -2.0190  0.3777 -0.6076
13434TIP3    H261718   6.511   0.956  11.649 -0.8090  0.4083 -0.3854
13435TIP3   OH261719   2.822   4.282  15.593 -0.2673  0.3202  0.0955
13435TIP3    H161720   2.804   4.189  15.585 -0.3343  0.4384 -1.5371
13435TIP3    H261721   2.836   4.296  15.686 -1.2661 -1.1280  0.5013
13436TIP3   OH261722   2.049   6.170   1.143 -0.4615  0.7580  0.6254
13436TIP3    H161723   2.100   6.105   1.095 -0.2244  2.5260 -1.7304
13436TIP3    H261724   2.113   6.213   1.199 -0.3906 -0.2295  1.3265
13437TIP3   OH261725   1.222   4.342   2.238 -0.2102  0.5741 -0.4760
13437TIP3    H161726   1.183   4.322   2.324  0.8425  0.9970  0.1107
13437TIP3    H261727   1.193   4.269   2.183  0.3456 -0.5351  0.6291
13438TIP3   OH261728   3.041   0.490  13.681 -0.3898 -0.4296 -0.3882
13438TIP3    H161729   2.964   0.433  13.688 -0.5232 -0.1399  0.7132
13438TIP3    H261730   3.112   0.431  13.654 -0.6116 -1.0487  0.3415
13439TIP3   OH261731   3.405   0.519  14.078 -0.2112 -0.5645 -0.2529
13439TIP3    H161732   3.456   0.439  14.079 -0.1225 -0.5135 -0.5521
13439TIP3    H261733   3.457   0.582  14.128 -0.3772 -0.7515  0.1517
13440TIP3   OH261734   5.070   6.668  16.067  0.4748  0.2085  0.3337
13440TIP3    H161735   4.991   6.694  16.114  0.7342  0.2936  0.7312
13440TIP3    H261736   5.112   6.603  16.124 -0.6957 -1.9421 -1.0970
13441TIP3   OH261737   5.251   5.456   6.386 -0.1450  0.8851 -0.1563
13441TIP3    H161738   5.186   5.454   6.315  0.5450  0.1196 -0.7893
13441TIP3    H261739   5.200   5.470   6.465 -1.0220  0.8928 -0.7067
13442TIP3   OH261740   1.017   1.448  17.224 -0.0716 -0.0313  0.1152
13442TIP3    H161741   0.990   1.461  17.315 -0.3261 -0.3892  0.0918
13442TIP3    H261742   0.953   1.498  17.172  1.1763  1.7751  0.2128
13443TIP3   OH261743   2.951   0.393  12.609  0.4975  0.3145  0.1762
13443TIP3    H161744   2.872   0.381  12.555  1.8426 -1.1949 -1.5884
13443TIP3    H261745   2.994   0.469  12.571  1.2321 -0.4969 -0.6670
13444TIP3   OH261746   4.240   3.315   0.589 -0.5432 -0.2293 -0.1996
13444TIP3    H161747   4.265   3.321   0.681 -0.1037  1.2918 -0.3994
13444TIP3    H261748   4.261   3.225   0.564  2.0981  0.1468  0.4130
13445TIP3   OH261749   1.897   3.192  11.946 -0.2660  0.4122  0.2475
13445TIP3    H161750   1.805   3.207  11.969  0.7938  2.4456  4.0920
13445TIP3    H261751   1.915   3.104  11.977 -0.4632  0.8070  1.5711
13446TIP3   OH261752   3.158   0.213   0.081 -0.6333 -0.0297 -0.4257
13446TIP3    H161753   3.239   0.161   0.080 -0.2232  0.6071 -1.0518
13446TIP3    H261754   3.088   0.149   0.067 -0.2881 -0.6521  0.5729
13447TIP3   OH261755   1.051   4.469   4.395 -0.5955 -0.9622  0.3171
13447TIP3    H161756   1.055   4.376   4.416  1.1268 -0.5849  2.0091
13447TIP3    H261757   1.115   4.481   4.324  0.2433 -0.9009  1.0557
13448TIP3   OH261758   3.286   0.803   1.404 -0.6525  0.4719 -1.0063
13448TIP3    H161759   3.246   0.820   1.489 -1.3133 -0.7764 -1.0399
13448TIP3    H261760   3.316   0.888   1.374 -1.2920  1.0878  0.0372
13449TIP3   OH261761   4.169   2.238   1.089 -0.5005 -0.0827 -0.1935
13449TIP3    H161762   4.144   2.250   0.998  0.8195  0.1115 -0.5386
13449TIP3    H261763   4.263   2.224   1.087 -0.1957  1.4987  1.2789
13450TIP3   OH261764   4.451   4.980   6.260  0.6389 -0.0182 -0.0849
13450TIP3    H161765   4.397   4.901   6.253  0.3336 -0.1226  2.4765
13450TIP3    H261766   4.388   5.052   6.258 -0.0208 -0.1763  4.2756
13451TIP3   OH261767   1.102   3.573   0.371 -0.0416  0.2200  0.5090
13451TIP3    H161768   1.095   3.490   0.418 -0.8280 -0.4684 -0.7760
13451TIP3    H261769   1.164   3.555   0.300 -0.6598  0.5647 -0.1215
13452TIP3   OH261770   1.841   2.045   3.290  0.3052 -0.7959  0.0408
13452TIP3    H161771   1.811   2.019   3.203  0.2745 -0.3780 -0.0761
13452TIP3    H261772   1.890   2.126   3.275  0.8792 -1.0815  0.3241
13453TIP3   OH261773   1.430   1.479  15.223 -0.4993  0.3514 -0.4285
13453TIP3    H161774   1.344   1.439  15.222  0.3366 -1.5340 -0.7902
13453TIP3    H261775   1.432   1.529  15.305 -1.1310 -1.4814  0.7735
13454TIP3   OH261776   4.751   1.826  12.764  0.6979 -0.0261 -0.3966
13454TIP3    H161777   4.781   1.916  12.760 -2.1415  0.9626 -1.2358
13454TIP3    H261778   4.828   1.774  12.739  1.9422  2.2242 -1.5435
13455TIP3   OH261779   4.012   4.723   3.201 -0.3191 -0.1350 -0.0578
13455TIP3    H161780   4.027   4.737   3.294  1.1353  1.4541 -0.4749
13455TIP3    H261781   4.095   4.691   3.167 -1.2301 -2.0623 -0.6239
13456TIP3   OH261782   3.459   1.817   2.006  0.2376  0.0976  0.4222
13456TIP3    H161783   3.454   1.797   1.912 -1.8039  1.0676  0.2771
13456TIP3    H261784   3.473   1.912   2.009 -1.2808  0.3293  1.0579
13457TIP3   OH261785   0.854   2.348   5.773  0.1473  0.2348 -0.3643
13457TIP3    H161786   0.784   2.410   5.751  0.2038  0.2874 -0.3943
13457TIP3    H261787   0.872   2.363   5.865 -0.5014 -0.3909 -0.1223
13458TIP3   OH261788   5.863   3.073   1.713 -0.2036 -0.5480 -0.2146
13458TIP3    H161789   5.892   3.004   1.773 -0.7173  0.9160  1.8515
13458TIP3    H261790   5.942   3.124   1.696 -0.4066  0.1731  0.8723
13459TIP3   OH261791   1.288   6.209   3.855  0.0268 -0.1731  0.0179
13459TIP3    H161792   1.273   6.259   3.936 -0.8915 -0.7193  0.1901
13459TIP3    H261793   1.266   6.270   3.785 -0.7563 -0.2117  0.2216
13460TIP3   OH261794   6.605   1.171   5.539  0.2877 -0.9399 -0.0654
13460TIP3    H161795   6.520   1.147   5.575 -0.5641  1.6000 -0.2621
13460TIP3    H261796   6.661   1.182   5.616 -0.1725 -0.4587  0.2091
13461TIP3   OH261797   5.020   2.142   2.880 -0.3891 -0.3087 -0.4950
13461TIP3    H161798   4.931   2.154   2.846 -0.8451 -1.7449  0.1431
13461TIP3    H261799   5.025   2.202   2.954 -0.5607  0.3200 -0.9827
13462TIP3   OH261800   6.605   3.848   1.988  0.4132 -0.1523 -0.4202
13462TIP3    H161801   6.596   3.870   2.081  0.7723  1.4809 -0.7500
13462TIP3    H261802   6.678   3.786   1.986  1.9737  1.5593  0.1968
13463TIP3   OH261803   1.521   0.787   1.765 -0.4783 -0.2372  0.0129
13463TIP3    H161804   1.607   0.829   1.767 -1.1066  1.1096  1.8539
13463TIP3    H261805   1.538   0.698   1.733  1.9343 -0.6811  2.2277
13464TIP3   OH261806   1.537   3.894   1.528 -0.2093 -0.3491 -0.3529
13464TIP3    H161807   1.461   3.888   1.585 -1.1702  1.1162 -1.4100
13464TIP3    H261808   1.584   3.972   1.558  2.1661 -2.3467  1.6756
13465TIP3   OH261809   1.608   0.661  12.750  0.2433  0.2828  0.3008
13465TIP3    H161810   1.559   0.703  12.680 -0.0449 -0.5083  0.0156
13465TIP3    H261811   1.583   0.709  12.829 -1.0710 -0.1590  0.1785
13466TIP3   OH261812   3.111   6.088  13.627 -0.6706  0.5595  0.2484
13466TIP3    H161813   3.120   6.148  13.701 -0.9421 -1.6330  2.2023
13466TIP3    H261814   3.192   6.038  13.627 -1.3743 -0.6322  0.2103
13467TIP3   OH261815   4.328   0.021  11.315  0.3726  0.0221  0.0535
13467TIP3    H161816   4.369   0.034  11.400  0.9367  2.2592 -0.4950
13467TIP3    H261817   4.331   0.107  11.273  0.7536 -1.1438 -2.5211
13468TIP3   OH261818   5.838   3.583  13.122  0.1365 -0.4009  0.4351
13468TIP3    H161819   5.893   3.577  13.200 -1.4088  0.3465  1.6257
13468TIP3    H261820   5.766   3.522  13.140 -0.9734  0.8300  0.2426
13469TIP3   OH261821   2.337   3.363  12.918 -0.5076 -0.0768  0.0030
13469TIP3    H161822   2.297   3.405  12.994 -0.1820 -0.1922  0.2418
13469TIP3    H261823   2.308   3.272  12.923 -1.2185  0.1166 -0.5182
13470TIP3   OH261824   5.111   5.369  16.814  0.2648 -0.2732 -0.0926
13470TIP3    H161825   5.199   5.333  16.802  0.7686  0.3907  1.4199
13470TIP3    H261826   5.052   5.297  16.790  1.1165  0.0000 -3.4320
13471TIP3   OH261827   3.076   0.001  16.044 -0.1109 -0.6302  0.3923
13471TIP3    H161828   2.986  -0.021  16.020 -0.3263 -0.4293  0.9951
13471TIP3    H261829   3.068   0.043  16.130  0.5906 -0.9231  0.6061
13472TIP3   OH261830   4.258   3.805   2.645 -0.3569  0.2075 -0.1299
13472TIP3    H161831   4.188   3.803   2.710  0.1166  1.7448  0.4625
13472TIP3    H261832   4.269   3.897   2.623  1.9041  0.1098  0.2823
13473TIP3   OH261833   1.405   5.716  11.367  0.6902 -0.1547  0.5694
13473TIP3    H161834   1.437   5.673  11.287  0.6589 -0.1963  0.5787
13473TIP3    H261835   1.444   5.665  11.438  1.9589  0.8051  0.5921
13474TIP3   OH261836   0.751   4.015   0.227  0.1182 -0.0847  0.1951
13474TIP3    H161837   0.736   4.004   0.321  2.5022  0.3052  0.6889
13474TIP3    H261838   0.839   4.052   0.221 -0.8537  2.1536 -2.1123
13475TIP3   OH261839   1.683   2.193  16.757 -0.6763 -0.3701  0.1690
13475TIP3    H161840   1.736   2.212  16.680  1.4638 -1.8278  1.1848
13475TIP3    H261841   1.674   2.276  16.802  3.4963 -0.4284  1.5411
13476TIP3   OH261842   6.460   1.543  14.265  0.6238 -0.3037  0.6253
13476TIP3    H161843   6.416   1.467  14.303 -1.4193 -0.3953 -1.6641
13476TIP3    H261844   6.389   1.605  14.246  1.6910  0.3788 -1.4443
13477TIP3   OH261845   1.454   3.011   1.496 -0.0982  0.2901 -0.3978
13477TIP3    H161846   1.543   2.988   1.525 -0.5355 -0.2632  0.5598
13477TIP3    H261847   1.445   2.967   1.411 -0.5897 -2.4982  0.9776
13478TIP3   OH261848   2.956   6.349   4.143  0.6968  0.3520 -0.1639
13478TIP3    H161849   2.919   6.362   4.055 -0.2444 -1.8784 -0.1829
13478TIP3    H261850   2.889   6.385   4.202  0.3807  0.0348 -0.3207
13479TIP3   OH261851   2.823   5.522  13.957 -0.8418  0.0772 -0.4059
13479TIP3    H161852   2.810   5.616  13.945  1.9022  0.5034 -0.6464
13479TIP3    H261853   2.833   5.510  14.051 -1.6864 -0.0814 -0.3262
13480TIP3   OH261854   1.478   0.785  14.274 -0.2509  0.0475 -0.8737
13480TIP3    H161855   1.435   0.712  14.318  0.7652 -0.8491 -1.3183
13480TIP3    H261856   1.570   0.761  14.273  0.1062  1.3492 -1.0323
13481TIP3   OH261857   3.418   3.745  15.532  0.0490 -0.3222  0.3941
13481TIP3    H161858   3.355   3.782  15.593 -0.5542 -0.5428 -0.0831
13481TIP3    H261859   3.500   3.791  15.550 -0.3581  0.2776  0.7214
13482TIP3   OH261860   4.592   5.815  15.261  0.0909  0.3629 -0.4017
13482TIP3    H161861   4.570   5.905  15.236  2.8442  1.6009  1.0943
13482TIP3    H261862   4.667   5.793  15.205  0.2904 -0.4619  0.1810
13483TIP3   OH261863   1.465   1.215   0.533 -0.1584 -0.4180  0.9359
13483TIP3    H161864   1.396   1.249   0.476 -0.2061 -1.4177  0.3730
13483TIP3    H261865   1.419   1.188   0.613 -0.3583 -0.6360  0.7496
13484TIP3   OH261866   3.904   5.856   0.437 -0.9590  0.4983  0.9913
13484TIP3    H161867   3.951   5.881   0.517 -0.0490  2.0574  0.0202
13484TIP3    H261868   3.916   5.761   0.431  2.5804  0.8462  0.5408
13485TIP3   OH261869   0.910   0.613  14.924  0.2125  0.0550  0.4392
13485TIP3    H161870   0.826   0.581  14.890  0.1586 -0.2064  0.8101
13485TIP3    H261871   0.939   0.677  14.859 -0.4404  0.4055  0.4784
13486TIP3   OH261872   0.318   0.035  13.605 -0.0446  0.4361  0.2580
13486TIP3    H161873   0.389   0.099  13.615 -2.0567  2.9161 -0.3016
13486TIP3    H261874   0.247   0.070  13.658 -1.2270 -1.4091 -0.0416
13487TIP3   OH261875   3.641   2.634   5.350 -0.1375 -0.2457  0.7488
13487TIP3    H161876   3.549   2.613   5.363 -0.3819  0.2284 -0.1225
13487TIP3    H261877   3.666   2.683   5.429 -0.4326 -0.9820  1.3035
13488TIP3   OH261878   3.165   3.159   0.821  0.4797  0.0914  0.3607
13488TIP3    H161879   3.155   3.237   0.767  0.6927 -0.1781 -0.0803
13488TIP3    H261880   3.075   3.126   0.831  0.5921 -0.9938 -1.5761
13489TIP3   OH261881   4.368   3.934   4.713 -0.6007  0.7791  0.0025
13489TIP3    H161882   4.410   4.004   4.663 -0.6073  0.8887  0.1487
13489TIP3    H261883   4.390   3.854   4.665  1.3570  0.5999  1.0892
13490TIP3   OH261884   0.991   0.802   4.655  0.5578  0.0925  0.5145
13490TIP3    H161885   0.909   0.752   4.658  0.9793 -0.5626  1.6335
13490TIP3    H261886   1.019   0.796   4.563  0.2709 -1.2325  0.4893
13491TIP3   OH261887   1.029   2.337  13.033  0.0965  0.2205  0.6570
13491TIP3    H161888   1.002   2.375  13.116 -0.7275  4.2617 -1.2257
13491TIP3    H261889   1.104   2.391  13.005 -1.1611  0.6310 -2.2642
13492TIP3   OH261890   4.904   0.614  13.440 -0.0697  0.1708 -0.2967
13492TIP3    H161891   4.894   0.584  13.349 -0.8375  1.8349 -0.7946
13492TIP3    H261892   4.823   0.661  13.459 -0.9750 -2.0929  2.0966
13493TIP3   OH261893   3.218   0.960   3.001  0.5213 -0.1373 -0.1678
13493TIP3    H161894   3.235   1.040   2.952  0.8903  0.7665  1.3488
13493TIP3    H261895   3.123   0.963   3.018  0.7397  0.7359  1.0605
13494TIP3   OH261896   4.186   1.462   2.161  0.3289 -0.5368 -0.0619
13494TIP3    H161897   4.159   1.372   2.179  0.2679 -0.5292 -0.1180
13494TIP3    H261898   4.202   1.463   2.066  0.5816 -0.5581 -0.0218
13495TIP3   OH261899   1.800   3.031   5.611  0.2039  0.4115  0.1868
13495TIP3    H161900   1.756   3.040   5.695 -0.7341  1.1852 -0.3710
13495TIP3    H261901   1.879   3.084   5.618  0.1102  0.4978  0.5614
13496TIP3   OH261902   6.455   2.996   6.180 -0.4848 -0.5097 -0.4699
13496TIP3    H161903   6.392   3.067   6.163 -0.9539 -0.6868  0.4649
13496TIP3    H261904   6.487   2.972   6.093 -0.4487  0.7276 -0.8247
13497TIP3   OH261905   6.681   6.650  13.410  0.1179  0.4779  0.4804
13497TIP3    H161906   6.750   6.709  13.379 -0.5828  1.7077  1.1551
13497TIP3    H261907   6.728   6.577  13.450  1.0603  1.7080  1.7001
13498TIP3   OH261908   0.693   3.996   1.255  0.2615  0.0613  0.8677
13498TIP3    H161909   0.657   4.030   1.337 -1.2653 -0.9905  0.6927
13498TIP3    H261910   0.732   4.072   1.212  1.5851  0.5274  2.7859
13499TIP3   OH261911   5.641   2.627  16.973 -0.0159  0.6350 -0.1680
13499TIP3    H161912   5.720   2.603  16.924  0.8580 -1.0343  1.9072
13499TIP3    H261913   5.660   2.713  17.009  0.5844  0.5203 -0.2040
13500TIP3   OH261914   5.240   2.965   3.997 -0.6326 -0.0395 -0.3457
13500TIP3    H161915   5.165   3.020   4.020 -0.1554  0.4721  0.0272
13500TIP3    H261916   5.279   2.940   4.081  1.0391  1.7309 -0.5228
13501TIP3   OH261917   0.824   2.069   5.653  0.3403  0.2978  0.1114
13501TIP3    H161918   0.783   2.068   5.739  0.7674 -0.1833  0.3148
13501TIP3    H261919   0.879   2.147   5.653  0.4674  0.2089  0.3371
13502TIP3   OH261920   1.819   1.597   2.645 -0.3116  0.0351 -0.6835
13502TIP3    H161921   1.896   1.588   2.588  0.1774  1.5078 -0.2923
13502TIP3    H261922   1.851   1.573   2.732 -0.0366  1.4931 -0.3600
13503TIP3   OH261923   3.853   0.174  15.362  0.4912  0.5895  0.1978
13503TIP3    H161924   3.878   0.132  15.444 -0.4596 -0.6363 -0.1180
13503TIP3    H261925   3.780   0.122  15.329 -1.1489  2.8340  0.0646
13504TIP3   OH261926   1.656   2.396  17.015 -0.3717 -0.0446  0.5179
13504TIP3    H161927   1.613   2.455  17.078  0.3858  0.0965  0.9188
13504TIP3    H261928   1.688   2.324  17.069 -0.7602 -0.5255  0.1117
13505TIP3   OH261929   0.610   6.389  17.029 -0.2441 -0.2206  0.0945
13505TIP3    H161930   0.554   6.367  16.955 -0.3806 -0.2589  0.2098
13505TIP3    H261931   0.650   6.306  17.054 -1.8470 -0.6199  1.4349
13506TIP3   OH261932   0.352   1.453  12.145 -0.1133 -0.3392  0.3544
13506TIP3    H161933   0.402   1.496  12.214 -0.0744  0.7098 -0.3062
13506TIP3    H261934   0.289   1.398  12.191  1.1470 -1.1305  1.2045
13507TIP3   OH261935   2.729   4.157  12.675 -0.0086  0.1480 -0.7280
13507TIP3    H161936   2.706   4.247  12.651  2.3694  0.9953 -0.1142
13507TIP3    H261937   2.769   4.165  12.762  1.1582 -1.3574 -1.0862
13508TIP3   OH261938   3.852   1.520   1.112  0.1809  0.0175  0.4562
13508TIP3    H161939   3.930   1.470   1.086 -0.4390 -1.9454  2.0589
13508TIP3    H261940   3.883   1.609   1.123  1.4843 -0.0512 -1.9707
13509TIP3   OH261941   5.774   1.245   4.806 -0.4440  0.5834  0.2376
13509TIP3    H161942   5.750   1.305   4.736 -1.2079 -0.5955 -0.5357
13509TIP3    H261943   5.841   1.292   4.856 -0.2449  1.6397 -0.9775
13510TIP3   OH261944   2.768   5.745  15.574 -0.7532 -0.0994  0.2051
13510TIP3    H161945   2.769   5.799  15.495  1.7570 -3.1548 -2.0853
13510TIP3    H261946   2.840   5.779  15.627 -0.4235 -0.0005 -0.3008
13511TIP3   OH261947   2.706   6.667  16.682  0.1004 -0.0632 -0.4377
13511TIP3    H161948   2.632   6.723  16.658 -0.0013  0.3640  0.8230
13511TIP3    H261949   2.688   6.640  16.772  2.0410  1.0400  0.3566
13512TIP3   OH261950   2.110   6.027   1.442 -0.2849  0.7868 -0.2330
13512TIP3    H161951   2.122   6.120   1.422  0.9705  0.7354  0.1813
13512TIP3    H261952   2.195   5.987   1.424  0.7129  0.5454  3.8808
13513TIP3   OH261953   3.959   4.504   4.418  0.3151 -0.4803  0.0305
13513TIP3    H161954   3.965   4.549   4.502 -1.1542 -0.4977  0.1765
13513TIP3    H261955   4.034   4.536   4.368 -0.1909  1.4633  0.4500
13514TIP3   OH261956   1.647   6.559   2.834 -0.0377  0.8339  0.1460
13514TIP3    H161957   1.623   6.606   2.913 -1.5169 -1.0566  0.8974
13514TIP3    H261958   1.589   6.593   2.766  0.0064  1.1960  0.2899
13515TIP3   OH261959   5.618   1.214   3.049 -0.3402  0.6377 -0.3372
13515TIP3    H161960   5.604   1.166   3.130 -1.9319  0.5692 -0.6229
13515TIP3    H261961   5.710   1.199   3.027  0.2889  1.1561  1.7638
13516TIP3   OH261962   5.891   6.265   4.149 -0.3729 -0.4039  0.1173
13516TIP3    H161963   5.977   6.306   4.163 -0.6962  0.2567  0.2185
13516TIP3    H261964   5.902   6.213   4.070 -0.0635  0.2040 -0.2461
13517TIP3   OH261965   4.855   3.449   2.541 -0.0621  0.0318  0.5653
13517TIP3    H161966   4.818   3.479   2.458  1.5658 -0.9372 -0.5769
13517TIP3    H261967   4.949   3.460   2.530  0.1521  0.4575  2.5561
13518TIP3   OH261968   6.656   3.800   3.077  0.5264  0.1215  0.6090
13518TIP3    H161969   6.707   3.721   3.097  0.6558  0.3596  1.2479
13518TIP3    H261970   6.600   3.812   3.153 -0.4502 -0.0931 -0.0655
13519TIP3   OH261971   5.590   5.903  17.052 -0.7146 -0.6250 -0.4449
13519TIP3    H161972   5.671   5.865  17.016 -0.1548  2.5390 -2.8947
13519TIP3    H261973   5.573   5.980  16.998 -3.6699  0.6403  2.0129
13520TIP3   OH261974   4.234   6.373   1.402  0.3152 -0.0823  0.0640
13520TIP3    H161975   4.290   6.321   1.344 -0.1087  0.5348 -0.9330
13520TIP3    H261976   4.231   6.460   1.361  2.0635  1.1765  2.3572
13521TIP3   OH261977   1.750   4.352  13.979  0.5145 -0.5081 -0.2044
13521TIP3    H161978   1.837   4.378  13.948  1.8222 -2.4322  1.5816
13521TIP3    H261979   1.767   4.291  14.050 -2.3386 -1.3961 -0.1541
13522TIP3   OH261980   1.709   0.710  11.675  0.4392 -0.0250 -0.0493
13522TIP3    H161981   1.701   0.618  11.697 -0.6025  0.0304 -0.1583
13522TIP3    H261982   1.733   0.753  11.757  0.8215 -0.3712  0.0225
13523TIP3   OH261983   6.534   1.666  11.477  0.1106  0.4325  0.0446
13523TIP3    H161984   6.479   1.712  11.542  2.0036  0.7930  1.4755
13523TIP3    H261985   6.560   1.585  11.521  0.3703  0.0469 -0.8026
13524TIP3   OH261986   4.032   1.418  14.720  0.2383  0.8693 -0.1851
13524TIP3    H161987   4.009   1.448  14.808 -1.0060  0.8514 -0.4821
13524TIP3    H261988   3.990   1.333  14.712 -0.2154  1.1599 -1.0205
13525TIP3   OH261989   1.675   6.523   6.010 -0.1175 -0.5423  0.5455
13525TIP3    H161990   1.614   6.513   6.083 -0.2111 -0.4951  0.4728
13525TIP3    H261991   1.670   6.441   5.962 -0.2780 -0.4597  0.4200
13526TIP3   OH261992   1.102   3.374  13.439 -0.1081 -0.3175  0.2510
13526TIP3    H161993   1.032   3.328  13.392  0.1346  0.3221 -0.7686
13526TIP3    H261994   1.110   3.458  13.393  0.5923  0.0597  1.0419
13527TIP3   OH261995   2.891   1.690  17.251 -0.2405  0.0331  0.3511
13527TIP3    H161996   2.855   1.645  17.327 -0.9389  0.7639  0.4661
13527TIP3    H261997   2.971   1.730  17.282 -0.5068  0.3012  0.6964
13528TIP3   OH261998   1.757   0.003  16.450 -0.0357 -0.2016  0.2206
13528TIP3    H161999   1.706   0.057  16.511 -1.3764 -0.9352 -0.2104
13528TIP3    H262000   1.718  -0.084  16.457  1.1833 -0.8001 -0.1284
13529TIP3   OH262001   1.509   5.701   2.513 -0.0039  0.0934  0.1695
13529TIP3    H162002   1.495   5.717   2.606  0.4324  3.8823 -0.2303
13529TIP3    H262003   1.460   5.771   2.469  0.3060 -1.1829 -2.4256
13530TIP3   OH262004   5.242   5.706  10.973 -0.3532 -0.2895  0.5163
13530TIP3    H162005   5.317   5.650  10.954 -0.7911 -0.3057 -1.3402
13530TIP3    H262006   5.274   5.795  10.958 -0.9629 -0.3530 -1.4645
13531TIP3   OH262007   2.742   0.801   1.459  0.1774  0.4730  0.5885
13531TIP3    H162008   2.823   0.763   1.426  0.8603  0.4697  2.1976
13531TIP3    H262009   2.761   0.824   1.550 -2.1609 -1.2734  1.6301
13532TIP3   OH262010   0.482   5.127  12.064 -0.1567  0.1278 -0.0416
13532TIP3    H162011   0.438   5.070  12.127 -0.3414 -0.1887 -0.4533
13532TIP3    H262012   0.421   5.200  12.051 -0.2927 -0.0058 -0.1540
13533TIP3   OH262013   3.249   3.404   5.166 -0.7260 -0.7659 -0.6331
13533TIP3    H162014   3.213   3.374   5.083 -0.5694 -2.2443 -0.2011
13533TIP3    H262015   3.332   3.357   5.174 -0.7532 -0.6652  0.3568
13534TIP3   OH262016   4.465   2.757  14.823 -0.2288 -0.1850  0.1036
13534TIP3    H162017   4.425   2.713  14.748  2.5595 -0.0096 -1.6595
13534TIP3    H262018   4.541   2.703  14.844  2.7764  3.0456 -1.5200
13535TIP3   OH262019   2.900   2.949  14.988  0.1963  0.2064  0.1518
13535TIP3    H162020   2.854   2.879  15.033  0.7868 -0.4133 -0.1891
13535TIP3    H262021   2.833   2.989  14.932 -0.4152  0.6608  1.1827
13536TIP3   OH262022   5.250   6.650  12.262  0.5191 -0.0920 -0.2247
13536TIP3    H162023   5.222   6.559  12.248 -1.7953  0.6065 -0.4131
13536TIP3    H262024   5.293   6.648  12.348 -1.1181 -1.0564  0.6250
13537TIP3   OH262025   2.219   3.543  16.670  0.1716  0.2256 -0.1740
13537TIP3    H162026   2.183   3.621  16.628  0.2451  1.2115  1.4990
13537TIP3    H262027   2.220   3.477  16.601 -0.6245  1.4712 -1.4348
13538TIP3   OH262028   0.422   1.498  14.832 -0.4257 -0.5284  0.4279
13538TIP3    H162029   0.466   1.436  14.890  0.1211 -1.1550 -0.6174
13538TIP3    H262030   0.490   1.528  14.772 -1.1626 -0.6318 -0.4930
13539TIP3   OH262031   3.325   4.547  16.737  0.5420  0.2006 -0.0107
13539TIP3    H162032   3.303   4.640  16.730  0.6538  0.1737 -0.8362
13539TIP3    H262033   3.417   4.543  16.711  0.4426 -0.1855 -0.3068
13540TIP3   OH262034   0.705   2.958  13.945  0.1459  0.4004  0.3782
13540TIP3    H162035   0.750   3.040  13.963 -0.3035  0.4954  1.0825
13540TIP3    H262036   0.766   2.910  13.888 -0.4400  2.0168 -1.7068
13541TIP3   OH262037   3.362   1.443   3.792 -1.0665  0.0873 -0.0476
13541TIP3    H162038   3.311   1.468   3.869  1.4189 -0.0727  1.7938
13541TIP3    H262039   3.373   1.348   3.801  0.0649  0.2115 -0.0453
13542TIP3   OH262040   6.581   2.672  13.846 -0.3017 -0.1048  0.2239
13542TIP3    H162041   6.662   2.690  13.798 -1.5076 -0.4354 -2.0888
13542TIP3    H262042   6.534   2.756  13.845 -1.1494 -0.5643 -0.8974
13543TIP3   OH262043   6.179   3.087   2.924  0.2279 -0.1011 -0.1183
13543TIP3    H162044   6.238   3.142   2.872  2.0910 -1.4528  0.4591
13543TIP3    H262045   6.224   3.078   3.009 -0.4941 -1.6854  0.1212
13544TIP3   OH262046   2.398   1.739   2.013 -0.3511  0.5118 -0.0873
13544TIP3    H162047   2.435   1.740   2.101 -1.3187  1.2687  0.3201
13544TIP3    H262048   2.423   1.823   1.975 -2.9696  1.8002  0.7950
13545TIP3   OH262049   5.125   4.270   3.371  0.4967  0.1510 -0.1629
13545TIP3    H162050   5.047   4.234   3.413 -0.5038 -0.1649 -2.2069
13545TIP3    H262051   5.181   4.194   3.356  1.6111  0.4730  2.0025
13546TIP3   OH262052   1.631   5.254   1.544 -0.3558  0.9152  0.2529
13546TIP3    H162053   1.701   5.190   1.549 -0.4103  0.8915  0.8984
13546TIP3    H262054   1.638   5.292   1.457 -1.6988 -1.5357 -1.0486
13547TIP3   OH262055   3.509   1.410   0.344 -0.0370  0.4157  0.1504
13547TIP3    H162056   3.510   1.340   0.409 -0.1515 -0.3868 -0.6966
13547TIP3    H262057   3.420   1.411   0.311  0.6450 -1.0672 -1.9538
13548TIP3   OH262058   1.069   5.284   1.028 -0.3571 -0.2263 -0.5379
13548TIP3    H162059   1.059   5.331   0.946 -1.6304 -1.5150 -1.1753
13548TIP3    H262060   1.029   5.341   1.094 -0.7533  0.1266 -1.0784
13549TIP3   OH262061   5.275   4.945  12.488 -0.2459 -0.0529 -0.6130
13549TIP3    H162062   5.231   4.876  12.539  1.9400 -1.5095 -0.5915
13549TIP3    H262063   5.335   4.986  12.550 -0.0283  0.4726 -1.1656
13550TIP3   OH262064   4.283   5.776   6.126 -0.5121 -0.2711  0.0967
13550TIP3    H162065   4.263   5.785   6.219 -1.4869  0.6927 -0.1900
13550TIP3    H262066   4.197   5.781   6.082  0.0449  0.6881 -0.9416
13551TIP3   OH262067   4.852   6.703  12.035  0.4562  0.6740 -0.4886
13551TIP3    H162068   4.789   6.631  12.037 -0.1875  1.2313 -0.7155
13551TIP3    H262069   4.867   6.719  11.942 -0.6545  1.9215 -0.4713
13552TIP3   OH262070   3.079   0.556   5.213 -0.0126  0.2725 -0.1466
13552TIP3    H162071   3.045   0.507   5.287 -0.3754 -1.2554 -1.2715
13552TIP3    H262072   3.158   0.509   5.188 -0.1518  0.4796 -1.0019
13553TIP3   OH262073   0.390   2.831  14.454  0.4973 -0.1065  0.0630
13553TIP3    H162074   0.459   2.783  14.499  0.0289 -0.1030  0.8071
13553TIP3    H262075   0.427   2.854  14.370  0.6090 -2.1493 -0.4985
13554TIP3   OH262076   6.027   0.777   3.880  0.1627  0.1092 -0.3590
13554TIP3    H162077   6.119   0.774   3.907  0.2085  0.8930 -0.3977
13554TIP3    H262078   6.031   0.790   3.785  0.0640  2.9245 -0.0537
13555TIP3   OH262079   1.625   0.711   4.254  0.4861 -0.4691 -0.0315
13555TIP3    H162080   1.651   0.656   4.328  1.8991  3.5344  2.8022
13555TIP3    H262081   1.688   0.783   4.253 -1.6855  1.6761 -2.7944
13556TIP3   OH262082   1.007   4.238   5.548 -0.1175 -0.0521  0.1027
13556TIP3    H162083   1.091   4.196   5.564 -0.6145 -1.6234 -1.1167
13556TIP3    H262084   0.946   4.190   5.604 -0.3928  0.3593  0.1634
13557TIP3   OH262085   4.057   4.600   1.168  0.3134  0.2095 -0.5072
13557TIP3    H162086   4.116   4.569   1.100  1.2237 -0.2529  0.4640
13557TIP3    H262087   4.093   4.565   1.250 -1.0785  0.2532  0.1594
13558TIP3   OH262088   5.009   4.472   0.314 -0.1663 -0.6241  0.4993
13558TIP3    H162089   4.915   4.490   0.309 -0.3300 -1.1960  1.3076
13558TIP3    H262090   5.040   4.525   0.387 -0.1928 -1.7118  1.3230
13559TIP3   OH262091   0.443   3.948  16.692  0.0253  0.5761 -0.0415
13559TIP3    H162092   0.382   4.005  16.739  1.6989  1.8004  0.7368
13559TIP3    H262093   0.443   3.981  16.602 -0.6592  0.3764 -0.1201
13560TIP3   OH262094   0.687   5.337   6.080  0.3127 -0.6986 -0.0658
13560TIP3    H162095   0.763   5.343   6.021 -0.1488 -1.8622 -0.8051
13560TIP3    H262096   0.668   5.244   6.085 -2.3581 -0.3384 -1.5958
13561TIP3   OH262097   0.024   1.864   6.167  0.6228 -0.2827  0.2491
13561TIP3    H162098  -0.055   1.810   6.163  1.4784 -1.6897  1.4697
13561TIP3    H262099   0.002   1.934   6.228  0.5987 -1.2140  1.3497
13562TIP3   OH262100   4.007   4.573   2.646 -0.5876  0.4880 -0.3357
13562TIP3    H162101   3.941   4.621   2.696  0.0594  0.6222  0.4154
13562TIP3    H262102   3.975   4.483   2.643 -1.1633  0.6963 -0.6199
13563TIP3   OH262103   2.238   0.627  11.563 -0.5813  0.6119 -0.0374
13563TIP3    H162104   2.271   0.591  11.481 -1.1391 -0.0005  0.0000
13563TIP3    H262105   2.311   0.678  11.598 -0.3517  0.9108 -0.9298
13564TIP3   OH262106   1.349   4.565   1.621 -0.5959 -0.4778  0.2945
13564TIP3    H162107   1.426   4.561   1.564 -1.3735 -2.1789 -0.7192
13564TIP3    H262108   1.300   4.642   1.590  0.4961  0.4331  0.7476
13565TIP3   OH262109   4.538   5.567  16.845  0.1518  0.2469 -0.3717
13565TIP3    H162110   4.522   5.638  16.782 -0.9869  0.6563  0.3643
13565TIP3    H262111   4.623   5.589  16.883 -0.8168  2.0954  0.9232
13566TIP3   OH262112   2.549   5.569   1.677 -0.4770 -0.4037  0.3574
13566TIP3    H162113   2.641   5.581   1.703 -0.3435  0.8545 -0.6022
13566TIP3    H262114   2.505   5.647   1.710 -0.4423  0.8814 -2.3831
13567TIP3   OH262115   3.811   1.468   1.409  0.8248  0.1916 -0.0145
13567TIP3    H162116   3.743   1.535   1.422  0.6846  0.2093 -0.7836
13567TIP3    H262117   3.819   1.460   1.314  1.8769  0.1513  0.0664
13568TIP3   OH262118   1.703   0.589   5.643 -0.6162 -0.2213  0.7052
13568TIP3    H162119   1.767   0.522   5.666  0.0234 -0.6579 -2.0729
13568TIP3    H262120   1.644   0.547   5.581 -0.3122  1.6759 -0.9766
13569TIP3   OH262121   6.177   4.946   2.922 -0.4448  0.6427 -0.8096
13569TIP3    H162122   6.108   4.897   2.879 -0.6721  2.0608 -2.1694
13569TIP3    H262123   6.137   4.980   3.002 -0.3424 -1.1421  0.0271
13570TIP3   OH262124   4.274   3.115   1.279 -0.5654 -0.5279  0.5971
13570TIP3    H162125   4.179   3.124   1.278 -0.7236 -1.2471  3.0712
13570TIP3    H262126   4.296   3.102   1.372  2.1774  2.0854  0.4637
13571TIP3   OH262127   5.752   4.264  14.316 -0.0062 -0.1125 -0.0310
13571TIP3    H162128   5.747   4.359  14.302  1.0244 -0.1730 -0.9483
13571TIP3    H262129   5.685   4.228  14.258 -0.3400  0.0505  0.2529
13572TIP3   OH262130   2.899   2.654  15.597 -0.2025 -0.5300 -0.5516
13572TIP3    H162131   2.952   2.716  15.647 -2.7366  1.1678  0.2041
13572TIP3    H262132   2.957   2.579  15.583  1.2644 -0.3422  3.3329
13573TIP3   OH262133   0.662   6.489  14.276  0.0935  0.0194  0.4026
13573TIP3    H162134   0.610   6.517  14.201  1.5140 -0.7544 -0.9328
13573TIP3    H262135   0.661   6.393  14.272 -2.5748 -0.2223  3.3983
13574TIP3   OH262136   0.448   2.152  12.496  0.2728  0.5040 -0.1462
13574TIP3    H162137   0.454   2.246  12.479 -1.3626  0.4275 -1.2602
13574TIP3    H262138   0.505   2.139  12.572 -0.3161  2.5690  0.7217
13575TIP3   OH262139   6.491   5.069   3.402 -0.2161 -0.1288 -0.2823
13575TIP3    H162140   6.543   5.149   3.399  0.1160 -0.2587  1.1525
13575TIP3    H262141   6.418   5.089   3.460 -1.1622 -0.3052 -1.3843
13576TIP3   OH262142   1.108   0.074   3.455 -0.3051 -0.3805 -0.6315
13576TIP3    H162143   1.024   0.058   3.413 -1.6256  1.4280  1.1643
13576TIP3    H262144   1.119   0.169   3.452 -0.2144 -0.2009  2.5451
13577TIP3   OH262145   1.428   4.074  16.137 -0.2179 -0.2976 -0.1334
13577TIP3    H162146   1.388   4.147  16.184  0.5317 -0.5931  1.0101
13577TIP3    H262147   1.417   4.096  16.044 -0.9041  0.7597  0.1802
13578TIP3   OH262148   0.724   2.366   5.257  0.0282 -0.5475  0.3871
13578TIP3    H162149   0.706   2.289   5.310 -2.4144  0.2979  0.9193
13578TIP3    H262150   0.767   2.427   5.317 -2.2444  0.2036  1.3236
13579TIP3   OH262151   2.516   0.430  15.884  0.0018  0.0598  0.1277
13579TIP3    H162152   2.428   0.398  15.904  0.0367  0.7885  1.5411
13579TIP3    H262153   2.574   0.374  15.936  0.2674  0.4968  0.3032
13580TIP3   OH262154   2.614   5.329   5.937 -0.1471  0.0745 -0.0455
13580TIP3    H162155   2.667   5.249   5.939 -0.6567 -0.2600  0.6957
13580TIP3    H262156   2.648   5.381   6.010 -0.8835 -0.1828  0.4954
13581TIP3   OH262157   3.453   6.438  11.778  0.1484 -0.7118 -0.0492
13581TIP3    H162158   3.485   6.443  11.688 -1.0201  2.2697 -0.3835
13581TIP3    H262159   3.528   6.464  11.831  0.0168  0.4199 -0.3970
13582TIP3   OH262160   6.627   4.324   4.377  0.6397  0.4452  0.0289
13582TIP3    H162161   6.648   4.351   4.288 -0.3954  2.8809  0.4345
13582TIP3    H262162   6.534   4.301   4.373  0.7029  0.1310  0.3841
13583TIP3   OH262163   4.821   1.704  13.821  0.2325  0.0367  0.2768
13583TIP3    H162164   4.835   1.665  13.735 -0.4358 -0.3199  0.3269
13583TIP3    H262165   4.745   1.658  13.857 -0.8164  1.6141  0.1836
13584TIP3   OH262166   2.995   1.423   5.058 -0.5794  0.2408  1.0332
13584TIP3    H162167   3.007   1.436   4.964 -0.0209 -0.2111  1.0367
13584TIP3    H262168   3.036   1.338   5.076 -0.4235  0.4610  1.7326
13585TIP3   OH262169   2.110   4.587   5.640  0.5485  0.4879  0.0537
13585TIP3    H162170   2.041   4.636   5.595 -0.7061  0.8572  2.2353
13585TIP3    H262171   2.173   4.653   5.667 -0.8354  0.9482  2.4520
13586TIP3   OH262172   2.407   6.456   0.126  0.0192 -0.0689  0.0697
13586TIP3    H162173   2.489   6.504   0.139  0.1662  0.4154 -2.1997
13586TIP3    H262174   2.341   6.506   0.175  0.2420  2.3086 -1.8593
13587TIP3   OH262175   0.639   1.126   5.627 -0.0519  0.2421  0.4218
13587TIP3    H162176   0.656   1.200   5.568  1.7886  0.0642  0.6568
13587TIP3    H262177   0.662   1.160   5.714 -0.2274 -0.2738  0.6731
13588TIP3   OH262178   0.991   2.244  10.611  0.4093  0.4695  0.1837
13588TIP3    H162179   1.050   2.305  10.656  1.6058 -1.3056  1.1254
13588TIP3    H262180   0.991   2.274  10.520  0.8061  1.9709  0.6560
13589TIP3   OH262181   3.844   5.754   4.580 -0.7770  0.0351  0.1653
13589TIP3    H162182   3.919   5.756   4.520 -0.2854 -0.9979  0.7206
13589TIP3    H262183   3.806   5.666   4.567 -1.8399  0.5050 -0.0349
13590TIP3   OH262184   4.553   2.582   1.826  0.0519  0.7780  0.1138
13590TIP3    H162185   4.565   2.488   1.828  0.4263  0.8205 -0.0797
13590TIP3    H262186   4.473   2.598   1.877  0.0114  0.3641  0.1762
13591TIP3   OH262187   2.292   0.925   1.400 -0.4788  0.1756  0.6392
13591TIP3    H162188   2.262   0.967   1.481 -0.5979  0.4284  0.4661
13591TIP3    H262189   2.380   0.961   1.387 -0.1235 -0.4953  1.0973
13592TIP3   OH262190   1.435   1.604  13.514 -0.3434 -0.0490 -0.4880
13592TIP3    H162191   1.342   1.624  13.514  0.2726  3.4919 -1.1398
13592TIP3    H262192   1.444   1.532  13.452 -2.5173  0.4639 -1.4993
13593TIP3   OH262193   4.545   4.513  13.519 -0.2892 -0.0100  0.1080
13593TIP3    H162194   4.560   4.528  13.425 -0.2114  1.1884  0.2860
13593TIP3    H262195   4.463   4.559  13.537  0.0651  0.3880  0.7625
13594TIP3   OH262196   6.272   3.760   6.235  0.6121 -0.2168 -0.0042
13594TIP3    H162197   6.306   3.682   6.279 -0.2181 -1.4635 -1.4989
13594TIP3    H262198   6.337   3.828   6.254  1.6999 -1.4266  0.7758
13595TIP3   OH262199   5.253   2.049   0.526  0.3694 -0.1364  0.5394
13595TIP3    H162200   5.201   2.004   0.593  1.0767 -0.3472  0.9622
13595TIP3    H262201   5.190   2.103   0.479 -0.2373 -0.4138  1.0170
13596TIP3   OH262202   6.318   3.330   5.749  0.0038  0.5775 -0.1675
13596TIP3    H162203   6.329   3.292   5.662  0.2088 -0.0797  0.1362
13596TIP3    H262204   6.224   3.342   5.760 -0.0197  0.6675 -0.4840
13597TIP3   OH262205   3.810   6.097   4.130  0.3829  0.4643 -0.2232
13597TIP3    H162206   3.845   6.147   4.204  0.6862 -1.1925  0.8056
13597TIP3    H262207   3.846   6.140   4.053  0.2302  2.1171  0.5773
13598TIP3   OH262208   3.882   5.599  16.068 -0.2042  0.0321 -0.0015
13598TIP3    H162209   3.872   5.564  16.156 -1.1529 -0.9604 -0.4861
13598TIP3    H262210   3.796   5.637  16.047  0.3487  1.2902 -0.0782
13599TIP3   OH262211   4.924   2.466   3.228 -0.0409  0.5039 -0.1066
13599TIP3    H162212   4.937   2.507   3.142 -0.7588  1.2169  0.1064
13599TIP3    H262213   5.009   2.472   3.271  0.5212 -0.4993 -1.0186
13600TIP3   OH262214   5.143   3.817  14.074 -0.1084 -0.0654  0.2151
13600TIP3    H162215   5.216   3.766  14.109 -0.6005  0.9116  2.9527
13600TIP3    H262216   5.182   3.870  14.004  1.4329 -0.7348  0.5308
13601TIP3   OH262217   1.888   5.146   0.857  0.5509  0.7319 -0.3267
13601TIP3    H162218   1.839   5.223   0.827 -1.6934 -0.0646  1.0012
13601TIP3    H262219   1.912   5.167   0.947  2.2193  0.8569 -0.7724
13602TIP3   OH262220   6.249   0.588  13.073  0.2794 -0.1335 -0.1469
13602TIP3    H162221   6.217   0.677  13.060  0.1599 -0.1660 -0.0785
13602TIP3    H262222   6.263   0.582  13.167  1.4012  0.1918 -0.2856
13603TIP3   OH262223   3.018   6.605  14.616  0.1995 -0.0970  0.1849
13603TIP3    H162224   3.066   6.688  14.611 -0.7089  0.4106 -0.4932
13603TIP3    H262225   2.931   6.626  14.583  0.1531 -1.4803 -0.6669
13604TIP3   OH262226   6.228   0.940   4.667 -0.0000 -0.4596 -0.5570
13604TIP3    H162227   6.262   1.029   4.673 -1.1243 -0.0193 -0.3978
13604TIP3    H262228   6.179   0.928   4.748 -1.2392 -0.6065 -1.3002
13605TIP3   OH262229   0.574   4.556   2.490  0.4862 -0.3165  0.0832
13605TIP3    H162230   0.604   4.606   2.566  0.0402  0.6195 -0.3296
13605TIP3    H262231   0.481   4.541   2.507  0.5625 -0.7900  0.0859
13606TIP3   OH262232   4.110   4.501   4.093 -0.6544 -0.2371  0.3665
13606TIP3    H162233   4.133   4.523   4.183  0.1469 -0.1430  0.1541
13606TIP3    H262234   4.015   4.496   4.092 -0.6424 -1.0295  1.4023
13607TIP3   OH262235   1.095   0.507  14.287  0.0260  0.2292 -0.2613
13607TIP3    H162236   1.017   0.560  14.305 -0.1577 -0.0673 -0.1748
13607TIP3    H262237   1.060   0.420  14.267  0.2217  0.4730 -1.8248
13608TIP3   OH262238   3.561   5.725  16.126  0.4519 -0.3712 -0.4004
13608TIP3    H162239   3.485   5.771  16.092  2.2566  2.0891 -1.3733
13608TIP3    H262240   3.542   5.711  16.219 -2.0734 -1.8721 -1.0643
13609TIP3   OH262241   2.077   5.435  16.740  0.2851 -0.1764 -0.3494
13609TIP3    H162242   2.055   5.360  16.796  0.1442 -1.0764 -1.5795
13609TIP3    H262243   2.170   5.451  16.757  0.3551 -0.7334 -0.1892
13610TIP3   OH262244   5.068   5.283   3.398  0.2320  0.2451 -0.1265
13610TIP3    H162245   5.150   5.268   3.445  0.8251 -0.6624 -1.3913
13610TIP3    H262246   5.095   5.326   3.317 -0.8604  2.6282  0.6817
13611TIP3   OH262247   4.733   4.918  11.661  0.1026  0.1944 -0.5828
13611TIP3    H162248   4.806   4.862  11.685  0.6041 -0.5800 -3.5489
13611TIP3    H262249   4.774   4.998  11.628 -0.5697  1.6165  1.7946
13612TIP3   OH262250   1.097   1.682   4.181  0.5194  0.0573 -0.1771
13612TIP3    H162251   1.125   1.602   4.226  0.9536  0.3053 -0.0040
13612TIP3    H262252   1.123   1.668   4.090 -0.9214 -0.7118 -0.5029
13613TIP3   OH262253   4.378   5.984  12.529 -0.1436 -0.2914 -0.0666
13613TIP3    H162254   4.309   6.036  12.487 -0.6211 -1.1052 -0.3136
13613TIP3    H262255   4.374   5.900  12.485  1.5627 -0.1069 -0.6397
13614TIP3   OH262256   2.948   5.049   3.261  0.1179 -0.0285  0.0945
13614TIP3    H162257   2.871   5.052   3.204  1.0132  2.4828 -1.1580
13614TIP3    H262258   2.973   4.956   3.264 -2.6663 -0.8540  0.2372
13615TIP3   OH262259   4.565   3.299   1.425 -0.3218  0.4079  0.1370
13615TIP3    H162260   4.626   3.267   1.491  0.8576  1.2683 -0.5059
13615TIP3    H262261   4.490   3.331   1.475  1.0176  2.1017  1.1691
13616TIP3   OH262262   1.732   3.833   1.354  0.1199 -0.5998 -0.3906
13616TIP3    H162263   1.769   3.922   1.355  0.3408 -0.6845  0.9328
13616TIP3    H262264   1.659   3.837   1.416 -0.0450 -1.2765 -0.5375
13617TIP3   OH262265   0.100   3.753  16.102  0.1706  0.1669  0.6303
13617TIP3    H162266   0.118   3.688  16.034  0.0861 -0.3192  1.0680
13617TIP3    H262267   0.184   3.768  16.145  0.4340  1.1890 -0.1854
13618TIP3   OH262268   5.590   2.962  15.979 -0.1701  0.6368  0.4569
13618TIP3    H162269   5.563   2.987  15.890 -1.3862  1.6753  1.0824
13618TIP3    H262270   5.590   2.866  15.978 -0.8104  0.6341 -0.4874
13619TIP3   OH262271   0.134   1.644  15.941  0.0051 -0.1994 -0.3122
13619TIP3    H162272   0.175   1.559  15.954 -0.1100 -0.0781  0.8755
13619TIP3    H262273   0.193   1.707  15.983 -0.9102  0.0733  0.6128
13620TIP3   OH262274   3.083   1.644   3.197 -0.2625  0.0275 -0.4416
13620TIP3    H162275   3.178   1.630   3.193 -0.1901  0.2744  0.2811
13620TIP3    H262276   3.073   1.739   3.206 -0.4639 -0.1676  1.9779
13621TIP3   OH262277   4.426   5.138   2.995 -0.6479 -0.7646 -0.1023
13621TIP3    H162278   4.413   5.043   3.005 -1.8318 -0.5844  0.2216
13621TIP3    H262279   4.472   5.164   3.075 -0.9710 -0.9687  0.1593
13622TIP3   OH262280   0.312   1.313   5.497  0.0943  0.2118  0.7843
13622TIP3    H162281   0.247   1.315   5.568  1.1967 -0.5038  1.8570
13622TIP3    H262282   0.386   1.364   5.531  1.5285 -1.9613  1.1027
13623TIP3   OH262283   6.586   6.177  13.781  0.3584 -0.2461  0.6558
13623TIP3    H162284   6.529   6.237  13.829  1.9855 -0.0096  2.4425
13623TIP3    H262285   6.578   6.203  13.690 -2.3649 -0.2731  0.8254
13624TIP3   OH262286   5.717   4.187   4.102 -0.8656 -0.3880  0.4867
13624TIP3    H162287   5.792   4.228   4.146 -0.9510 -0.0741  0.3370
13624TIP3    H262288   5.651   4.256   4.098 -0.8148 -0.3774 -0.2555
13625TIP3   OH262289   0.356   0.633   4.192 -0.2981 -0.3812  0.1154
13625TIP3    H162290   0.398   0.614   4.108  0.1559 -0.9866  0.4681
13625TIP3    H262291   0.281   0.574   4.196 -1.0721  0.5431 -0.4155
13626TIP3   OH262292   3.415   6.571   0.562 -0.4234  0.0254 -0.2086
13626TIP3    H162293   3.504   6.536   0.570 -0.6500 -0.1813  1.9215
13626TIP3    H262294   3.388   6.547   0.473  0.8291 -1.8953 -0.1358
13627TIP3   OH262295   1.198   1.831   4.872 -0.7916  0.2019  1.2191
13627TIP3    H162296   1.126   1.768   4.864  1.8436 -2.8289 -1.6405
13627TIP3    H262297   1.230   1.819   4.961 -1.9423 -0.5439  1.5625
13628TIP3   OH262298   2.365   0.873  16.692 -0.1266  0.3781 -0.0038
13628TIP3    H162299   2.390   0.780  16.699  0.6818  0.6060  0.2074
13628TIP3    H262300   2.422   0.918  16.754 -1.0192  0.9401  0.4397
13629TIP3   OH262301   1.406   4.984  11.301  0.0130 -0.9741 -0.5954
13629TIP3    H162302   1.465   4.921  11.343 -0.2467 -0.1973  1.0095
13629TIP3    H262303   1.463   5.036  11.245  1.1585  0.4879  1.7463
13630TIP3   OH262304   1.822   2.278   0.320  0.4803 -0.2125 -0.6533
13630TIP3    H162305   1.891   2.337   0.289 -0.0629  0.8865  0.1464
13630TIP3    H262306   1.869   2.210   0.368  1.1431 -0.6041 -1.8283
13631TIP3   OH262307   2.894   1.154  11.041  0.0351  0.2747 -0.1689
13631TIP3    H162308   2.826   1.089  11.025 -0.0577  0.2719  0.2391
13631TIP3    H262309   2.848   1.230  11.074  0.2956  0.0124  0.8481
13632TIP3   OH262310   5.583   3.438  13.159  0.2154 -0.2248  0.1708
13632TIP3    H162311   5.534   3.461  13.080  1.1132 -0.7404 -0.5440
13632TIP3    H262312   5.522   3.458  13.231 -1.3907 -1.6252 -0.7133
13633TIP3   OH262313   3.214   5.802  16.458  0.2340 -0.9956 -0.8928
13633TIP3    H162314   3.236   5.830  16.547 -3.3134 -1.7979  0.4090
13633TIP3    H262315   3.215   5.706  16.463 -0.5608 -1.0443 -1.5343
13634TIP3   OH262316   6.228   6.475   3.790 -0.2940  0.2975  0.2530
13634TIP3    H162317   6.240   6.465   3.884  0.2727 -0.3413  0.1199
13634TIP3    H262318   6.305   6.524   3.761  0.8572 -1.6940 -0.2365
13635TIP3   OH262319   6.266   3.397  12.809 -0.2524 -0.0942  0.3109
13635TIP3    H162320   6.351   3.353  12.815  1.1666  2.5757  0.8627
13635TIP3    H262321   6.228   3.387  12.896 -0.0038 -0.3275  0.3946
13636TIP3   OH262322   4.907   4.499   3.967  1.0212 -0.3061  0.7445
13636TIP3    H162323   4.829   4.526   3.919  1.5627  1.5167  0.7980
13636TIP3    H262324   4.977   4.501   3.902  1.2648 -0.6521  0.9905
13637TIP3   OH262325   0.429   4.446   1.851 -0.1412  0.1167 -0.4498
13637TIP3    H162326   0.434   4.454   1.756  3.0692 -1.5573 -0.5427
13637TIP3    H262327   0.518   4.461   1.882 -0.8221 -0.6755  2.2052
13638TIP3   OH262328   2.055   1.780   3.686 -0.2737 -0.4118  0.2792
13638TIP3    H162329   2.149   1.780   3.667 -0.1232 -0.4365  0.9936
13638TIP3    H262330   2.014   1.804   3.603  0.4246  0.6879  0.2285
13639TIP3   OH262331   3.983   2.238   3.570  0.2201 -0.1622  0.2552
13639TIP3    H162332   3.891   2.228   3.548 -0.1679  2.0242  0.6140
13639TIP3    H262333   4.000   2.171   3.636 -1.3224 -0.1057  0.7506
13640TIP3   OH262334   1.231   1.696   4.573 -0.3977  0.2967 -0.6036
13640TIP3    H162335   1.181   1.645   4.637 -1.4174  1.3795 -0.5104
13640TIP3    H262336   1.310   1.644   4.558 -1.4075 -1.3207 -0.5450
13641TIP3   OH262337   2.622   4.845  16.967 -0.2610 -0.5242  0.4636
13641TIP3    H162338   2.576   4.762  16.978 -1.7430  0.1510 -0.2462
13641TIP3    H262339   2.624   4.859  16.873  0.6047 -0.0852  0.5405
13642TIP3   OH262340   3.337   2.381   0.053 -0.0316 -0.7115  0.3608
13642TIP3    H162341   3.348   2.462   0.003 -2.2045 -1.1348 -0.9419
13642TIP3    H262342   3.297   2.409   0.136  0.2798 -0.3422  0.3871
13643TIP3   OH262343   0.285   4.671   2.627  0.2115 -0.4778 -0.0429
13643TIP3    H162344   0.284   4.603   2.560 -0.8303  0.0976 -0.6338
13643TIP3    H262345   0.193   4.690   2.644  0.4755  0.2674  0.6410
13644TIP3   OH262346   5.229   0.808   0.287  0.3444  0.0534 -0.5373
13644TIP3    H162347   5.150   0.764   0.256 -0.0341  1.2916 -1.4408
13644TIP3    H262348   5.249   0.767   0.371 -0.2951 -1.4149 -1.0757
13645TIP3   OH262349   4.103   4.666   6.539  0.4956  0.3667 -0.8035
13645TIP3    H162350   4.138   4.754   6.548  0.3087  0.4730 -1.0863
13645TIP3    H262351   4.009   4.678   6.522  0.6991  0.1805 -2.1751
13646TIP3   OH262352   1.429   1.275   2.808 -0.1819 -0.1140  0.2248
13646TIP3    H162353   1.362   1.303   2.870  1.5714  0.1173  2.1008
13646TIP3    H262354   1.401   1.188   2.779 -2.1483  0.6788 -0.4050
13647TIP3   OH262355   3.229   5.089   6.066  0.4299 -0.3639 -0.7638
13647TIP3    H162356   3.265   5.140   6.138 -1.8075  2.6299 -1.5934
13647TIP3    H262357   3.149   5.049   6.102  0.6051 -0.9003 -0.9493
13648TIP3   OH262358   3.235   0.269  11.352  0.1893  0.0792  0.4573
13648TIP3    H162359   3.153   0.228  11.324  0.6207 -1.4301  1.2927
13648TIP3    H262360   3.295   0.255  11.278  0.7419 -2.1276  1.2432
13649TIP3   OH262361   4.393   2.588   5.836 -0.2639  0.9331  0.0662
13649TIP3    H162362   4.367   2.621   5.750  0.6523 -1.7588 -1.3659
13649TIP3    H262363   4.351   2.503   5.842 -0.6974  1.2635  2.5633
13650TIP3   OH262364   2.207   5.732   0.621  0.3702  0.3092 -0.8726
13650TIP3    H162365   2.169   5.787   0.552  0.3553 -0.1044 -1.2018
13650TIP3    H262366   2.294   5.708   0.587  0.7397  0.8653 -0.3325
13651TIP3   OH262367   6.307   6.412   6.685 -0.0553  0.4051 -0.0106
13651TIP3    H162368   6.293   6.321   6.711 -1.2362  0.4203 -0.5339
13651TIP3    H262369   6.255   6.422   6.605  1.1562  1.1698 -0.7315
13652TIP3   OH262370   4.059   5.231   2.980 -0.0223  0.3067  0.3898
13652TIP3    H162371   4.069   5.154   3.037  0.8304 -0.3853 -0.6495
13652TIP3    H262372   3.971   5.222   2.944  0.2356 -0.4581 -0.0848
13653TIP3   OH262373   4.368   0.253   3.249 -0.1538 -0.4543 -0.3307
13653TIP3    H162374   4.316   0.255   3.329  1.2666  2.3203  0.6565
13653TIP3    H262375   4.320   0.309   3.187 -0.1626 -0.8551 -0.6942
13654TIP3   OH262376   1.810   1.675   0.677  0.1440  0.0792 -0.2308
13654TIP3    H162377   1.796   1.746   0.740  0.1097 -0.3070  0.1962
13654TIP3    H262378   1.749   1.607   0.703  0.7606 -0.4452 -0.1353
13655TIP3   OH262379   5.601   5.751   0.924  0.6911  0.0738  0.0225
13655TIP3    H162380   5.607   5.816   0.854  0.5700  0.6850  0.5689
13655TIP3    H262381   5.691   5.734   0.949  0.8455 -1.3584 -1.3562
13656TIP3   OH262382   3.368   3.773   2.257 -0.0175  0.5540  0.0601
13656TIP3    H162383   3.412   3.693   2.230  1.3896  1.4907 -0.4901
13656TIP3    H262384   3.393   3.785   2.349 -0.1607  0.4203  0.1178
13657TIP3   OH262385   4.298   6.556  13.959 -0.1446 -0.4466 -0.6423
13657TIP3    H162386   4.207   6.585  13.969  0.1347  0.4494 -0.5655
13657TIP3    H262387   4.311   6.494  14.031 -0.2990  0.4676  0.2029
13658TIP3   OH262388   0.392   2.260  12.788 -0.0540  0.1972  0.3585
13658TIP3    H162389   0.314   2.259  12.843  0.3236  0.3327  0.9075
13658TIP3    H262390   0.458   2.214  12.840  0.7399  1.6637  0.6795
13659TIP3   OH262391   6.147   0.212  11.420  0.1721  0.1728 -0.3978
13659TIP3    H162392   6.175   0.299  11.448 -1.2030  0.6330 -0.3950
13659TIP3    H262393   6.073   0.228  11.362 -0.5240 -1.0219  0.1151
13660TIP3   OH262394   6.072   5.502  15.445  0.0829 -0.4150 -0.2722
13660TIP3    H162395   6.114   5.579  15.405  1.3468 -1.0193 -0.1819
13660TIP3    H262396   6.099   5.505  15.536  0.0389 -0.8936 -0.2423
13661TIP3   OH262397   5.754   1.252   2.184  0.2802  0.1755 -0.0409
13661TIP3    H162398   5.831   1.276   2.236 -0.5266  1.0401  0.7994
13661TIP3    H262399   5.680   1.283   2.236 -0.6323 -0.4995 -0.9140
13662TIP3   OH262400   5.731   2.574  14.501 -0.1906  0.5647 -0.2905
13662TIP3    H162401   5.743   2.479  14.505  1.9039  0.8403  0.8664
13662TIP3    H262402   5.774   2.608  14.579 -1.7711  2.4334 -0.1315
13663TIP3   OH262403   1.763   6.051  17.054  0.1936 -0.7532 -0.0020
13663TIP3    H162404   1.799   6.115  16.993  3.1634 -1.1069  1.2009
13663TIP3    H262405   1.821   6.055  17.130 -0.5145 -3.6302  0.8286
13664TIP3   OH262406   5.182   6.750   4.203 -0.7929  0.0230 -0.6154
13664TIP3    H162407   5.265   6.738   4.157 -0.3614 -0.0765  0.1713
13664TIP3    H262408   5.168   6.668   4.248 -1.0283  0.2431 -0.2841
13665TIP3   OH262409   3.329   4.945   4.361  0.2603  0.6067 -0.0755
13665TIP3    H162410   3.323   5.035   4.393  0.1913  0.6174 -0.1180
13665TIP3    H262411   3.397   4.905   4.415  0.3566  0.7106 -0.1187
13666TIP3   OH262412   0.936   3.516  14.647  1.1013  0.5526 -0.4638
13666TIP3    H162413   0.895   3.569  14.716  1.3614  0.5174 -0.2794
13666TIP3    H262414   0.973   3.441  14.694  0.0364 -0.2167 -0.8216
13667TIP3   OH262415   2.217   4.673   2.903  0.2889  0.0014 -0.0355
13667TIP3    H162416   2.172   4.756   2.923  0.1154 -0.1151  0.0605
13667TIP3    H262417   2.304   4.684   2.939  0.1137 -0.0409  0.4070
13668TIP3   OH262418   5.454   5.116   2.328 -0.0304 -0.1698  0.2426
13668TIP3    H162419   5.381   5.107   2.389  0.4098  1.3209  1.0439
13668TIP3    H262420   5.423   5.077   2.247 -1.3684 -0.3915  0.8409
13669TIP3   OH262421   2.775   6.012   5.465  0.4301 -0.1437 -0.2108
13669TIP3    H162422   2.758   5.967   5.548 -0.0384  0.9568  0.3142
13669TIP3    H262423   2.734   6.098   5.476  1.9960  0.7246 -0.8639
13670TIP3   OH262424   2.444   5.868  10.742 -0.2505 -0.0251 -0.1907
13670TIP3    H162425   2.497   5.844  10.667 -2.4174 -2.6998 -1.0446
13670TIP3    H262426   2.469   5.806  10.811  0.4227  1.2164  0.7254
13671TIP3   OH262427   3.054   2.058   1.243 -0.2323  0.7297 -0.3904
13671TIP3    H162428   3.113   2.109   1.298 -1.3527 -0.1385  1.7424
13671TIP3    H262429   3.110   1.992   1.203  0.5612  1.1361  0.0201
13672TIP3   OH262430   2.596   5.642  17.312  0.0734 -0.3072  0.0204
13672TIP3    H162431   2.616   5.734  17.297  2.5645 -0.8199 -0.2825
13672TIP3    H262432   2.603   5.631  17.407  1.5672 -0.4931 -0.0834
13673TIP3   OH262433   1.080   6.745   3.178  0.0132  0.7382 -0.6317
13673TIP3    H162434   1.149   6.811   3.182  2.2582 -1.5127  1.8876
13673TIP3    H262435   1.071   6.725   3.085  1.8301  2.0012 -1.1282
13674TIP3   OH262436   2.061   5.261   3.239 -0.6098  0.3927  0.3454
13674TIP3    H162437   2.135   5.310   3.203  0.1751 -0.3441  0.9068
13674TIP3    H262438   1.997   5.328   3.263 -0.4389  0.9948 -0.8187
13675TIP3   OH262439   3.391   3.343   1.684  0.7835 -0.1582  0.2141
13675TIP3    H162440   3.471   3.291   1.680  2.3540  2.0866  0.4897
13675TIP3    H262441   3.366   3.355   1.592  1.0978 -0.3925  0.0952
13676TIP3   OH262442   5.383   5.116   3.146 -0.1453 -0.2706  0.0942
13676TIP3    H162443   5.316   5.176   3.178 -0.9584 -0.4972 -1.1190
13676TIP3    H262444   5.464   5.146   3.187 -0.9813 -0.0272  1.6405
13677TIP3   OH262445   5.145   4.778  14.381 -0.1942  0.1378 -0.2049
13677TIP3    H162446   5.155   4.823  14.464 -0.3472 -1.1327  0.5276
13677TIP3    H262447   5.155   4.847  14.315  0.3065  1.0978  0.8406
13678TIP3   OH262448   3.439   3.926  13.921 -0.4763  0.4805 -0.5950
13678TIP3    H162449   3.511   3.982  13.890 -0.9742  0.7586 -1.2715
13678TIP3    H262450   3.362   3.982  13.916 -0.4668  0.8107  1.9974
13679TIP3   OH262451   4.805   3.665   5.591 -0.7103 -0.3880 -0.4221
13679TIP3    H162452   4.790   3.756   5.562 -0.7160  0.0330  0.8584
13679TIP3    H262453   4.878   3.672   5.653 -1.6273 -1.0612  0.7514
13680TIP3   OH262454   1.113   5.534  16.934 -0.1186  0.0747 -0.1804
13680TIP3    H162455   1.183   5.535  16.999 -0.5150  1.5634  0.2678
13680TIP3    H262456   1.152   5.573  16.856 -0.6322  1.7326  0.3362
13681TIP3   OH262457   0.229   5.800  15.615  0.2237 -0.1487 -0.3238
13681TIP3    H162458   0.280   5.862  15.562  0.8020  0.4672  0.9064
13681TIP3    H262459   0.162   5.767  15.555 -0.3270  1.9271 -0.9402
13682TIP3   OH262460   2.850   6.102  12.397  0.0171 -0.2262 -0.0313
13682TIP3    H162461   2.798   6.022  12.407  1.6193 -1.1873  0.9293
13682TIP3    H262462   2.808   6.149  12.325 -2.5250 -0.6684  1.0631
13683TIP3   OH262463   2.821   6.089  11.422  0.1534  0.6393 -0.3007
13683TIP3    H162464   2.798   6.013  11.370  0.3236  0.5741 -0.2825
13683TIP3    H262465   2.909   6.113  11.392 -0.0205  1.0089 -0.5172
13684TIP3   OH262466   0.393   0.850  13.427  0.3278  0.5472  0.5588
13684TIP3    H162467   0.447   0.919  13.465  1.0846 -0.2533  0.9733
13684TIP3    H262468   0.455   0.779  13.408 -0.1119  0.6824 -1.6430
13685TIP3   OH262469   3.566   4.939  15.220 -0.3011  0.6929 -0.1747
13685TIP3    H162470   3.604   4.952  15.134 -1.3314 -0.6353 -0.8723
13685TIP3    H262471   3.596   4.851  15.246 -1.3182  0.4024  0.0736
13686TIP3   OH262472   6.491   4.546  12.384 -0.3099 -0.3432 -0.2844
13686TIP3    H162473   6.451   4.613  12.328  0.8600 -0.5397 -1.4112
13686TIP3    H262474   6.578   4.532  12.345 -0.5835 -2.6466 -0.1874
13687TIP3   OH262475   4.856   4.073  12.768  0.0389  0.6722 -0.4056
13687TIP3    H162476   4.770   4.114  12.773 -1.5662 -2.3554 -0.7996
13687TIP3    H262477   4.870   4.035  12.855  0.9354  1.0223 -0.3838
13688TIP3   OH262478   0.641   2.651  15.060 -0.1283  0.0303 -0.1028
13688TIP3    H162479   0.676   2.736  15.033  0.6804 -0.4977 -0.7710
13688TIP3    H262480   0.593   2.670  15.141 -0.0395  1.1329 -0.2837
13689TIP3   OH262481   1.684   1.886  13.960  0.4990  0.6785  0.5996
13689TIP3    H162482   1.665   1.971  13.920 -2.4605 -0.2222 -0.1584
13689TIP3    H262483   1.695   1.827  13.886  0.0987 -0.0418  1.1042
13690TIP3   OH262484   1.294   0.846  11.329 -0.7359 -0.6725  0.5886
13690TIP3    H162485   1.367   0.823  11.387 -0.4202  0.2737  0.5714
13690TIP3    H262486   1.216   0.817  11.376 -0.3795 -1.4354  0.7317
13691TIP3   OH262487   3.386   5.122  15.144 -0.1720 -0.9729 -0.2610
13691TIP3    H162488   3.447   5.067  15.193 -0.1207  1.2511  2.4545
13691TIP3    H262489   3.434   5.204  15.129 -0.5421 -1.2028 -3.3689
13692TIP3   OH262490   1.228   6.663   1.755  0.6144 -0.3087 -0.2308
13692TIP3    H162491   1.309   6.635   1.799  1.0107  0.8522 -0.1854
13692TIP3    H262492   1.174   6.698   1.825  0.8020  0.5436 -0.5027
13693TIP3   OH262493   5.181   0.045   1.532 -0.7163  0.1628 -0.0094
13693TIP3    H162494   5.086   0.045   1.534 -0.7317 -0.1633 -0.4578
13693TIP3    H262495   5.203   0.039   1.439 -0.2476  1.3114  0.0065
13694TIP3   OH262496   5.080   6.477  11.087 -0.3251 -0.0149 -0.2563
13694TIP3    H162497   5.010   6.464  11.151  1.5995 -1.7562  1.6237
13694TIP3    H262498   5.123   6.558  11.114 -0.6620  0.2325 -0.4664
13695TIP3   OH262499   0.035   2.229   1.598 -0.9721  0.5185  0.5229
13695TIP3    H162500   0.122   2.210   1.633 -0.6242  1.0611 -0.0185
13695TIP3    H262501   0.025   2.169   1.524 -2.1105 -1.3229  2.0952
13696TIP3   OH262502   1.337   3.847   3.472 -0.0572 -0.5174  0.9184
13696TIP3    H162503   1.329   3.782   3.403  1.0824  1.1128 -0.8502
13696TIP3    H262504   1.423   3.888   3.457 -1.5950  2.9029  0.4931
13697TIP3   OH262505   6.211   4.793  12.248  0.9806 -0.1443 -0.4470
13697TIP3    H162506   6.267   4.851  12.299  1.4882 -2.2493  1.5913
13697TIP3    H262507   6.125   4.801  12.288  0.9127 -0.3309 -0.5543
13698TIP3   OH262508   5.876   4.533  16.136 -0.3072 -0.6237 -0.4285
13698TIP3    H162509   5.936   4.586  16.189 -0.5638 -0.0984 -0.6537
13698TIP3    H262510   5.925   4.452  16.119 -0.4456 -1.0497  1.0806
13699TIP3   OH262511   1.855   6.727   5.335 -0.0616 -0.4467 -0.2590
13699TIP3    H162512   1.779   6.686   5.293  0.1287 -1.8152  0.6535
13699TIP3    H262513   1.829   6.737   5.427 -0.4545  2.4406 -0.5801
13700TIP3   OH262514   0.363   0.503  15.031 -0.4432  0.9106  0.2305
13700TIP3    H162515   0.398   0.545  15.110 -2.5005  0.9193  1.2066
13700TIP3    H262516   0.302   0.567  14.994 -0.0855  0.5957 -0.9516
13701TIP3   OH262517   5.865   2.440   3.867 -0.0885 -0.4926  0.2157
13701TIP3    H162518   5.791   2.492   3.900 -0.9078 -0.6094 -1.3135
13701TIP3    H262519   5.880   2.374   3.934  0.7515  1.4446  2.0639
13702TIP3   OH262520   4.560   0.402   4.192  0.0476 -0.2684  0.5336
13702TIP3    H162521   4.593   0.403   4.102 -1.1219  2.6205  0.0056
13702TIP3    H262522   4.465   0.392   4.182  0.1096 -2.5631  1.6721
13703TIP3   OH262523   1.421   6.569  14.168 -0.2647 -0.0015 -0.0028
13703TIP3    H162524   1.427   6.564  14.073  0.5677  1.6523 -0.0794
13703TIP3    H262525   1.482   6.503  14.200 -0.5520 -0.5671 -0.6088
13704TIP3   OH262526   5.449   0.598   6.210  0.1347  0.0173 -0.3957
13704TIP3    H162527   5.485   0.658   6.276 -1.0277  0.0276  0.2417
13704TIP3    H262528   5.360   0.582   6.238  0.7741 -3.0716  0.1837
13705TIP3   OH262529   3.579   5.033   0.545 -0.5363 -0.0421 -1.0085
13705TIP3    H162530   3.666   5.016   0.508 -0.6485 -0.2513 -1.1759
13705TIP3    H262531   3.586   5.120   0.583 -0.2651 -0.0394 -1.0628
13706TIP3   OH262532   5.627   4.434  12.545 -0.2795 -0.7576  0.1297
13706TIP3    H162533   5.662   4.523  12.543 -0.5466 -0.6476  0.3757
13706TIP3    H262534   5.668   4.393  12.621  0.4766 -1.1095 -0.4507
13707TIP3   OH262535   0.821   3.419  16.167 -0.6779  0.5617 -0.6210
13707TIP3    H162536   0.825   3.369  16.248  0.6993 -0.3764 -1.2138
13707TIP3    H262537   0.777   3.361  16.105  1.0364 -0.0583 -1.3457
13708TIP3   OH262538   3.330   4.576  11.019 -0.4786 -0.2431 -0.0720
13708TIP3    H162539   3.277   4.520  10.961  1.4505 -1.2159 -1.0104
13708TIP3    H262540   3.388   4.624  10.959  1.3594 -1.0328  0.9930
13709TIP3   OH262541   2.010   3.652   5.584 -0.6136  0.1315 -0.0644
13709TIP3    H162542   1.979   3.563   5.567  0.6171 -0.0020 -1.8094
13709TIP3    H262543   1.955   3.708   5.529  0.4419  0.1433 -1.1473
13710TIP3   OH262544   6.496   4.572  16.551 -0.1532  0.6381 -0.4777
13710TIP3    H162545   6.458   4.601  16.467 -2.0583  0.9429  0.4320
13710TIP3    H262546   6.485   4.647  16.609  0.5583  0.2026  0.2341
13711TIP3   OH262547   6.644   5.909  14.998 -0.8686 -0.5767  0.1587
13711TIP3    H162548   6.553   5.921  14.972 -1.1024  0.6596  1.4694
13711TIP3    H262549   6.653   5.958  15.079  0.0157 -3.6561  2.0949
13712TIP3   OH262550   0.111   3.887   2.408 -0.2019  0.7023  0.1229
13712TIP3    H162551   0.194   3.885   2.361  0.1339  0.9530  0.6848
13712TIP3    H262552   0.045   3.870   2.342  0.2435  1.2404 -0.4693
13713TIP3   OH262553   5.118   0.998  12.485  0.3200  0.4511  0.2764
13713TIP3    H162554   5.069   0.980  12.405  0.2497 -0.0572  0.4243
13713TIP3    H262555   5.053   0.993  12.555  0.8542 -2.3086  0.7146
13714TIP3   OH262556   3.779   0.431   3.373  0.3573  0.1001  0.0070
13714TIP3    H162557   3.716   0.359   3.376  2.0334 -1.4190  1.9189
13714TIP3    H262558   3.780   0.458   3.282 -1.5358 -1.2050 -0.4665
13715TIP3   OH262559   0.407   4.164  11.410 -0.1389 -0.0624  0.3079
13715TIP3    H162560   0.486   4.191  11.457  0.1271  0.3158 -0.3388
13715TIP3    H262561   0.363   4.246  11.387 -0.5336 -0.2599  0.3456
13716TIP3   OH262562   1.377   5.287  14.551  0.2932 -0.4405 -0.5946
13716TIP3    H162563   1.304   5.342  14.581  1.1191  0.4662 -0.1792
13716TIP3    H262564   1.376   5.212  14.609 -1.6707 -1.5781 -1.9919
13717TIP3   OH262565   4.218   6.358  14.337  0.4807  0.0563  0.5884
13717TIP3    H162566   4.165   6.437  14.349 -0.0572  0.1740 -1.9255
13717TIP3    H262567   4.209   6.338  14.244  0.4338 -3.1027  1.1672
13718TIP3   OH262568   4.745   3.497  11.685 -0.6122  0.1982  0.1310
13718TIP3    H162569   4.727   3.406  11.661  1.2180  0.6522 -3.8521
13718TIP3    H262570   4.662   3.530  11.720 -1.5970 -2.6792  0.7410
13719TIP3   OH262571   0.800   3.161  10.877  0.3006 -0.4106 -0.2604
13719TIP3    H162572   0.744   3.177  10.953  1.7566 -1.6297  1.1236
13719TIP3    H262573   0.805   3.065  10.871  0.5445 -0.3365 -1.6677
13720TIP3   OH262574   1.512   1.525   4.992 -0.5300  0.4486 -0.2869
13720TIP3    H162575   1.466   1.476   4.924  0.2763  1.3469 -1.5283
13720TIP3    H262576   1.585   1.469   5.017 -1.3038 -0.2504  0.4785
13721TIP3   OH262577   0.914   4.982  13.223  0.2470  0.5993 -0.2748
13721TIP3    H162578   0.914   4.932  13.304 -0.7026  0.0458 -0.6102
13721TIP3    H262579   0.823   5.009  13.210  0.6414  2.0173 -0.3573
13722TIP3   OH262580   5.025   6.335   3.731 -0.4409  0.2738  0.7331
13722TIP3    H162581   5.101   6.388   3.751  0.2524 -0.6897  0.7275
13722TIP3    H262582   4.950   6.389   3.756  0.1361  2.0943 -1.2816
13723TIP3   OH262583   5.308   6.215  13.016  0.6535  0.4891  0.4826
13723TIP3    H162584   5.269   6.297  12.987 -1.5232 -0.9486 -0.9443
13723TIP3    H262585   5.309   6.222  13.112  1.3543  2.4966  0.3816
13724TIP3   OH262586   5.282   4.712  13.534 -0.5020 -0.2127  0.5336
13724TIP3    H162587   5.275   4.765  13.454  0.9001 -0.5281  0.1835
13724TIP3    H262588   5.191   4.701  13.562 -0.9988  0.3013 -0.7563
13725TIP3   OH262589   2.116   4.456  14.996 -0.1943  0.0811 -0.0424
13725TIP3    H162590   2.177   4.387  14.970  2.7280  1.8134  1.5866
13725TIP3    H262591   2.097   4.502  14.914 -0.3346 -1.2249 -0.7802
13726TIP3   OH262592   5.599   0.557  15.219  0.3879 -0.7389 -0.5959
13726TIP3    H162593   5.560   0.609  15.149  0.1834 -1.0106 -0.6845
13726TIP3    H262594   5.682   0.601  15.238  0.5337 -0.7759 -1.1399
13727TIP3   OH262595   1.355   5.800   1.704 -0.5838 -0.3175  0.1373
13727TIP3    H162596   1.350   5.854   1.626  1.0523  1.0440  0.9146
13727TIP3    H262597   1.377   5.861   1.774 -0.6949 -1.7067  1.4328
13728TIP3   OH262598   4.805   0.549  11.876  0.4975 -0.1720 -0.3988
13728TIP3    H162599   4.794   0.454  11.869  0.1756 -0.0664 -1.5640
13728TIP3    H262600   4.877   0.569  11.817  1.8177  0.1123  1.2380
13729TIP3   OH262601   5.366   3.671   3.429  0.3090  0.1361  0.5932
13729TIP3    H162602   5.284   3.712   3.458 -0.0598 -0.7622  0.8541
13729TIP3    H262603   5.429   3.692   3.498 -0.3206 -1.1800  1.6263
13730TIP3   OH262604   1.871   6.304   2.658 -0.6117  0.3492  0.0731
13730TIP3    H162605   1.868   6.218   2.617  2.1541  0.3574 -0.3634
13730TIP3    H262606   1.831   6.292   2.744 -0.0906 -1.4253  0.1003
13731TIP3   OH262607   3.518   0.795   1.785 -0.5330  0.0579  0.3998
13731TIP3    H162608   3.483   0.712   1.817  0.4135  0.8774  3.9884
13731TIP3    H262609   3.448   0.858   1.804  0.5233  0.7609  2.1901
13732TIP3   OH262610   6.496   4.782  16.720 -0.1460  0.1746 -0.9885
13732TIP3    H162611   6.459   4.812  16.803 -0.3110 -0.1500 -0.9410
13732TIP3    H262612   6.505   4.861  16.667 -0.4864  0.3185 -0.8340
13733TIP3   OH262613   4.415   2.907   2.332 -0.1431 -0.2761 -0.2763
13733TIP3    H162614   4.380   2.888   2.245 -0.1121  1.0653 -0.6109
13733TIP3    H262615   4.499   2.951   2.315 -1.2626  2.2504  0.3029
13734TIP3   OH262616   2.488   4.144   3.853 -0.4763  0.9025 -0.2788
13734TIP3    H162617   2.437   4.225   3.846 -0.1249  1.8720  4.6525
13734TIP3    H262618   2.422   4.075   3.864 -0.7280  0.8134 -2.0798
13735TIP3   OH262619   2.220   6.130   4.586 -0.5210 -0.3530 -0.1403
13735TIP3    H162620   2.278   6.138   4.662  2.7334 -3.0797 -2.0140
13735TIP3    H262621   2.150   6.193   4.602  0.0320 -0.5912  4.9202
13736TIP3   OH262622   5.948   0.831   2.557  0.7706 -0.0474 -0.4004
13736TIP3    H162623   5.964   0.888   2.482  0.8426 -1.1265 -1.2370
13736TIP3    H262624   5.881   0.770   2.527  0.0735  0.1024  0.7597
13737TIP3   OH262625   5.929   4.696  11.434 -0.3300  0.8941 -0.1656
13737TIP3    H162626   5.908   4.724  11.523 -1.4973  0.8395 -0.4033
13737TIP3    H262627   5.850   4.717  11.383 -1.2216 -2.4402 -0.4303
13738TIP3   OH262628   0.909   6.424   1.042 -0.0960 -1.0153  0.6228
13738TIP3    H162629   0.935   6.333   1.057  0.8995 -0.8336  0.0403
13738TIP3    H262630   0.987   6.475   1.060 -0.4668 -0.3227  0.3063
13739TIP3   OH262631   4.403   4.296   2.369 -0.0032 -0.1680  0.4683
13739TIP3    H162632   4.341   4.349   2.420 -0.3820  0.9809 -1.1076
13739TIP3    H262633   4.489   4.321   2.402 -0.1850  1.3856 -0.1658
13740TIP3   OH262634   1.133   2.021  10.710 -0.2644  0.1655 -0.1544
13740TIP3    H162635   1.105   2.112  10.700  0.7517  0.8757  2.4784
13740TIP3    H262636   1.228   2.024  10.699 -0.0602 -0.2941  1.2390
13741TIP3   OH262637   0.487   1.109   0.419  0.0325  0.0944  0.4143
13741TIP3    H162638   0.565   1.163   0.423  0.6481 -0.7936  0.7016
13741TIP3    H262639   0.421   1.157   0.469 -0.2894  1.9014 -1.5916
13742TIP3   OH262640   2.872   4.551  15.582 -0.0059  0.1705  0.3553
13742TIP3    H162641   2.857   4.461  15.554 -0.5986  0.1957  0.5811
13742TIP3    H262642   2.798   4.571  15.639 -1.0506  1.4964 -1.3415
13743TIP3   OH262643   4.111   6.536   0.893  0.4051 -0.3146 -0.7221
13743TIP3    H162644   4.071   6.620   0.868 -1.6053 -1.0789 -0.2980
13743TIP3    H262645   4.201   6.542   0.861  0.9821  2.7867  1.0267
13744TIP3   OH262646   2.437   0.783  16.139 -0.4350  0.1286  0.0352
13744TIP3    H162647   2.354   0.735  16.143  0.3832 -1.2273  1.3270
13744TIP3    H262648   2.503   0.716  16.123  0.5147  1.1023 -0.2413
13745TIP3   OH262649   6.451   1.274  12.160  0.0654  0.0989 -0.0194
13745TIP3    H162650   6.492   1.292  12.075  0.1289 -0.1370 -0.0398
13745TIP3    H262651   6.524   1.270  12.221 -0.0352  0.9524  0.1688
13746TIP3   OH262652   5.501   1.610   0.160 -0.1170 -0.1928 -0.1059
13746TIP3    H162653   5.579   1.592   0.108 -0.6382 -1.8742 -0.3851
13746TIP3    H262654   5.499   1.705   0.170  0.0747  0.2146 -3.0379
13747TIP3   OH262655   3.768   6.513  10.481 -0.1279 -0.0038 -0.0783
13747TIP3    H162656   3.740   6.603  10.491  0.5494  0.1783  0.2868
13747TIP3    H262657   3.704   6.473  10.422 -0.8576  0.5056  0.3675
13748TIP3   OH262658   3.086   2.315  10.279  0.6718  0.4392 -0.5583
13748TIP3    H162659   3.137   2.234  10.280  0.6123  0.3651  2.0006
13748TIP3    H262660   3.152   2.385  10.280  0.9273  0.3450  2.9120
13749TIP3   OH262661   4.636   5.037  16.337  0.4742 -0.0921 -0.1112
13749TIP3    H162662   4.697   5.010  16.268  1.9099  1.9255  0.2638
13749TIP3    H262663   4.583   5.105  16.296  0.0477 -0.2103  0.2430
13750TIP3   OH262664   6.151   6.556  16.308 -0.1875 -0.0092 -0.1041
13750TIP3    H162665   6.173   6.464  16.294  1.0977 -0.0316  1.6674
13750TIP3    H262666   6.055   6.559  16.298  0.0182 -0.8060 -3.5379
13751TIP3   OH262667   0.087   0.898  17.342  0.7533  0.4769  0.0381
13751TIP3    H162668   0.068   0.837  17.413 -0.2162 -1.0967 -1.5045
13751TIP3    H262669   0.168   0.865  17.303 -0.3596 -0.5691 -1.5022
13752TIP3   OH262670   0.832   3.866  16.063 -0.5028 -0.6853 -0.5909
13752TIP3    H162671   0.902   3.915  16.107 -0.8243 -0.2857 -0.5187
13752TIP3    H262672   0.859   3.862  15.972 -1.0426  0.6581 -0.8267
13753TIP3   OH262673   3.689   6.262  15.601 -0.0446 -0.5414 -0.1229
13753TIP3    H162674   3.653   6.259  15.689 -0.3752 -0.8042 -0.2627
13753TIP3    H262675   3.783   6.259  15.613 -0.0892 -0.6061  0.2193
13754TIP3   OH262676   2.193   1.935  12.275  0.0030 -0.8656 -0.0983
13754TIP3    H162677   2.134   1.899  12.208 -0.5878 -0.1304  0.0122
13754TIP3    H262678   2.237   2.008  12.231 -0.6619 -0.1436  0.4108
13755TIP3   OH262679   3.509   6.411   3.173 -0.0839  0.3466  0.5560
13755TIP3    H162680   3.436   6.371   3.125  0.1972  0.2509  0.2022
13755TIP3    H262681   3.586   6.394   3.118  0.0948  1.0738  0.5647
13756TIP3   OH262682   6.601   5.313   1.601  0.4328  0.1243  0.1089
13756TIP3    H162683   6.559   5.276   1.523  0.4991  0.5313 -0.1232
13756TIP3    H262684   6.679   5.356   1.568 -1.1008  2.9927 -0.0910
13757TIP3   OH262685   4.736   1.784   1.248  0.1469 -0.3202 -0.6227
13757TIP3    H162686   4.649   1.783   1.287 -0.0508  0.7204 -1.0152
13757TIP3    H262687   4.721   1.765   1.155  0.3405 -0.1748 -0.6842
13758TIP3   OH262688   5.450   1.302  12.708  0.1160  0.5227  0.4289
13758TIP3    H162689   5.366   1.347  12.697 -0.2061 -0.3548 -0.9222
13758TIP3    H262690   5.515   1.365  12.680 -0.1855  0.7741  0.2850
13759TIP3   OH262691   2.873   0.910  13.618  0.7225  0.0265  0.3919
13759TIP3    H162692   2.835   0.822  13.619  0.4633  0.1317  2.3193
13759TIP3    H262693   2.965   0.897  13.640  1.3710  0.0141 -2.0092
13760TIP3   OH262694   3.579   0.127  13.862 -0.0137  0.4860 -0.1576
13760TIP3    H162695   3.659   0.089  13.824 -0.7689  1.1217 -2.4919
13760TIP3    H262696   3.582   0.099  13.954  1.5809 -1.6655 -0.7724
13761TIP3   OH262697   0.280   5.090  10.631 -0.0533  0.3865 -0.2409
13761TIP3    H162698   0.186   5.077  10.618  0.1060  0.3852 -1.4961
13761TIP3    H262699   0.321   5.044  10.558  1.0397 -1.1926  1.3042
13762TIP3   OH262700   3.651   2.133   3.770 -0.2983  0.1601 -0.4834
13762TIP3    H162701   3.596   2.202   3.808  0.5511  1.3322 -1.3193
13762TIP3    H262702   3.731   2.134   3.821  0.6548  1.4131 -1.9114
13763TIP3   OH262703   5.034   5.233   6.714 -0.0811 -0.2542  0.0008
13763TIP3    H162704   4.962   5.195   6.664 -1.1370  0.8670  0.6338
13763TIP3    H262705   5.046   5.172   6.788 -0.6221 -0.2529  0.0921
13764TIP3   OH262706   1.263   4.508  13.938 -0.0551 -0.9362 -0.3470
13764TIP3    H162707   1.277   4.452  14.014 -0.3470  1.1597  1.3527
13764TIP3    H262708   1.346   4.554  13.926 -0.5375  0.0059 -0.1806
13765TIP3   OH262709   1.239   2.346  12.759  0.0634 -0.2458  0.3000
13765TIP3    H162710   1.202   2.369  12.674  1.1435  2.5855  0.4846
13765TIP3    H262711   1.163   2.328  12.814 -1.0314  2.5499 -0.0915
13766TIP3   OH262712   4.080   2.380   1.303  0.0680 -0.0311  0.1412
13766TIP3    H162713   4.037   2.446   1.249  1.3246  0.7274  0.0101
13766TIP3    H262714   4.103   2.310   1.242 -0.5205 -0.2054  0.1201
13767TIP3   OH262715   0.762   4.621  15.971 -0.4349 -0.2648  0.6747
13767TIP3    H162716   0.762   4.625  15.875  0.0742 -1.7854  0.5789
13767TIP3    H262717   0.824   4.688  15.999  1.2888 -1.4340 -0.1927
13768TIP3   OH262718   0.558   3.499   0.454 -0.7751 -0.1346  0.2838
13768TIP3    H162719   0.540   3.495   0.548 -0.1026 -1.2009  0.3902
13768TIP3    H262720   0.623   3.430   0.440 -2.0479 -1.0817 -1.2249
13769TIP3   OH262721   0.859   6.100  16.210  0.7197 -0.3752  0.4327
13769TIP3    H162722   0.891   6.048  16.137  0.2368 -1.6696  1.1269
13769TIP3    H262723   0.765   6.086  16.212  0.5313  0.7606  0.4634
13770TIP3   OH262724   6.277   1.767  13.278 -0.1021  0.0685  0.3430
13770TIP3    H162725   6.208   1.830  13.259  0.1746 -0.2724 -2.0069
13770TIP3    H262726   6.237   1.682  13.260  0.4880 -0.2213  0.3816
13771TIP3   OH262727   4.554   5.428  13.524  0.6861  0.2209  0.0349
13771TIP3    H162728   4.555   5.461  13.434  1.3660 -2.3748 -1.0259
13771TIP3    H262729   4.644   5.437  13.553  0.8262 -0.4264 -0.1787
13772TIP3   OH262730   1.686   2.478  14.841  0.5152  0.2610  0.0772
13772TIP3    H162731   1.754   2.415  14.866 -1.1280 -1.1668  1.1140
13772TIP3    H262732   1.669   2.458  14.749 -0.1888 -1.0613  0.4669
13773TIP3   OH262733   0.197   1.231  16.359 -0.0767  0.4013 -0.3849
13773TIP3    H162734   0.212   1.191  16.445 -1.0495 -0.1673 -0.4768
13773TIP3    H262735   0.146   1.310  16.378 -1.2779 -0.3190 -0.5248
13774TIP3   OH262736   2.185   4.034  13.155 -0.1595 -0.6653  0.0801
13774TIP3    H162737   2.217   4.074  13.074 -0.4978 -0.9454 -0.1911
13774TIP3    H262738   2.234   4.079  13.224  0.4212 -0.7023 -0.2984
13775TIP3   OH262739   3.660   1.304  17.159 -0.6302 -0.0392 -0.0489
13775TIP3    H162740   3.647   1.210  17.148  0.7284 -0.4343  1.3947
13775TIP3    H262741   3.740   1.312  17.211 -0.8954  1.9138  0.1555
13776TIP3   OH262742   5.917   0.712  14.188 -0.2953 -0.3689  0.3657
13776TIP3    H162743   5.971   0.791  14.194 -2.2271  1.0287  0.5791
13776TIP3    H262744   5.979   0.640  14.190  1.4933  1.1068  1.3698
13777TIP3   OH262745   1.434   4.206   6.012  0.2292 -0.1441  0.3143
13777TIP3    H162746   1.366   4.192   6.078 -0.5081 -0.8636 -0.5527
13777TIP3    H262747   1.389   4.192   5.929  0.6575  2.5865 -0.4767
13778TIP3   OH262748   4.236   6.270  13.983 -0.4006 -0.3887 -0.0337
13778TIP3    H162749   4.175   6.311  13.922  0.8367  3.0741  0.8114
13778TIP3    H262750   4.321   6.309  13.962  0.6542 -1.5692  1.7785
13779TIP3   OH262751   0.736   1.607   2.256  0.3908  0.7094  0.1451
13779TIP3    H162752   0.757   1.579   2.345 -0.5354  0.6029  0.3399
13779TIP3    H262753   0.640   1.615   2.255  0.2324 -0.9302 -1.3118
13780TIP3   OH262754   0.859   2.984   3.288  0.5274  0.8511  0.1072
13780TIP3    H162755   0.940   3.021   3.252 -0.0121  1.9280 -0.0318
13780TIP3    H262756   0.875   2.978   3.382  1.6164 -1.1438 -0.1362
13781TIP3   OH262757   5.559   2.249   3.152  0.1459 -0.8743  0.5667
13781TIP3    H162758   5.591   2.168   3.192  1.3454 -0.7491 -0.0601
13781TIP3    H262759   5.546   2.226   3.060 -1.1944 -0.7967  0.7280
13782TIP3   OH262760   0.782   3.661   0.569  0.3882  0.2821 -0.4914
13782TIP3    H162761   0.757   3.589   0.627  0.1431 -0.1306 -1.0994
13782TIP3    H262762   0.745   3.637   0.484  0.7829  0.8553 -0.8305
13783TIP3   OH262763   6.407   5.973  11.792 -0.1876 -0.0182  0.0389
13783TIP3    H162764   6.352   5.952  11.716  1.0169 -0.0947 -0.8454
13783TIP3    H262765   6.398   6.067  11.803  0.1465  0.1015 -0.6393
13784TIP3   OH262766   5.226   1.708  16.138  0.3091 -0.1893 -0.8659
13784TIP3    H162767   5.271   1.648  16.078  0.2336 -0.7101 -0.4122
13784TIP3    H262768   5.156   1.656  16.176  0.3077  0.1547 -0.3823
13785TIP3   OH262769   0.879   3.705  14.840  0.1668 -0.2104  0.2449
13785TIP3    H162770   0.929   3.774  14.796 -0.1269  0.0351  0.2970
13785TIP3    H262771   0.901   3.715  14.933  0.7682 -0.7138  0.1669
13786TIP3   OH262772   6.366   5.353  13.650  0.0215 -0.1361 -0.4383
13786TIP3    H162773   6.348   5.347  13.743  0.8246 -0.5251 -0.3013
13786TIP3    H262774   6.459   5.332  13.642  0.9641  3.4288 -0.8855
13787TIP3   OH262775   1.313   6.293  13.539 -0.4365  0.5497  0.0563
13787TIP3    H162776   1.296   6.206  13.574  1.1385  0.7656  1.5526
13787TIP3    H262777   1.371   6.278  13.464  0.6384  0.3079  0.8988
13788TIP3   OH262778   4.734   3.783  16.620 -0.0323 -0.5964  0.2234
13788TIP3    H162779   4.706   3.700  16.581 -1.0207 -0.2259  0.1066
13788TIP3    H262780   4.743   3.764  16.714  0.1695 -0.9358  0.1379
13789TIP3   OH262781   6.468   4.495   2.081  0.3596  0.1216 -0.3076
13789TIP3    H162782   6.496   4.586   2.069 -0.3956  0.2786 -0.9162
13789TIP3    H262783   6.540   4.443   2.046  0.2745  0.5056 -1.0728
13790TIP3   OH262784   1.903   2.785   3.543  0.4552 -0.8690 -0.3622
13790TIP3    H162785   1.933   2.852   3.482  1.2098 -1.6492 -0.8797
13790TIP3    H262786   1.958   2.796   3.620  0.3190 -0.6551 -0.2948
13791TIP3   OH262787   1.202   6.078  11.450  0.1110  0.9013  0.5878
13791TIP3    H162788   1.289   6.050  11.421 -0.7799 -0.2881 -1.1552
13791TIP3    H262789   1.155   5.996  11.466 -0.9596  1.5127  0.6379
13792TIP3   OH262790   6.060   1.517   4.184 -0.1309 -0.2347 -0.1783
13792TIP3    H162791   6.145   1.560   4.169 -0.2741  1.3162  2.5965
13792TIP3    H262792   5.997   1.589   4.183 -0.8867 -0.8352  1.1295
13793TIP3   OH262793   4.695   1.485   2.281 -0.3604  0.4820  0.2544
13793TIP3    H162794   4.686   1.435   2.200 -0.3248  2.1020 -0.7894
13793TIP3    H262795   4.614   1.466   2.330 -0.1557 -0.8952  0.0970
13794TIP3   OH262796   0.976   2.125  11.876  0.0593 -0.6375  0.2850
13794TIP3    H162797   0.913   2.069  11.923 -2.0488  2.7610  1.9177
13794TIP3    H262798   1.058   2.113  11.923 -0.6320 -1.4868  1.3273
13795TIP3   OH262799   2.537   1.980   3.951 -0.4009  0.1723 -0.8214
13795TIP3    H162800   2.612   1.957   3.896 -0.6886  0.3568 -1.3022
13795TIP3    H262801   2.471   1.914   3.931 -0.0173 -0.6004  0.3672
13796TIP3   OH262802   3.682   4.389  14.616  0.1316  0.6783 -0.2089
13796TIP3    H162803   3.641   4.366  14.533  0.3761  0.4614 -0.2714
13796TIP3    H262804   3.764   4.431  14.592  0.0968  0.8229 -0.0799
13797TIP3   OH262805   5.276   4.568   2.002 -0.5187 -0.0478  0.1673
13797TIP3    H162806   5.241   4.618   1.928  0.4875  1.2466  0.5355
13797TIP3    H262807   5.370   4.564   1.986 -0.5352 -1.5906  0.3132
13798TIP3   OH262808   1.581   1.327  15.537 -0.2142  0.0798 -0.1049
13798TIP3    H162809   1.488   1.326  15.557  0.2649 -0.7712  2.4187
13798TIP3    H262810   1.607   1.418  15.547 -0.5578  0.1360  0.2846
13799TIP3   OH262811   0.112   0.617  14.286  0.2317 -0.2273  0.1148
13799TIP3    H162812   0.100   0.566  14.206 -0.0214  0.4307 -0.2836
13799TIP3    H262813   0.116   0.553  14.356 -2.2344 -0.7197 -0.1148
13800TIP3   OH262814   2.351   5.458   2.411  0.3098 -0.3199  0.1698
13800TIP3    H162815   2.319   5.529   2.467  1.9194 -0.1102  0.8981
13800TIP3    H262816   2.272   5.420   2.373 -0.6485  1.3235  0.4089
13801TIP3   OH262817   6.659   2.217   6.012  0.1613 -0.4457 -0.1358
13801TIP3    H162818   6.566   2.222   6.035 -0.1775 -0.1426 -1.5033
13801TIP3    H262819   6.661   2.174   5.927  1.1361  1.0184 -0.8989
13802TIP3   OH262820   4.410   3.396   5.254 -0.3752 -0.0902  1.0933
13802TIP3    H162821   4.404   3.312   5.209 -1.0947 -0.7218  2.3019
13802TIP3    H262822   4.323   3.434   5.246 -0.3150  0.1056  1.3580
13803TIP3   OH262823   3.628   6.373  13.694  0.5365 -0.3971  0.1723
13803TIP3    H162824   3.689   6.405  13.761  0.2147  0.5626  0.0259
13803TIP3    H262825   3.541   6.384  13.734  0.4103 -0.9740  0.0621
13804TIP3   OH262826   1.987   0.208   1.302  0.4695  0.0182 -0.5390
13804TIP3    H162827   2.064   0.216   1.246  0.8625 -0.5289 -0.0921
13804TIP3    H262828   1.948   0.124   1.279  0.5790 -0.1673 -0.0717
13805TIP3   OH262829   2.963   5.308   5.560  0.5447  0.9791  0.2382
13805TIP3    H162830   3.054   5.282   5.544  0.4653  0.5691  0.4534
13805TIP3    H262831   2.968   5.401   5.580  0.9568  0.8829  0.5976
13806TIP3   OH262832   3.250   5.658   2.409 -0.2578  0.5486  0.0457
13806TIP3    H162833   3.162   5.674   2.374 -0.1569 -1.3820 -1.2407
13806TIP3    H262834   3.306   5.656   2.331  0.9031  1.4763  0.8236
13807TIP3   OH262835   0.788   3.068  16.147  0.5321 -0.0492 -0.3871
13807TIP3    H162836   0.733   3.102  16.077  1.5490  0.3413 -0.9985
13807TIP3    H262837   0.730   3.008  16.195 -0.4068  0.3047 -1.0496
13808TIP3   OH262838   1.608   2.166   4.846  0.0709  0.5275 -0.0832
13808TIP3    H162839   1.528   2.112   4.843  0.1576  0.3274  0.8594
13808TIP3    H262840   1.622   2.192   4.755 -0.7989  0.1655 -0.3400
13809TIP3   OH262841   3.420   4.358   0.664 -0.1556  0.2964  0.4407
13809TIP3    H162842   3.353   4.340   0.598  1.0618  0.5311 -0.9217
13809TIP3    H262843   3.410   4.288   0.729 -1.6405  0.2823  0.2145
13810TIP3   OH262844   4.733   5.687  12.092 -0.0694  0.2356 -0.2025
13810TIP3    H162845   4.703   5.678  12.002 -0.0244  1.7617 -0.3917
13810TIP3    H262846   4.653   5.687  12.145 -0.0489 -4.0537  0.2073
13811TIP3   OH262847   6.095   6.491  14.753  0.0452  0.4498 -0.2612
13811TIP3    H162848   6.081   6.459  14.664  0.1190  1.4761 -0.6516
13811TIP3    H262849   6.059   6.580  14.752  0.0589  0.4727  0.7318
13812TIP3   OH262850   2.123   6.063   0.913 -0.2894 -0.4036  0.3792
13812TIP3    H162851   2.192   6.000   0.893  1.2285  0.9522  1.1198
13812TIP3    H262852   2.094   6.095   0.828 -0.8948 -1.8443  0.0028
13813TIP3   OH262853   4.000   6.754  14.990  0.1727 -0.2099 -0.1962
13813TIP3    H162854   4.005   6.670  14.945  1.2392  0.3548 -1.1727
13813TIP3    H262855   4.091   6.779  15.006 -0.1703 -0.0175  1.5917
13814TIP3   OH262856   5.002   5.295  15.854  0.0686  0.6251 -0.5213
13814TIP3    H162857   4.959   5.242  15.920  0.1548  0.9297 -0.2152
13814TIP3    H262858   4.935   5.309  15.787 -0.4828  1.5090  0.1847
13815TIP3   OH262859   5.111   4.102   2.902  0.2924 -0.3256 -0.7436
13815TIP3    H162860   5.026   4.057   2.899  0.5865 -1.0173  0.6360
13815TIP3    H262861   5.154   4.077   2.820  0.5155 -2.7298  0.0384
13816TIP3   OH262862   2.405   5.361  10.873 -0.6677 -0.5538  0.5093
13816TIP3    H162863   2.345   5.406  10.814  0.9519 -0.8731 -1.4915
13816TIP3    H262864   2.381   5.268  10.865 -0.9811 -0.5253  1.0371
13817TIP3   OH262865   5.827   3.470  15.726 -0.5683  0.3467  0.2304
13817TIP3    H162866   5.858   3.411  15.657 -1.3742 -0.9580  0.9433
13817TIP3    H262867   5.758   3.522  15.684  0.7309  1.4115 -0.6368
13818TIP3   OH262868   1.150   1.229  12.869  0.2156 -0.5379 -0.0828
13818TIP3    H162869   1.065   1.257  12.903 -0.6118 -2.0530 -0.7595
13818TIP3    H262870   1.208   1.229  12.945 -0.2313  1.0241  0.2927
13819TIP3   OH262871   1.236   2.694   1.375 -0.4705 -0.7987  0.3089
13819TIP3    H162872   1.279   2.636   1.438 -0.6779 -1.9129 -0.5350
13819TIP3    H262873   1.201   2.766   1.427 -1.5023 -2.1829  1.6144
13820TIP3   OH262874   2.111   3.667  14.171  0.0342 -0.7058  0.2994
13820TIP3    H162875   2.044   3.731  14.151  0.6284 -0.0518  0.3641
13820TIP3    H262876   2.075   3.584  14.139 -0.2093 -0.1371 -0.9621
13821TIP3   OH262877   3.503   5.996   2.224 -0.5037 -0.2929 -0.2146
13821TIP3    H162878   3.534   5.906   2.228  0.1741 -0.0193  1.5770
13821TIP3    H262879   3.573   6.048   2.265 -1.7345  0.7801  0.6291
13822TIP3   OH262880   5.478   2.442  16.858 -0.5524  0.3169  0.1074
13822TIP3    H162881   5.528   2.514  16.896 -0.0854  0.3686 -0.5814
13822TIP3    H262882   5.388   2.472  16.857 -0.4575  0.6149  0.4674
13823TIP3   OH262883   1.337   0.828  13.086  0.1317 -0.5706 -0.0608
13823TIP3    H162884   1.324   0.901  13.146 -0.8329 -0.9528  0.2059
13823TIP3    H262885   1.252   0.814  13.045  0.4302 -1.2176 -0.4849
13824TIP3   OH262886   4.215   4.978  16.525 -0.1176 -0.2361 -0.3274
13824TIP3    H162887   4.234   5.017  16.439  2.3898  0.4774  0.4627
13824TIP3    H262888   4.183   5.052  16.577  1.0007 -0.0461  0.1059
13825TIP3   OH262889   4.733   3.342   4.752 -0.2999 -0.0844 -0.1388
13825TIP3    H162890   4.732   3.248   4.731  1.0132 -0.4629  1.2780
13825TIP3    H262891   4.798   3.379   4.693 -0.9922 -0.0146 -0.8647
13826TIP3   OH262892   2.275   2.403  13.783 -0.8036  0.5304 -0.5454
13826TIP3    H162893   2.230   2.408  13.699  0.4584 -0.2240 -1.3136
13826TIP3    H262894   2.347   2.466  13.775  0.2385 -0.6366 -0.6518
13827TIP3   OH262895   6.566   5.912  13.783 -0.0486 -0.0586 -0.0636
13827TIP3    H162896   6.588   6.006  13.780 -0.1968 -0.0034  0.5145
13827TIP3    H262897   6.471   5.909  13.772  0.0901 -0.2228 -1.3115
13828TIP3   OH262898   0.597   6.684   1.988 -0.6366 -0.2113 -0.1355
13828TIP3    H162899   0.672   6.728   1.949  0.3896 -0.5468  1.3775
13828TIP3    H262900   0.623   6.592   1.992 -1.6931 -0.5641 -0.8224
13829TIP3   OH262901   5.815   3.304   2.284  0.5420 -0.1938  0.7552
13829TIP3    H162902   5.755   3.237   2.251 -0.7933  1.6950 -1.0216
13829TIP3    H262903   5.758   3.381   2.298  2.2571  1.1245  0.8102
13830TIP3   OH262904   2.028   4.131  10.586  0.1699 -0.0783  0.2730
13830TIP3    H162905   1.945   4.098  10.620  0.3040  0.5891  1.2989
13830TIP3    H262906   2.007   4.216  10.548  0.3352 -0.0323  0.2835
13831TIP3   OH262907   0.319   0.747   2.925  0.6738 -0.4367 -0.4512
13831TIP3    H162908   0.321   0.786   3.013 -1.2457 -0.3228 -0.4270
13831TIP3    H262909   0.379   0.802   2.874 -0.9292  1.8107 -0.0777
13832TIP3   OH262910   4.835   0.185   5.342 -0.0180  0.5207 -0.3182
13832TIP3    H162911   4.823   0.269   5.297  0.2619  1.3887  1.1398
13832TIP3    H262912   4.765   0.184   5.408 -1.0056 -1.1436 -1.3275
13833TIP3   OH262913   2.484   4.177   4.520 -0.5973  0.3417  0.0790
13833TIP3    H162914   2.520   4.124   4.449  1.8273  0.2964  1.2493
13833TIP3    H262915   2.441   4.115   4.578 -0.7661  0.1178 -0.2840
13834TIP3   OH262916   3.662   5.800  12.024 -0.2033  1.0042  0.4904
13834TIP3    H162917   3.600   5.727  12.023  0.6439  0.2712  0.1713
13834TIP3    H262918   3.647   5.843  12.108 -0.6869  0.4361  0.7020
13835TIP3   OH262919   0.790   0.932  14.837 -0.6411 -0.2176  0.9891
13835TIP3    H162920   0.856   0.931  14.906 -1.3348 -1.3416  1.6782
13835TIP3    H262921   0.827   0.875  14.769 -0.7830 -0.6557  1.2722
13836TIP3   OH262922   1.863   5.574   6.258 -0.1289  0.3114 -0.1354
13836TIP3    H162923   1.795   5.633   6.227  1.0537  1.5348 -0.4692
13836TIP3    H262924   1.890   5.610   6.342 -0.5659 -0.7424  0.4811
13837TIP3   OH262925   3.819   1.105  16.204 -0.1650 -0.0581 -0.1520
13837TIP3    H162926   3.751   1.151  16.154  0.9355  2.4194  0.5238
13837TIP3    H262927   3.774   1.074  16.282 -0.9377 -0.2063 -0.6381
13838TIP3   OH262928   0.852   0.251  17.112 -0.4061 -0.2493 -0.8673
13838TIP3    H162929   0.787   0.297  17.059 -2.6007  0.7196  2.4018
13838TIP3    H262930   0.801   0.187  17.163  1.2719  0.0090  1.2677
13839TIP3   OH262931   1.917   6.040  15.660  0.6691 -0.1483 -0.3522
13839TIP3    H162932   1.836   6.054  15.612  0.9461  0.3059 -0.7020
13839TIP3    H262933   1.981   6.096  15.615  1.8417 -2.4709 -1.7571
13840TIP3   OH262934   3.570   3.238  17.056  0.1406 -0.0698  0.4919
13840TIP3    H162935   3.482   3.266  17.082  0.3636  0.5017  0.6242
13840TIP3    H262936   3.554   3.162  17.000 -0.3713 -1.3269  2.2333
13841TIP3   OH262937   2.375   6.357   3.795  0.4616 -0.7384 -0.2578
13841TIP3    H162938   2.398   6.265   3.789  1.0866 -0.7485  1.5195
13841TIP3    H262939   2.404   6.383   3.883 -1.5704  0.6176  0.0933
13842TIP3   OH262940   0.649   5.789   1.893 -0.4598 -0.0283 -0.7233
13842TIP3    H162941   0.641   5.693   1.893  0.2621 -0.1033  0.1609
13842TIP3    H262942   0.723   5.806   1.835 -0.6213  0.0030 -0.9221
13843TIP3   OH262943   5.544   2.651   3.616  0.2253  0.4127  0.4303
13843TIP3    H162944   5.640   2.643   3.618  0.1555 -0.9097 -0.3201
13843TIP3    H262945   5.528   2.745   3.626  1.6409  0.7565 -0.2002
13844TIP3   OH262946   1.172   4.617   4.936  0.2638 -0.1368 -0.1568
13844TIP3    H162947   1.201   4.669   4.861 -0.4635 -0.3366 -0.5829
13844TIP3    H262948   1.078   4.610   4.925 -0.0298  0.9324  1.4895
13845TIP3   OH262949   3.267   5.751  15.581 -0.1016  0.1406 -0.1193
13845TIP3    H162950   3.313   5.686  15.528 -0.3093  0.4698 -0.7121
13845TIP3    H262951   3.293   5.732  15.671  0.3223 -0.3708 -0.3484
13846TIP3   OH262952   0.016   0.437   4.416  0.5896 -0.4984  0.1703
13846TIP3    H162953   0.032   0.483   4.333 -1.0013  0.8379  0.5532
13846TIP3    H262954  -0.055   0.486   4.457 -0.5453 -2.7564  1.0817
13847TIP3   OH262955   5.618   1.357  11.802  0.0207 -0.0495 -0.1467
13847TIP3    H162956   5.532   1.321  11.823  0.2775 -0.9538 -0.5843
13847TIP3    H262957   5.609   1.451  11.816 -0.4340 -0.3530  1.8377
13848TIP3   OH262958   5.811   4.639  17.023 -0.3321 -0.1778 -0.3343
13848TIP3    H162959   5.885   4.613  17.080  0.2560 -0.9374 -1.4080
13848TIP3    H262960   5.791   4.728  17.050  1.6109  0.4034 -0.6272
13849TIP3   OH262961   4.137   6.039  13.396 -0.0848  0.2280 -0.1915
13849TIP3    H162962   4.055   6.025  13.443 -1.2144 -0.4054 -2.2453
13849TIP3    H262963   4.137   6.132  13.373  0.1830  0.4046  0.4872
13850TIP3   OH262964   4.081   3.993   1.368  0.8447  0.3950  0.1893
13850TIP3    H162965   4.078   4.004   1.273  0.5463  2.2464  0.3756
13850TIP3    H262966   4.100   4.080   1.402 -0.2475  0.0291  1.8991
13851TIP3   OH262967   2.050   2.754   0.968 -0.0739 -0.4912 -0.2582
13851TIP3    H162968   2.091   2.680   0.925  1.0226  0.0670 -0.2089
13851TIP3    H262969   2.082   2.750   1.059  0.9865  0.7132 -0.5457
13852TIP3   OH262970   1.268   1.818  15.212  0.0077 -0.2012  0.0295
13852TIP3    H162971   1.348   1.794  15.259  0.0698 -1.3644 -0.6500
13852TIP3    H262972   1.229   1.735  15.186 -0.0654  0.3874 -1.9096
13853TIP3   OH262973   6.669   6.260  15.067  0.6280  0.3124 -0.7035
13853TIP3    H162974   6.684   6.312  15.146 -0.9130  1.5520 -1.1741
13853TIP3    H262975   6.737   6.289  15.006  0.8033  0.5612 -0.3953
13854TIP3   OH262976   3.377   1.808  12.623  0.1335  0.7766  0.1005
13854TIP3    H162977   3.400   1.900  12.636 -0.6980  1.0171 -0.1002
13854TIP3    H262978   3.400   1.791  12.532  0.8074  0.6234  0.2929
13855TIP3   OH262979   1.148   4.471   5.719  0.0679  0.3361  0.1332
13855TIP3    H162980   1.114   4.481   5.630 -2.4906 -1.8367  0.7465
13855TIP3    H262981   1.213   4.402   5.712  0.5651  0.8308 -0.1898
13856TIP3   OH262982   1.272   3.866  14.998 -0.0709  0.0591  0.1967
13856TIP3    H162983   1.314   3.783  14.975  0.5429  0.4727 -0.1913
13856TIP3    H262984   1.309   3.889  15.083 -1.1577 -0.6683  0.8963
13857TIP3   OH262985   3.229   0.552   1.306 -0.2200  0.0415  0.0102
13857TIP3    H162986   3.227   0.642   1.339 -1.7064 -0.9681  3.2017
13857TIP3    H262987   3.308   0.515   1.344  0.6776  0.1031 -1.7468
13858TIP3   OH262988   2.089   6.285  14.719  0.3425  0.5347 -0.2735
13858TIP3    H162989   2.038   6.255  14.644 -0.3150  1.2558 -0.1250
13858TIP3    H262990   2.024   6.318  14.781  0.9419  0.8091  0.2247
13859TIP3   OH262991   2.441   0.090   0.710  0.4061 -0.5156  0.1422
13859TIP3    H162992   2.367   0.093   0.650  0.6549 -0.3164 -0.1570
13859TIP3    H262993   2.436   0.004   0.750  1.0883 -1.2361 -1.2507
13860TIP3   OH262994   2.446   1.087   5.598  0.0523  0.3618  0.9432
13860TIP3    H162995   2.463   0.993   5.601 -1.2615 -0.0870 -1.8625
13860TIP3    H262996   2.383   1.102   5.669  0.1510 -0.9016  1.3253
13861TIP3   OH262997   1.366   5.185   5.404  0.3888  0.1100  0.0684
13861TIP3    H162998   1.401   5.273   5.387 -2.8646  1.3002 -1.3466
13861TIP3    H262999   1.426   5.126   5.357  2.0201  1.6404  0.1162
13862TIP3   OH263000   6.541   3.754   0.393  0.8931  0.2343 -0.2983
13862TIP3    H163001   6.542   3.838   0.440  1.4604  0.3156 -0.4462
13862TIP3    H263002   6.633   3.730   0.386  0.6584 -1.6209  1.8786
13863TIP3   OH263003   1.743   1.849   2.909 -0.0172  0.1017 -0.4366
13863TIP3    H163004   1.822   1.798   2.930  0.7566  1.1945 -0.6207
13863TIP3    H263005   1.766   1.897   2.830 -0.5218  1.1554  0.0435
13864TIP3   OH263006   4.804   5.265   5.970 -0.3212  0.7186  0.0499
13864TIP3    H163007   4.740   5.237   5.905 -0.2329 -0.8746  0.6219
13864TIP3    H263008   4.775   5.224   6.051  1.0112  0.5830  0.4782
13865TIP3   OH263009   6.479   1.664  12.728 -0.0949 -0.5294 -0.0811
13865TIP3    H163010   6.469   1.645  12.634  0.1111  1.3164 -0.5237
13865TIP3    H263011   6.573   1.677  12.739 -0.0069 -1.6055  0.6005
13866TIP3   OH263012   0.588   1.275  11.545  0.1073  0.1693 -0.0755
13866TIP3    H163013   0.511   1.256  11.492  0.1164  1.5714 -0.6351
13866TIP3    H263014   0.595   1.371  11.544  1.2758  0.1163  0.7930
13867TIP3   OH263015   4.643   1.068  12.240 -0.0552 -0.5988  0.0266
13867TIP3    H163016   4.570   1.100  12.187 -0.2805  0.4976  0.9645
13867TIP3    H263017   4.641   1.122  12.319  1.5414 -0.8040  0.2394
13868TIP3   OH263018   6.675   0.896  15.092 -0.3956  0.4764  0.0653
13868TIP3    H163019   6.762   0.860  15.077 -0.3822  0.7124 -0.4457
13868TIP3    H263020   6.631   0.831  15.147 -0.2911 -0.2122 -0.6481
13869TIP3   OH263021   0.452   3.244  14.532 -0.1991  0.2397 -0.2146
13869TIP3    H163022   0.505   3.324  14.526  0.1651  0.0691  0.6441
13869TIP3    H263023   0.395   3.248  14.455 -0.4075  1.4823 -0.0149
13870TIP3   OH263024   6.161   4.402   0.638 -0.0382 -0.3229 -0.1010
13870TIP3    H163025   6.220   4.400   0.563 -0.4073  0.4978 -0.4229
13870TIP3    H263026   6.078   4.434   0.603 -1.1364 -2.7793  0.0517
13871TIP3   OH263027   3.064   0.774   3.671 -0.1713 -0.7481 -0.3535
13871TIP3    H163028   3.036   0.865   3.663  0.2401 -0.5651  0.1815
13871TIP3    H263029   3.140   0.778   3.730  0.8377 -1.2441 -1.5783
13872TIP3   OH263030   1.193   0.911   0.836 -0.1533  0.2282 -0.4782
13872TIP3    H163031   1.247   0.835   0.814 -1.0244  0.0313 -2.0928
13872TIP3    H263032   1.216   0.977   0.771  1.1298  1.6740  1.3372
13873TIP3   OH263033   3.750   4.344   4.350 -0.1738  0.1591 -0.0469
13873TIP3    H163034   3.828   4.398   4.362  0.1249 -0.7583  2.6768
13873TIP3    H263035   3.783   4.264   4.309  0.3787 -0.2753  1.2054
13874TIP3   OH263036   6.019   1.395   4.841  1.1791 -0.9388 -0.3645
13874TIP3    H163037   6.088   1.449   4.880 -0.0956  0.4745  0.0404
13874TIP3    H263038   6.048   1.379   4.751  0.8864  1.8299 -1.0256
13875TIP3   OH263039   0.574   5.458  12.064 -0.2391  0.9974  0.5381
13875TIP3    H163040   0.524   5.387  12.022 -1.2146  3.2778 -2.5771
13875TIP3    H263041   0.508   5.508  12.111  0.1265  0.9033  1.1575
13876TIP3   OH263042   1.931   3.898   6.900  0.3593 -0.1566 -0.2442
13876TIP3    H163043   1.927   3.972   6.840  2.8115 -0.9018 -1.4676
13876TIP3    H263044   2.007   3.916   6.955 -0.0677 -0.9336  0.6365
13877TIP3   OH263045   0.556   4.968  10.493 -0.0632  0.6063 -0.4286
13877TIP3    H163046   0.622   4.901  10.473 -1.1635 -0.3567 -1.0395
13877TIP3    H263047   0.477   4.936  10.448 -1.1177  1.3666  0.8250
13878TIP3   OH263048   0.175   0.042   5.864 -0.5778  0.3968 -1.2490
13878TIP3    H163049   0.262   0.071   5.838  0.2791  1.7037  2.5737
13878TIP3    H263050   0.125   0.122   5.877 -0.7831 -0.0623  1.2882
13879TIP3   OH263051   3.252   5.493   6.326 -0.1571 -0.6937  0.5144
13879TIP3    H163052   3.197   5.547   6.383 -0.8265 -1.1517  0.3200
13879TIP3    H263053   3.273   5.416   6.379  2.0963  0.4054  1.3609
13880TIP3   OH263054   3.692   3.766   3.585  0.5871  0.2766  0.1496
13880TIP3    H163055   3.724   3.676   3.576 -0.6880 -0.8910  4.5709
13880TIP3    H263056   3.772   3.818   3.596  1.3226 -0.9650  1.0753
13881TIP3   OH263057   3.434   2.560  12.059 -0.0191 -0.2992 -0.0121
13881TIP3    H163058   3.362   2.503  12.087 -0.4728 -0.2920 -1.1100
13881TIP3    H263059   3.509   2.531  12.110 -0.7372 -0.4678  0.9872
13882TIP3   OH263060   0.012   2.235  11.422  0.6125  0.6025 -0.0826
13882TIP3    H163061  -0.038   2.312  11.448 -1.1024 -0.2192 -0.7545
13882TIP3    H263062   0.070   2.218  11.496 -1.2277  0.7107  1.4606
13883TIP3   OH263063   1.064   5.359  15.157  0.2251  0.2235 -0.1633
13883TIP3    H163064   1.001   5.308  15.107  0.7740 -1.8948  1.2032
13883TIP3    H263065   1.067   5.317  15.243  0.6221  2.6616  1.0977
13884TIP3   OH263066   5.722   2.113  12.706 -0.0615 -0.6741 -0.3302
13884TIP3    H163067   5.691   2.085  12.792 -0.4297 -0.7445 -0.4830
13884TIP3    H263068   5.642   2.136  12.658  0.2164  0.2822 -0.3349
13885TIP3   OH263069   6.689   3.222  12.549 -0.3482  0.2765  0.4769
13885TIP3    H163070   6.771   3.208  12.597 -0.0140 -1.1521 -0.4343
13885TIP3    H263071   6.702   3.305  12.503  2.2229 -1.5986 -2.6377
13886TIP3   OH263072   4.446   4.003  12.969 -0.6549  0.1193  0.4315
13886TIP3    H163073   4.542   3.997  12.965 -0.5369  1.7311  0.1009
13886TIP3    H263074   4.424   3.983  13.060 -0.0135 -0.3122  0.4979
13887TIP3   OH263075   5.345   2.094   2.209  0.1783  0.3646  0.5766
13887TIP3    H163076   5.280   2.157   2.177 -0.6021  0.7904  2.8269
13887TIP3    H263077   5.419   2.148   2.237 -0.6250  0.4040  2.8260
13888TIP3   OH263078   0.232   0.862  14.333  0.3438 -0.0440 -0.0371
13888TIP3    H163079   0.218   0.936  14.273  1.3079 -0.8067 -1.2662
13888TIP3    H263080   0.173   0.794  14.301 -0.2772  0.0623  0.8670
13889TIP3   OH263081   5.201   5.065   0.114 -0.6059 -0.0844 -0.0601
13889TIP3    H163082   5.184   5.154   0.082 -2.7610  0.1744  1.5700
13889TIP3    H263083   5.115   5.022   0.112 -0.3514 -0.9003  2.6278
13890TIP3   OH263084   2.134   3.384   3.023  0.2027  0.1024 -0.2351
13890TIP3    H163085   2.111   3.338   2.942  2.6401  1.1383 -1.6483
13890TIP3    H263086   2.145   3.475   2.996  0.4039  0.5891  1.4091
13891TIP3   OH263087   3.729   3.579   2.465  0.5517 -0.0411  0.2979
13891TIP3    H163088   3.764   3.638   2.532  1.4056 -0.9216  0.6536
13891TIP3    H263089   3.733   3.629   2.384  3.9762 -0.4570  0.0234
13892TIP3   OH263090   6.415   6.257  11.801  0.1991  0.4269 -0.1712
13892TIP3    H163091   6.492   6.236  11.854 -0.0422 -0.8968 -0.3074
13892TIP3    H263092   6.404   6.351  11.811  0.3069  0.2618  1.9455
13893TIP3   OH263093   5.216   4.299   3.099 -0.1697 -0.0061  0.4246
13893TIP3    H163094   5.160   4.266   3.169 -0.5397 -2.1479 -0.7887
13893TIP3    H263095   5.182   4.257   3.020  0.6489  1.8131 -0.9541
13894TIP3   OH263096   3.016   1.243  14.489  0.7232 -0.7434  0.1642
13894TIP3    H163097   3.087   1.192  14.528  0.3903 -0.7550  0.7673
13894TIP3    H263098   2.944   1.237  14.553  0.6251  0.3572  0.1764
13895TIP3   OH263099   0.586   6.582  14.859 -0.0704 -0.0585 -0.4610
13895TIP3    H163100   0.567   6.533  14.779  0.9253 -1.5607  0.1852
13895TIP3    H263101   0.663   6.635  14.837  1.1389 -1.5917 -0.1082
13896TIP3   OH263102   2.311   1.721  14.141 -0.6843 -0.0950 -0.1922
13896TIP3    H163103   2.273   1.639  14.112 -0.7344 -1.2086  2.6848
13896TIP3    H263104   2.385   1.695  14.197  1.2753  1.9080 -1.6403
13897TIP3   OH263105   3.894   0.391   5.038 -0.8965 -0.3799 -0.3578
13897TIP3    H163106   3.806   0.426   5.030 -2.2178 -2.8337  1.8544
13897TIP3    H263107   3.885   0.298   5.017  1.6484 -0.3107 -2.2235
13898TIP3   OH263108   1.920   3.936  13.752  0.1494  0.0855  0.1915
13898TIP3    H163109   1.899   3.854  13.708 -0.4723 -0.3983  1.3565
13898TIP3    H263110   2.016   3.940  13.752  0.1710 -0.3398 -0.3945
13899TIP3   OH263111   0.809   2.482   6.067 -0.8044 -0.2152 -0.1856
13899TIP3    H163112   0.849   2.452   6.148 -1.4969  0.4570  0.4247
13899TIP3    H263113   0.792   2.575   6.081 -1.9238 -0.3150 -0.6798
13900TIP3   OH263114   3.257   3.238  10.646  0.0384  0.1767 -0.0748
13900TIP3    H163115   3.174   3.213  10.605 -0.0991  1.2798 -0.4984
13900TIP3    H263116   3.246   3.330  10.668  0.8098  0.0821  0.7587
13901TIP3   OH263117   5.451   4.321   2.473 -0.3021 -0.3096 -0.2296
13901TIP3    H163118   5.522   4.279   2.522  0.5218 -2.0691 -2.7095
13901TIP3    H263119   5.490   4.341   2.388 -1.9067  1.7453 -0.5369
13902TIP3   OH263120   2.480   5.701   5.061  0.2810 -0.5241  0.2692
13902TIP3    H163121   2.553   5.754   5.093 -0.1952  0.6638 -0.5327
13902TIP3    H263122   2.518   5.615   5.045  2.0926  0.6228 -2.2214
13903TIP3   OH263123   6.527   1.091  14.965 -0.2923  0.8771 -0.0045
13903TIP3    H163124   6.574   1.029  15.021 -0.3748  1.5397  0.8180
13903TIP3    H263125   6.547   1.063  14.876 -1.3989 -1.1763  0.3159
13904TIP3   OH263126   0.903   2.336  13.297  0.3914  0.6260  0.1677
13904TIP3    H163127   0.906   2.427  13.328  0.2446  0.6749  0.0430
13904TIP3    H263128   0.813   2.325  13.267  0.2669  0.2777  0.6600
13905TIP3   OH263129   2.657   5.152  16.260  0.1545  0.3808 -0.6291
13905TIP3    H163130   2.673   5.242  16.288  0.1141  0.0767  0.4146
13905TIP3    H263131   2.722   5.100  16.307 -1.2397 -0.3870  0.5494
13906TIP3   OH263132   4.169   3.475  16.557  0.0982  0.2273  0.5318
13906TIP3    H163133   4.079   3.445  16.571  0.0296  0.0001 -0.3869
13906TIP3    H263134   4.186   3.531  16.633 -0.4484 -0.5513  1.2647
13907TIP3   OH263135   3.493   5.756   5.993  0.1791  0.1444  0.3376
13907TIP3    H163136   3.495   5.852   5.991  3.2567  0.2019  1.0003
13907TIP3    H263137   3.493   5.734   6.086 -2.3688 -0.5916  0.2255
13908TIP3   OH263138   4.701   0.258   3.175  0.0722 -0.3841 -0.0170
13908TIP3    H163139   4.789   0.232   3.200  0.8314  1.6787 -0.3427
13908TIP3    H263140   4.699   0.249   3.080 -0.2140 -0.8155  0.0274
13909TIP3   OH263141   3.049   6.070  14.633  0.1820  0.0025  0.2048
13909TIP3    H163142   3.006   5.986  14.620  0.5275  0.0081 -1.1387
13909TIP3    H263143   3.017   6.100  14.718 -2.6116  0.0965 -0.7615
13910TIP3   OH263144   5.694   5.555  13.964 -0.2707  0.4885 -0.1681
13910TIP3    H163145   5.688   5.478  13.907  2.2222 -0.1280  0.3000
13910TIP3    H263146   5.706   5.629  13.904  1.3663 -0.0383 -0.5420
13911TIP3   OH263147   2.819   6.054   3.503  0.1164  0.3448  0.2614
13911TIP3    H163148   2.821   6.072   3.597 -0.6586  0.3751  0.2810
13911TIP3    H263149   2.731   6.082   3.476 -0.0014 -0.5335 -0.2939
13912TIP3   OH263150   6.631   5.598  15.794  0.7975  0.0935 -0.2304
13912TIP3    H163151   6.564   5.568  15.732  1.9924  0.4702 -1.7604
13912TIP3    H263152   6.636   5.692  15.781 -0.0632  0.4410  1.6434
13913TIP3   OH263153   5.788   0.394  12.625  0.1459 -0.1352 -0.3052
13913TIP3    H163154   5.771   0.341  12.547 -0.2508 -0.2615 -0.1363
13913TIP3    H263155   5.769   0.336  12.698 -1.4702  0.5760 -0.1050
13914TIP3   OH263156   0.791   5.349  14.357  0.2245 -0.0340 -0.0159
13914TIP3    H163157   0.801   5.418  14.292 -0.7075 -1.1099 -1.3505
13914TIP3    H263158   0.698   5.326  14.353  0.5985 -1.6638  0.0726
13915TIP3   OH263159   6.156   1.338   6.141  0.1435 -0.1574 -0.1395
13915TIP3    H163160   6.202   1.254   6.150 -1.8154 -1.4284 -1.3404
13915TIP3    H263161   6.168   1.380   6.226  1.6459 -1.3937  0.3119
13916TIP3   OH263162   1.855   3.874  10.904 -0.3584 -0.0121 -0.0995
13916TIP3    H163163   1.812   3.886  10.819  0.3347  1.4928 -0.2577
13916TIP3    H263164   1.928   3.814  10.886 -0.3062  0.1766 -0.5283
13917TIP3   OH263165   5.682   1.320   0.102  0.5084 -0.0571 -0.2006
13917TIP3    H163166   5.640   1.262   0.039  1.4556  0.3166 -1.1984
13917TIP3    H263167   5.683   1.406   0.060 -3.6076  1.5610  2.4042
13918TIP3   OH263168   3.879   4.762  12.620 -0.0098 -0.0793 -0.0589
13918TIP3    H163169   3.908   4.710  12.546  0.4082 -0.3027  0.2564
13918TIP3    H263170   3.941   4.834  12.625 -1.2843  1.1654 -1.2441
13919TIP3   OH263171   0.614   0.679   6.168 -0.0913 -0.2289 -0.1196
13919TIP3    H163172   0.591   0.620   6.240  0.4458 -0.2735  0.0199
13919TIP3    H263173   0.697   0.717   6.194  0.5844 -0.9519 -1.1339
13920TIP3   OH263174   5.624   4.432   3.534  0.2789 -0.0822  0.3219
13920TIP3    H163175   5.533   4.460   3.533 -0.0533 -1.1235 -0.0493
13920TIP3    H263176   5.620   4.339   3.558  1.0404 -0.7661 -1.9863
13921TIP3   OH263177   3.064   4.529  15.966 -0.6005  0.6419  0.0443
13921TIP3    H163178   3.128   4.573  16.022 -2.6588  4.4267 -0.2653
13921TIP3    H263179   3.090   4.553  15.877 -1.6875  1.1964 -0.1428
13922TIP3   OH263180   2.731   6.326   1.834 -0.3001 -0.0973 -0.8336
13922TIP3    H163181   2.693   6.259   1.892  2.0379 -0.7563  0.0589
13922TIP3    H263182   2.730   6.406   1.887 -0.0973 -0.2060 -0.6634
13923TIP3   OH263183   3.310   2.860   6.231  0.3040  0.8175  0.9741
13923TIP3    H163184   3.327   2.945   6.272 -0.3296  0.4991  1.9359
13923TIP3    H263185   3.215   2.847   6.241  0.4526 -0.1836  1.2268
13924TIP3   OH263186   5.329   0.643   4.829 -0.6966  0.0356  0.8169
13924TIP3    H163187   5.411   0.692   4.819 -0.1840 -0.2578  2.9508
13924TIP3    H263188   5.276   0.669   4.754  1.3689  0.1737 -0.6591
13925TIP3   OH263189   4.741   4.713  17.206  0.2653 -0.0281  0.2712
13925TIP3    H163190   4.767   4.637  17.155  1.0994 -0.0095  0.6405
13925TIP3    H263191   4.803   4.782  17.181 -0.3838  0.4853  0.0518
13926TIP3   OH263192   4.643   3.459  12.722  0.1475 -0.2473 -0.2300
13926TIP3    H163193   4.614   3.489  12.808 -1.5205 -1.0339 -0.4896
13926TIP3    H263194   4.563   3.441  12.673  1.0596 -0.9773 -1.5429
13927TIP3   OH263195   4.754   2.989   5.762  0.4544  0.0939  0.5105
13927TIP3    H163196   4.674   2.938   5.753  1.0333 -0.4950 -2.0798
13927TIP3    H263197   4.728   3.079   5.743  0.4219 -0.1281 -0.5366
13928TIP3   OH263198   0.014   0.761   0.795 -0.0312  0.5927 -0.0397
13928TIP3    H163199   0.042   0.796   0.880 -1.2367 -1.8678  1.5006
13928TIP3    H263200   0.091   0.715   0.761 -0.0803 -0.0928  0.7296
13929TIP3   OH263201   6.585   1.963   3.370  0.4680  0.0961 -0.2491
13929TIP3    H163202   6.675   1.932   3.374  0.1512 -0.8200  0.0271
13929TIP3    H263203   6.548   1.920   3.293 -0.0662 -0.4693  0.3132
13930TIP3   OH263204   2.776   2.681   5.695 -0.2346 -0.2952 -0.3943
13930TIP3    H163205   2.822   2.614   5.644 -1.9689 -0.1779 -2.2264
13930TIP3    H263206   2.683   2.665   5.676 -0.7193  2.3541 -0.5447
13931TIP3   OH263207   4.103   2.059  11.994  0.4660 -0.1968  0.4294
13931TIP3    H163208   4.071   2.149  11.999  1.2060  0.2728 -1.8090
13931TIP3    H263209   4.113   2.043  11.900 -0.0011 -2.7646  0.7480
13932TIP3   OH263210   4.574   2.905  14.176 -0.6982 -1.0927 -0.1152
13932TIP3    H163211   4.489   2.932  14.141 -0.7081 -0.2504  0.5275
13932TIP3    H263212   4.632   2.902  14.100 -1.1863 -1.1960 -0.4839
13933TIP3   OH263213   3.487   2.373   4.990 -0.0493  0.0672 -0.6453
13933TIP3    H163214   3.425   2.307   4.959  0.1856  0.4029 -1.9155
13933TIP3    H263215   3.446   2.456   4.965  0.7743  0.3002 -1.2748
13934TIP3   OH263216   2.840   5.540  13.447  0.4758 -0.3611 -0.2901
13934TIP3    H163217   2.774   5.582  13.392  0.3779 -1.6025 -1.1631
13934TIP3    H263218   2.889   5.613  13.486 -0.1595  0.5569 -1.1653
13935TIP3   OH263219   6.076   5.487   3.015 -0.2623 -0.4338 -0.1953
13935TIP3    H163220   6.116   5.408   2.981  0.6072 -0.3243  0.5270
13935TIP3    H263221   6.119   5.558   2.968 -0.2853 -0.3527 -0.0944
13936TIP3   OH263222   3.897   2.874  14.558  0.3757  0.3568 -0.2088
13936TIP3    H163223   3.989   2.898  14.551  1.2316 -1.9727  1.6611
13936TIP3    H263224   3.858   2.942  14.613  1.4332  0.4217  0.4825
13937TIP3   OH263225   4.403   3.880  15.561 -0.3378  0.0798  0.1268
13937TIP3    H163226   4.437   3.878  15.650  0.2712 -0.9810 -0.1153
13937TIP3    H263227   4.409   3.972  15.536  1.0685  0.1411  0.5961
13938TIP3   OH263228   3.843   4.386   2.174 -0.3333  0.0587 -0.0463
13938TIP3    H163229   3.884   4.470   2.152  0.6991 -0.3763  0.1591
13938TIP3    H263230   3.900   4.321   2.134 -0.8193 -0.5722  0.2745
13939TIP3   OH263231   0.665   2.223   5.501 -0.3311 -0.2500 -0.2008
13939TIP3    H163232   0.711   2.175   5.569  0.3600  0.6138 -0.0296
13939TIP3    H263233   0.613   2.288   5.548  0.3279  0.5064 -0.4815
13940TIP3   OH263234   2.049   3.713  11.760  0.2057 -0.3893  0.1424
13940TIP3    H163235   2.142   3.717  11.782  0.2263  4.1981  0.0934
13940TIP3    H263236   2.004   3.740  11.841 -0.8441  0.2649 -0.6358
13941TIP3   OH263237   5.742   4.840  14.243 -0.3077  0.0143 -0.5375
13941TIP3    H163238   5.759   4.795  14.325  0.7740 -2.3593 -1.9727
13941TIP3    H263239   5.647   4.851  14.241 -0.2457  1.4140  1.6088
13942TIP3   OH263240   4.876   0.188  13.204  0.3651  0.4182 -0.3711
13942TIP3    H163241   4.964   0.169  13.237  0.8227  0.5491 -1.4648
13942TIP3    H263242   4.883   0.176  13.110 -0.5595  1.3264 -0.5721
13943TIP3   OH263243   4.123   1.233   4.077 -0.4366 -0.0324  0.0593
13943TIP3    H163244   4.170   1.303   4.122  0.3506  0.4760 -1.4777
13943TIP3    H263245   4.165   1.152   4.107  1.1615  0.3825 -0.9090
13944TIP3   OH263246   5.059   3.267   3.815 -0.2577 -0.2029  0.0844
13944TIP3    H163247   5.073   3.215   3.894 -2.8070 -0.0417  0.7234
13944TIP3    H263248   5.030   3.204   3.749 -0.5088 -0.0034  0.0022
13945TIP3   OH263249   4.645   5.129   5.801  0.2492  0.8274  0.2117
13945TIP3    H163250   4.577   5.196   5.800 -1.3917 -0.7435 -1.0103
13945TIP3    H263251   4.600   5.051   5.834  0.7010 -0.8838 -2.8646
13946TIP3   OH263252   0.461   6.613   3.428 -0.3760  0.2210 -0.4543
13946TIP3    H163253   0.427   6.667   3.357 -0.9461 -0.2163 -0.5271
13946TIP3    H263254   0.463   6.671   3.504 -0.4912  0.4809 -0.6482
13947TIP3   OH263255   6.702   6.502  16.025 -0.1595  0.5536  0.2703
13947TIP3    H163256   6.694   6.582  16.076  0.8784  0.6833  0.2594
13947TIP3    H263257   6.666   6.524  15.939  3.0845  2.1297 -0.8623
13948TIP3   OH263258   0.893   3.634  13.045 -0.4016 -0.0156 -0.5575
13948TIP3    H163259   0.947   3.690  12.988 -0.5002  0.4895 -0.1599
13948TIP3    H263260   0.832   3.694  13.087  0.5518 -0.1621  1.1277
13949TIP3   OH263261   1.328   6.109  12.020 -0.2890 -0.0932  0.2142
13949TIP3    H163262   1.419   6.092  11.994 -0.3384  1.0811 -0.8091
13949TIP3    H263263   1.276   6.076  11.947 -0.7270 -1.1167  0.9693
13950TIP3   OH263264   3.791   4.976   3.671  0.6736 -0.3393 -0.5869
13950TIP3    H163265   3.752   5.050   3.718 -0.8388 -1.1636 -0.5163
13950TIP3    H263266   3.720   4.940   3.619  1.4336 -1.6722 -0.7358
13951TIP3   OH263267   2.770   1.694   3.447  0.3656  0.2362  0.2279
13951TIP3    H163268   2.852   1.645   3.453  0.0882 -0.2374  0.2154
13951TIP3    H263269   2.757   1.707   3.353 -0.6254 -1.5091  0.0979
13952TIP3   OH263270   1.695   1.383  11.561  0.1877 -0.5427  0.1936
13952TIP3    H163271   1.702   1.429  11.644  0.3320 -2.1413  1.1244
13952TIP3    H263272   1.774   1.407  11.513  1.1712 -1.1994  1.4122
13953TIP3   OH263273   2.110   4.893   4.653 -0.3001  0.0687  0.2138
13953TIP3    H163274   2.203   4.874   4.642 -0.0489  1.8453 -1.2538
13953TIP3    H263275   2.105   4.951   4.729 -0.2523 -0.2885  0.4893
13954TIP3   OH263276   2.962   6.321   1.289  0.3030 -0.0863  0.3912
13954TIP3    H163277   2.886   6.362   1.247  0.0241 -1.0983 -0.1248
13954TIP3    H263278   2.928   6.238   1.323  1.2233 -0.6368 -0.0170
13955TIP3   OH263279   4.375   0.594   1.237 -0.4663  0.0347 -0.4102
13955TIP3    H163280   4.468   0.576   1.251 -0.6719 -1.8482 -1.1886
13955TIP3    H263281   4.352   0.656   1.306  0.9938 -0.6581  0.7495
13956TIP3   OH263282   5.514   2.308  13.539 -0.6293  0.5115  0.2043
13956TIP3    H163283   5.580   2.378  13.536 -0.8882  0.7284 -1.1316
13956TIP3    H263284   5.448   2.341  13.600  0.7841 -0.0089  2.1040
13957TIP3   OH263285   2.263   5.320   2.026  0.1172  0.1669  0.3974
13957TIP3    H163286   2.346   5.344   2.068  0.4779 -0.3009 -0.0264
13957TIP3    H263287   2.247   5.230   2.055  0.7861 -0.4648 -1.0506
13958TIP3   OH263288   2.530   0.103   5.395 -0.6958  0.5305  0.0518
13958TIP3    H163289   2.537   0.049   5.316  0.1447 -0.7163  0.9272
13958TIP3    H263290   2.514   0.191   5.363 -0.9160 -0.0443 -1.4877
13959TIP3   OH263291   6.154   3.765   1.464  0.2012 -0.7940 -0.4365
13959TIP3    H163292   6.080   3.766   1.525  0.5306 -0.5119 -0.0290
13959TIP3    H263293   6.201   3.683   1.485 -0.3467 -1.2937 -1.1341
13960TIP3   OH263294   3.031   4.016   1.394 -0.2514  0.1787  0.9365
13960TIP3    H163295   2.955   4.046   1.345  0.2009 -0.3516 -0.1458
13960TIP3    H263296   3.007   3.928   1.423  0.6024 -0.7871 -1.0640
13961TIP3   OH263297   3.542   1.784   6.372 -0.3562 -0.3411 -0.1972
13961TIP3    H163298   3.533   1.711   6.311 -0.4587  0.1980 -0.8438
13961TIP3    H263299   3.600   1.751   6.441 -0.2568 -0.9652 -0.5705
13962TIP3   OH263300   1.982   4.830  15.097 -0.2120 -0.1937 -0.4635
13962TIP3    H163301   1.947   4.909  15.140  0.1420  0.7781 -1.8826
13962TIP3    H263302   1.905   4.774  15.085 -1.0065  1.1226 -1.8635
13963TIP3   OH263303   1.726   3.662  14.963 -0.2340 -0.5787 -0.7963
13963TIP3    H163304   1.690   3.576  14.940 -1.1329  0.1705 -2.4041
13963TIP3    H263305   1.813   3.643  14.999 -0.2935 -2.1341 -1.3856
13964TIP3   OH263306   2.886   1.715   2.328  0.0842  0.3577 -0.2482
13964TIP3    H163307   2.936   1.664   2.392 -1.2310 -0.4347  0.2016
13964TIP3    H263308   2.893   1.665   2.247  1.2548  1.0466 -0.5855
13965TIP3   OH263309   2.850   4.935   1.720  0.0495 -0.6926  0.0360
13965TIP3    H163310   2.813   4.902   1.638 -1.3140  1.5351 -0.3399
13965TIP3    H263311   2.858   5.030   1.706 -1.7787  0.0382  2.9741
13966TIP3   OH263312   3.225   0.851   3.872 -0.6654  0.5886 -0.2205
13966TIP3    H163313   3.186   0.930   3.910  1.0168  0.4728  1.9436
13966TIP3    H263314   3.316   0.874   3.858 -0.6388 -0.2989 -1.6952
13967TIP3   OH263315   5.342   6.537   5.620 -0.2194 -0.0564 -0.4700
13967TIP3    H163316   5.337   6.480   5.543  0.7448 -0.4581 -0.2464
13967TIP3    H263317   5.340   6.477   5.694  1.0710  0.1716 -0.2355
13968TIP3   OH263318   6.192   5.838   1.655  0.3447  0.1072 -0.1850
13968TIP3    H163319   6.179   5.745   1.636  0.0392  0.2974 -0.9524
13968TIP3    H263320   6.275   5.842   1.702  0.7345 -0.4741 -0.8066
13969TIP3   OH263321   3.671   3.051   2.987  0.3508 -0.9872  0.7592
13969TIP3    H163322   3.736   2.981   2.974  0.9760 -0.3411  0.3417
13969TIP3    H263323   3.722   3.126   3.018  0.0764  0.0237 -1.0528
13970TIP3   OH263324   5.833   6.277  14.476  0.0257  0.3207  0.0817
13970TIP3    H163325   5.841   6.219  14.552 -1.2569  0.9597  0.7405
13970TIP3    H263326   5.864   6.362  14.508  1.8262  0.0681 -0.8557
13971TIP3   OH263327   0.491   6.390  15.066  0.0243 -0.3024 -0.2263
13971TIP3    H163328   0.536   6.463  15.023  0.9301  0.7955  2.3624
13971TIP3    H263329   0.400   6.418  15.073  0.2744  0.4254  0.3211
13972TIP3   OH263330   5.182   3.472  11.021 -0.0120 -0.2361 -0.0449
13972TIP3    H163331   5.271   3.448  10.995 -0.7479 -2.4675 -0.7768
13972TIP3    H263332   5.155   3.404  11.083 -1.2159  0.3625  0.1279
13973TIP3   OH263333   3.965   4.076   5.915  0.1900  0.1187 -0.3230
13973TIP3    H163334   4.017   4.143   5.869 -0.0160 -0.1548 -0.9707
13973TIP3    H263335   4.029   4.007   5.935  0.7763  1.2191  1.8764
13974TIP3   OH263336   1.378   0.268  15.111  0.3300 -0.1541  0.5845
13974TIP3    H163337   1.353   0.327  15.040  1.7303  0.9473  0.9602
13974TIP3    H263338   1.304   0.209  15.120 -0.8777  1.1659 -0.2179
13975TIP3   OH263339   6.135   2.922   5.178  0.1836 -0.7445  0.1115
13975TIP3    H163340   6.191   2.999   5.171 -1.2470  0.2002 -2.5116
13975TIP3    H263341   6.188   2.850   5.144  1.0543 -0.6537  1.2387
13976TIP3   OH263342   0.891   6.140   4.376  0.1454  0.2310  0.3364
13976TIP3    H163343   0.896   6.055   4.421  1.4212  0.1402  0.0872
13976TIP3    H263344   0.923   6.121   4.287 -1.2335  0.6407 -0.2630
13977TIP3   OH263345   5.319   1.453   1.560 -0.8347  0.3819 -0.8387
13977TIP3    H163346   5.380   1.503   1.505 -0.2404  0.2950 -0.2787
13977TIP3    H263347   5.260   1.411   1.498  0.6106 -0.7544 -1.5236
13978TIP3   OH263348   2.839   0.835  10.854  0.4371  0.6542  0.3817
13978TIP3    H163349   2.810   0.797  10.936  1.9243 -0.9091  0.2207
13978TIP3    H263350   2.758   0.854  10.807 -0.4131 -1.3550  0.9268
13979TIP3   OH263351   4.337   1.585   0.858  0.2682 -0.7524 -0.0530
13979TIP3    H163352   4.246   1.555   0.854 -0.3326  1.0244 -0.6073
13979TIP3    H263353   4.353   1.598   0.952 -1.4126  2.5427 -0.0374
13980TIP3   OH263354   4.540   1.732  10.417  0.3662 -0.6145 -0.4050
13980TIP3    H163355   4.496   1.659  10.373 -1.3043  0.0019  0.1612
13980TIP3    H263356   4.469   1.780  10.460  1.6897  0.0520  1.1319
13981TIP3   OH263357   3.828   3.960   6.485 -0.4779 -0.1262  0.3899
13981TIP3    H163358   3.739   3.983   6.459 -0.5662 -1.6789 -0.8700
13981TIP3    H263359   3.848   3.880   6.435  0.2101 -2.0721  3.4807
13982TIP3   OH263360   2.591   1.652   2.816 -0.0309  0.0474 -0.6850
13982TIP3    H163361   2.524   1.600   2.861  0.4108  0.4379  0.4823
13982TIP3    H263362   2.578   1.741   2.850  0.1268  0.4221 -1.5863
13983TIP3   OH263363   4.971   0.270   5.996  0.3368 -0.1088  0.1524
13983TIP3    H163364   5.021   0.269   6.078 -0.4033 -0.4127  0.6128
13983TIP3    H263365   4.932   0.357   5.992  0.6630  0.0322 -0.0692
13984TIP3   OH263366   0.688   4.558  14.018 -0.3261  0.2386  0.4290
13984TIP3    H163367   0.767   4.504  14.014 -0.4797  0.0141  0.4339
13984TIP3    H263368   0.651   4.554  13.930  0.8142  2.0833 -0.2126
13985TIP3   OH263369   6.647   0.750  13.297  0.0226  0.4290 -0.2058
13985TIP3    H163370   6.711   0.799  13.349  0.9256 -0.2566 -0.6434
13985TIP3    H263371   6.686   0.747  13.209 -0.1988 -0.7301 -0.2752
13986TIP3   OH263372   5.732   3.369  15.262 -0.8106 -0.0348 -0.3666
13986TIP3    H163373   5.702   3.301  15.321  0.0944 -0.5112 -0.4438
13986TIP3    H263374   5.827   3.371  15.273 -0.7146  0.4542 -1.1717
13987TIP3   OH263375   4.125   6.433  13.135  0.2601 -0.0299  0.2663
13987TIP3    H163376   4.062   6.367  13.106  0.9343 -0.8515  0.6320
13987TIP3    H263377   4.210   6.393  13.121  0.8082  1.6159 -1.5535
13988TIP3   OH263378   4.923   4.382  11.239  0.2222  1.0500 -0.3620
13988TIP3    H163379   4.983   4.309  11.247  0.4583  1.3611  0.8331
13988TIP3    H263380   4.979   4.460  11.245 -0.4062  1.4028  2.8572
13989TIP3   OH263381   4.551   0.143   3.694  0.9578  0.3305  0.1657
13989TIP3    H163382   4.544   0.153   3.599  1.0044  0.4235  0.1715
13989TIP3    H263383   4.472   0.095   3.719  1.5667 -0.8373 -0.0798
13990TIP3   OH263384   0.699   0.174   4.891 -0.3345  0.1444  0.1547
13990TIP3    H163385   0.622   0.121   4.913 -0.2506  0.3272  0.9382
13990TIP3    H263386   0.765   0.148   4.956  0.2413  0.0380 -0.4666
13991TIP3   OH263387   3.589   5.717  13.907  0.1066  0.2215 -0.2640
13991TIP3    H163388   3.552   5.715  13.995  0.2641  1.8732 -0.1412
13991TIP3    H263389   3.597   5.624  13.882 -1.5360 -0.2378  0.7732
13992TIP3   OH263390   1.585   0.064   2.644  0.5933  0.5831 -0.1364
13992TIP3    H163391   1.534   0.118   2.584  0.5611 -0.4990 -1.1091
13992TIP3    H263392   1.597  -0.019   2.598  0.0400 -0.5222  1.6074
13993TIP3   OH263393   0.352   5.939   3.882  0.2203 -0.5419 -0.0840
13993TIP3    H163394   0.379   5.944   3.790 -1.6925  2.2261 -0.6394
13993TIP3    H263395   0.401   5.866   3.918  1.9826 -0.9391 -2.9903
13994TIP3   OH263396   1.495   6.739  12.874 -0.0366 -0.5192 -0.1391
13994TIP3    H163397   1.409   6.727  12.915  0.7981  1.1009  2.3364
13994TIP3    H263398   1.482   6.711  12.784 -2.8223 -1.5336  0.4521
13995TIP3   OH263399   1.084   3.843   5.605 -0.1045 -0.5192 -0.4551
13995TIP3    H163400   1.028   3.918   5.625  0.4199 -0.2016 -0.1418
13995TIP3    H263401   1.113   3.811   5.690  0.4324 -0.4871 -0.6202
13996TIP3   OH263402   3.385   6.453  10.476 -0.0374 -0.7056  0.4261
13996TIP3    H163403   3.450   6.497  10.421 -0.0998 -0.1759  0.7745
13996TIP3    H263404   3.302   6.493  10.454 -0.3885 -1.9401 -0.6038
13997TIP3   OH263405   3.088   3.781  11.964  0.3942 -0.1952 -0.7074
13997TIP3    H163406   3.136   3.760  11.885  0.0780  0.2479 -1.0222
13997TIP3    H263407   2.997   3.784  11.938  0.4056  1.4992 -0.6974
13998TIP3   OH263408   4.348   1.657  10.713 -0.3360  0.4006 -0.2913
13998TIP3    H163409   4.335   1.712  10.636  3.0597  0.8641 -0.7072
13998TIP3    H263410   4.284   1.688  10.776 -1.6418  1.6132 -2.1284
13999TIP3   OH263411   5.100   5.775  15.608 -0.0718  0.0771 -0.1939
13999TIP3    H163412   5.101   5.703  15.545 -0.6099 -0.2469  0.1558
13999TIP3    H263413   5.104   5.732  15.693 -2.3351  0.3033  0.1112
14000TIP3   OH263414   0.757   1.305  16.584  0.1153  0.4735 -0.0734
14000TIP3    H163415   0.701   1.358  16.528  1.9010  0.6886 -1.7991
14000TIP3    H263416   0.810   1.368  16.632  0.2779  0.2751  0.0084
14001TIP3   OH263417   0.582   6.000  14.089 -0.5152 -0.3422 -0.1131
14001TIP3    H163418   0.556   5.943  14.161 -0.0986 -2.2538 -1.4066
14001TIP3    H263419   0.676   5.988  14.082 -0.6882 -1.0219 -1.6297
14002TIP3   OH263420   3.289   4.364  12.413 -0.1470 -0.9427 -0.1919
14002TIP3    H163421   3.327   4.400  12.333 -1.3635 -0.6909 -0.6723
14002TIP3    H263422   3.339   4.405  12.483 -1.1770  1.3619 -0.7256
14003TIP3   OH263423   5.940   3.457   5.638 -0.3456  0.8810  0.2416
14003TIP3    H163424   5.863   3.467   5.694 -1.1594 -2.1188 -0.1586
14003TIP3    H263425   6.013   3.445   5.700 -1.0521 -1.1993  0.7668
14004TIP3   OH263426   2.312   0.591   1.076  0.1949 -0.0968  0.3649
14004TIP3    H163427   2.383   0.572   1.015  0.8440  0.9667  0.7507
14004TIP3    H263428   2.356   0.601   1.161 -0.1770  2.0348  0.3702
14005TIP3   OH263429   5.983   2.602   5.034  0.2651 -0.2631  0.3298
14005TIP3    H163430   5.955   2.661   5.104  2.0265  0.3283  0.5630
14005TIP3    H263431   5.902   2.583   4.987 -0.7247  0.4823  1.6389
14006TIP3   OH263432   1.116   4.601   1.279 -0.7756  0.8054  0.2420
14006TIP3    H163433   1.074   4.586   1.195 -0.4560  1.2018  0.0083
14006TIP3    H263434   1.113   4.516   1.323 -0.1770  0.3734 -0.5204
14007TIP3   OH263435   0.609   2.761  12.294  0.0320 -0.0265 -0.0585
14007TIP3    H163436   0.622   2.852  12.322  0.5004 -0.4375  1.1380
14007TIP3    H263437   0.516   2.754  12.275 -0.2890  0.3494  1.2605
14008TIP3   OH263438   5.514   5.938  11.170  0.0622  0.4308  0.2401
14008TIP3    H163439   5.575   5.937  11.097 -1.3036 -2.4099 -0.9990
14008TIP3    H263440   5.427   5.940  11.130 -0.7326 -1.3321  1.7328
14009TIP3   OH263441   1.638   0.533  12.235  0.0745 -0.2692 -0.4280
14009TIP3    H163442   1.705   0.601  12.224 -0.0883 -0.2024 -1.0513
14009TIP3    H263443   1.643   0.482  12.154 -2.0439  1.0033 -1.4358
14010TIP3   OH263444   0.641   2.633  14.191 -0.1585  0.0098 -0.0953
14010TIP3    H163445   0.695   2.623  14.269 -0.4973  1.1295  0.3061
14010TIP3    H263446   0.591   2.552  14.185  1.9157 -1.2879 -0.7856
14011TIP3   OH263447   1.895   0.294  13.131 -0.5077 -0.5489  0.0061
14011TIP3    H163448   1.812   0.317  13.173 -0.2304 -0.4264  0.4985
14011TIP3    H263449   1.925   0.215  13.177  0.0774 -0.0918  0.4333
14012TIP3   OH263450   1.191   0.897   5.502  0.1664  0.2789  0.3766
14012TIP3    H163451   1.253   0.949   5.553  1.4238  0.5848 -1.3574
14012TIP3    H263452   1.161   0.957   5.433  0.1944 -0.7286 -0.5432
14013TIP3   OH263453   2.796   2.049  14.557 -0.4315  0.2391  0.0077
14013TIP3    H163454   2.706   2.067  14.585 -0.1540  0.9001  0.4788
14013TIP3    H263455   2.788   2.033  14.463 -1.0725  0.0461  0.0872
14014TIP3   OH263456   3.272   1.467  15.384  0.4359 -0.4239 -0.0906
14014TIP3    H163457   3.333   1.511  15.326  1.5984 -3.7820 -1.6719
14014TIP3    H263458   3.194   1.453  15.332 -0.4425  0.8317  0.8273
14015TIP3   OH263459   1.182   2.626  14.446 -0.2134 -0.6327 -0.0909
14015TIP3    H163460   1.151   2.716  14.449 -1.6201 -1.0355 -1.2401
14015TIP3    H263461   1.161   2.596  14.358  1.0315 -1.8287 -0.0199
14016TIP3   OH263462   1.574   5.027   5.340 -0.7063 -0.0749  0.0003
14016TIP3    H163463   1.663   5.061   5.332 -0.8241  0.3469  0.4202
14016TIP3    H263464   1.581   4.956   5.403 -0.7046  0.0919  0.1871
14017TIP3   OH263465   4.061   1.062  16.846  0.6044 -0.0744 -0.4138
14017TIP3    H163466   4.053   1.026  16.758  1.7257 -0.2243 -0.4736
14017TIP3    H263467   4.153   1.049  16.869  0.1723 -0.7296  1.0866
14018TIP3   OH263468   4.698   3.096   4.668 -0.0235  0.5130  0.0673
14018TIP3    H163469   4.733   3.034   4.604  0.8126  0.7964  0.2394
14018TIP3    H263470   4.650   3.041   4.731  1.2914 -0.0563  0.6028
14019TIP3   OH263471   4.600   4.678  11.640  0.2917  0.4136  0.3946
14019TIP3    H163472   4.570   4.645  11.724  1.8879  0.1027  0.8750
14019TIP3    H263473   4.620   4.770  11.656 -3.2241  1.5498 -0.7050
14020TIP3   OH263474   4.649   3.789  10.998 -0.3030 -0.1755  0.1622
14020TIP3    H163475   4.743   3.789  10.985 -0.4649 -0.9237 -1.2409
14020TIP3    H263476   4.632   3.861  11.058  1.1023  0.3075  0.0007
14021TIP3   OH263477   6.696   0.857   2.943  0.3126  0.6226 -0.7585
14021TIP3    H163478   6.720   0.765   2.940 -0.3075  0.4788 -1.5328
14021TIP3    H263479   6.700   0.887   2.852  0.5999  1.3830 -0.5054
14022TIP3   OH263480   4.721   4.556   3.426  0.1601  0.0559  0.6531
14022TIP3    H163481   4.772   4.590   3.353  0.2565 -2.0524 -0.3407
14022TIP3    H263482   4.749   4.609   3.501  2.6796  0.0099 -0.1543
14023TIP3   OH263483   2.103   5.011  14.123 -0.6297 -0.2020  0.5101
14023TIP3    H163484   2.109   4.980  14.214 -0.1784 -0.0166  0.5480
14023TIP3    H263485   2.159   5.088  14.121 -0.2788 -0.4680 -0.0411
14024TIP3   OH263486   2.280   3.802   2.715 -0.6517 -0.6323 -0.0704
14024TIP3    H163487   2.196   3.837   2.684  0.2825  0.5055 -1.4645
14024TIP3    H263488   2.338   3.810   2.639  0.5048 -2.1649  0.6148
14025TIP3   OH263489   6.684   2.661   6.706 -0.1389  0.3341 -0.0422
14025TIP3    H163490   6.665   2.736   6.649 -1.6895 -0.8800 -1.1981
14025TIP3    H263491   6.775   2.639   6.686 -0.3546  0.5474 -1.3362
14026TIP3   OH263492   5.751   3.942   2.047  0.0616 -0.3240 -0.2565
14026TIP3    H163493   5.678   3.939   1.985 -0.1011  0.8585 -0.1435
14026TIP3    H263494   5.829   3.931   1.993 -0.1749 -1.6321 -0.3740
14027TIP3   OH263495   1.931   5.802   1.496  0.8270  0.5346  0.0031
14027TIP3    H163496   1.996   5.834   1.432 -1.2921  0.3265 -2.4175
14027TIP3    H263497   1.908   5.715   1.463  1.0274 -0.4099  2.2129
14028TIP3   OH263498   0.724   1.369  11.259  0.7003  0.1169  0.3182
14028TIP3    H163499   0.730   1.281  11.296 -0.8950 -0.3291 -0.3791
14028TIP3    H263500   0.756   1.427  11.328  1.1804 -0.9604  1.0205
14029TIP3   OH263501   0.118   4.483   4.793  0.0945 -0.0940 -0.4084
14029TIP3    H163502   0.052   4.434   4.745  0.9404 -0.8668 -0.7975
14029TIP3    H263503   0.201   4.459   4.752  0.5986  1.1092 -0.1427
14030TIP3   OH263504   1.877   5.117  13.579 -0.3306  0.4018 -0.4291
14030TIP3    H163505   1.853   5.079  13.664 -0.0906  0.2256 -0.4367
14030TIP3    H263506   1.797   5.157  13.546  0.1254  2.7322  1.0358
14031TIP3   OH263507   3.609   4.454   4.140 -0.6446 -0.2209  0.5003
14031TIP3    H163508   3.531   4.401   4.127 -1.9953  0.7237  3.5943
14031TIP3    H263509   3.650   4.417   4.218  0.1781  1.2409  0.8055
14032TIP3   OH263510   4.866   4.242   2.707  1.0014  0.3489 -0.1009
14032TIP3    H163511   4.855   4.335   2.729  2.0487  0.6542 -0.7703
14032TIP3    H263512   4.959   4.234   2.685  0.3494 -0.1887 -3.0388
14033TIP3   OH263513   1.893   2.919  14.370  0.2263 -0.2266  0.2077
14033TIP3    H163514   1.953   2.964  14.311  0.6546  0.1133  0.8977
14033TIP3    H263515   1.850   2.989  14.419 -1.0463 -0.4338 -0.5525
14034TIP3   OH263516   5.192   1.373  16.703 -0.8465  0.2577  0.0615
14034TIP3    H163517   5.283   1.372  16.733 -0.4309  1.7538 -1.0485
14034TIP3    H263518   5.142   1.350  16.781  0.4713 -0.6289  0.6890
14035TIP3   OH263519   6.342   1.610  16.707  0.0285 -0.1003  0.1607
14035TIP3    H163520   6.333   1.577  16.796  0.0669  2.1000  1.0351
14035TIP3    H263521   6.362   1.703  16.718 -0.1799  0.2647 -2.1538
14036TIP3   OH263522   1.265   1.375   5.242 -0.0897 -0.4053 -0.0732
14036TIP3    H163523   1.305   1.448   5.288  0.0247 -1.7376  2.0919
14036TIP3    H263524   1.207   1.415   5.178  1.4694  1.5516 -0.3439
14037TIP3   OH263525   5.610   2.360  14.293 -0.7869  0.8508  0.4079
14037TIP3    H163526   5.672   2.316  14.352 -1.4928  0.6458  1.0215
14037TIP3    H263527   5.569   2.288  14.244  0.4730  1.0745 -1.0616
14038TIP3   OH263528   4.654   1.524   3.922  0.0128  0.9011  0.1290
14038TIP3    H163529   4.565   1.517   3.888  0.1801 -2.0892  0.0293
14038TIP3    H263530   4.710   1.511   3.846  0.4178 -1.7951  0.7876
14039TIP3   OH263531   2.770   2.282   0.611 -0.1023  0.0218 -0.0886
14039TIP3    H163532   2.772   2.376   0.631  0.4722  0.0362 -0.1818
14039TIP3    H263533   2.791   2.277   0.518  0.1976 -0.2143 -0.0126
14040TIP3   OH263534   1.357   2.838   0.854 -0.0065  0.2738  0.1073
14040TIP3    H163535   1.396   2.813   0.937 -0.6686  1.5183  0.8189
14040TIP3    H263536   1.316   2.758   0.821  1.5437 -0.6064  0.2220
14041TIP3   OH263537   3.674   6.016  16.354 -0.4652 -0.5346 -0.2734
14041TIP3    H163538   3.662   6.048  16.265  1.7572 -1.4910 -0.9924
14041TIP3    H263539   3.718   5.931  16.344 -1.6557 -1.4758  1.7032
14042TIP3   OH263540   2.260   1.948  13.221 -0.3461  1.1208  0.1461
14042TIP3    H163541   2.218   2.034  13.230 -0.1143  1.2402  0.0885
14042TIP3    H263542   2.302   1.933  13.305 -0.3207  1.1006  0.1302
14043TIP3   OH263543   5.115   3.929  13.212 -0.7833  0.0649 -0.1248
14043TIP3    H163544   5.182   3.946  13.145 -0.6978 -0.3747 -0.1498
14043TIP3    H263545   5.164   3.930  13.294 -0.9277  0.8627 -0.0338
14044TIP3   OH263546   0.782   1.061   0.942  0.2115 -0.0364 -0.8055
14044TIP3    H163547   0.767   0.987   1.001 -0.6436  1.8236  1.4714
14044TIP3    H263548   0.868   1.094   0.967 -1.1819  2.3344  1.4543
14045TIP3   OH263549   5.460   2.538  14.852 -0.0002  0.4643 -0.1484
14045TIP3    H163550   5.396   2.486  14.804  0.8426 -2.4915  1.6385
14045TIP3    H263551   5.487   2.481  14.925  3.5995  2.0783 -0.0056
14046TIP3   OH263552   3.131   4.853  13.012 -0.8173  0.0878 -0.0258
14046TIP3    H163553   3.102   4.917  13.077  2.0822 -0.0187  1.5148
14046TIP3    H263554   3.117   4.896  12.927 -2.1671  1.3024  0.7678
14047TIP3   OH263555   3.961   5.041  15.564 -0.0432 -0.1290 -0.3170
14047TIP3    H163556   3.897   4.971  15.553  0.4940 -0.5897 -0.5676
14047TIP3    H263557   3.946   5.074  15.652 -1.0545  0.2124 -0.5998
14048TIP3   OH263558   3.493   5.708   4.580 -0.3818 -0.1146 -0.3309
14048TIP3    H163559   3.568   5.654   4.553 -0.0817  0.1340  0.0009
14048TIP3    H263560   3.531   5.792   4.604 -0.7159 -0.1274  0.2652
14049TIP3   OH263561   2.256   4.607  15.716 -0.1709 -0.2345 -0.1627
14049TIP3    H163562   2.222   4.665  15.649  1.0472  0.1234 -0.4962
14049TIP3    H263563   2.206   4.526  15.706 -1.5307  0.5588 -0.0198
14050TIP3   OH263564   3.204   5.542  14.249  0.0260  0.0971  0.1222
14050TIP3    H163565   3.260   5.476  14.290  0.8169 -0.0539 -1.1471
14050TIP3    H263566   3.125   5.495  14.224 -0.9729  0.4235  2.4159
14051TIP3   OH263567   4.983   5.098   2.378 -0.0682  0.3594  0.1910
14051TIP3    H163568   5.036   5.062   2.450  1.0517 -0.3106 -0.9316
14051TIP3    H263569   4.901   5.049   2.382  1.1059 -1.8445 -0.7851
14052TIP3   OH263570   0.319   5.345   0.922  0.1346 -0.1894  0.5477
14052TIP3    H163571   0.369   5.279   0.971  1.9783  1.1170  0.5082
14052TIP3    H263572   0.358   5.345   0.835 -0.1573  0.6453  0.4106
14053TIP3   OH263573   5.278   4.240  13.704  0.1513 -0.0677 -0.0365
14053TIP3    H163574   5.336   4.255  13.779  1.1822  0.0226 -0.8294
14053TIP3    H263575   5.192   4.224  13.743  0.7611 -0.4861  1.1892
14054TIP3   OH263576   5.538   0.369  11.567 -0.2233 -0.0581  0.1575
14054TIP3    H163577   5.530   0.292  11.622  1.8766 -0.4843 -0.0620
14054TIP3    H263578   5.587   0.340  11.490  0.2034  1.3684 -0.1550
14055TIP3   OH263579   6.498   0.111  16.768 -0.1611 -0.4324 -0.3681
14055TIP3    H163580   6.462   0.200  16.774 -2.1408 -1.0644 -1.7733
14055TIP3    H263581   6.486   0.074  16.856 -1.3977 -0.0339 -0.3499
14056TIP3   OH263582   6.058   1.087   0.028  0.6510 -0.4817 -0.3694
14056TIP3    H163583   6.090   1.149   0.093  0.5021 -1.8081  1.0272
14056TIP3    H263584   6.059   1.136  -0.054 -0.3977  1.6656  0.8173
14057TIP3   OH263585   0.220   2.201  11.607 -0.2106 -0.1302  0.8025
14057TIP3    H163586   0.229   2.107  11.594 -0.1583  0.0768 -0.8822
14057TIP3    H263587   0.309   2.232  11.624 -0.3415 -0.4692  2.3043
14058TIP3   OH263588   6.505   4.846  10.713 -0.3078  0.5974  0.5053
14058TIP3    H163589   6.531   4.937  10.695 -1.1086  0.6752 -0.3361
14058TIP3    H263590   6.588   4.802  10.733  0.2411  1.2695 -0.1991
14059TIP3   OH263591   1.200   0.258   5.321  0.0423  0.0366 -0.4770
14059TIP3    H163592   1.217   0.169   5.291  0.8080  0.0178 -0.0135
14059TIP3    H263593   1.201   0.253   5.416 -0.0684  0.5071 -0.4461
14060TIP3   OH263594   5.952   5.952  12.444 -0.1359  0.1277 -0.0952
14060TIP3    H163595   5.960   6.022  12.379 -0.6746  0.5924  0.3302
14060TIP3    H263596   5.991   5.875  12.401  1.5087  0.9395 -0.1596
14061TIP3   OH263597   1.510   1.903  11.732  0.8490  0.2141 -0.7235
14061TIP3    H163598   1.579   1.958  11.695  0.2578  1.2472 -0.3432
14061TIP3    H263599   1.514   1.919  11.826  1.5267 -1.4370 -0.4483
14062TIP3   OH263600   0.790   4.610  14.958  0.1660  0.2253  0.2428
14062TIP3    H163601   0.875   4.610  14.914 -0.1775  1.4590 -0.4500
14062TIP3    H263602   0.734   4.662  14.902 -1.3647 -1.4310  0.1407
14063TIP3   OH263603   5.986   3.270  12.167  0.2889 -0.2766 -0.7063
14063TIP3    H163604   5.986   3.363  12.146 -1.6703 -0.1859 -0.4488
14063TIP3    H263605   6.033   3.264  12.250 -0.8677  0.6908  0.0406
14064TIP3   OH263606   5.810   0.443   1.938 -0.1454 -0.4111 -0.5804
14064TIP3    H163607   5.736   0.401   1.895 -0.6294 -0.4563  0.2690
14064TIP3    H263608   5.784   0.449   2.030  0.0355  1.4717 -0.6110
14065TIP3   OH263609   1.506   0.225  11.354 -0.2923 -0.2895  0.2690
14065TIP3    H163610   1.535   0.208  11.264  1.8851 -1.0748  1.0343
14065TIP3    H263611   1.462   0.144  11.380  2.1114 -1.4687  0.9604
14066TIP3   OH263612   1.253   3.292  12.947 -0.1514  0.4854 -0.3626
14066TIP3    H163613   1.256   3.385  12.968 -0.5791  0.3245  0.4274
14066TIP3    H263614   1.249   3.247  13.032 -0.5221 -0.2287 -0.7437
14067TIP3   OH263615   5.417   6.517  17.116 -0.7339  0.3488 -0.0296
14067TIP3    H163616   5.452   6.590  17.064 -1.3557  0.9676  0.4071
14067TIP3    H263617   5.344   6.555  17.164 -1.0177 -0.5547  0.2630
14068TIP3   OH263618   1.397   3.147  16.065 -0.1139 -0.1240 -0.1442
14068TIP3    H163619   1.308   3.137  16.030 -1.8548  2.4722  2.9276
14068TIP3    H263620   1.434   3.220  16.015  0.2499 -1.0538 -1.2687
14069TIP3   OH263621   5.693   1.898   5.087  0.1573  0.3044 -0.0550
14069TIP3    H163622   5.622   1.931   5.032 -0.7396  0.2973  1.0393
14069TIP3    H263623   5.681   1.803   5.086  0.5743  0.2551 -0.4119
14070TIP3   OH263624   4.140   5.717  13.691 -0.0214 -0.1122 -0.3499
14070TIP3    H163625   4.232   5.693  13.686  1.2351  4.0208 -1.4736
14070TIP3    H263626   4.113   5.728  13.600 -0.2429  2.7411 -0.0291
14071TIP3   OH263627   6.408   4.768   4.875 -0.5413 -0.0100  0.5892
14071TIP3    H163628   6.418   4.797   4.784  2.2394 -0.7221  0.5765
14071TIP3    H263629   6.322   4.727   4.878 -1.0158  0.6922 -1.5199
14072TIP3   OH263630   4.432   2.074  11.419  0.2635  0.2278 -0.6075
14072TIP3    H163631   4.526   2.093  11.414  0.5852 -1.4071 -1.6008
14072TIP3    H263632   4.417   2.010  11.349 -1.0490 -1.5526  1.1828
14073TIP3   OH263633   1.960   1.088   6.304  0.5161  0.1106  0.1332
14073TIP3    H163634   1.968   1.015   6.366  1.7804 -1.0554 -1.2950
14073TIP3    H263635   1.878   1.131   6.328  0.2360 -1.1634  1.6691
14074TIP3   OH263636   3.695   0.966  14.039 -0.3119  0.3265  0.1339
14074TIP3    H163637   3.764   0.906  14.066 -0.0503  0.5013 -0.1412
14074TIP3    H263638   3.725   1.052  14.070  0.2901  0.6301 -1.2299
14075TIP3   OH263639   4.119   1.087  10.294  0.5719  0.0798  0.9904
14075TIP3    H163640   4.213   1.105  10.297  0.7364 -0.1093 -1.1423
14075TIP3    H263641   4.078   1.169  10.319  1.3225  0.8032 -0.0623
14076TIP3   OH263642   0.626   1.718  13.610 -0.2241  0.0645  0.2934
14076TIP3    H163643   0.606   1.640  13.557 -0.3388  0.6901 -0.6139
14076TIP3    H263644   0.620   1.687  13.700 -1.2242 -0.7611 -0.0254
14077TIP3   OH263645   0.030   3.364  13.766  0.1739  0.0862  0.2008
14077TIP3    H163646  -0.053   3.360  13.719 -0.1530 -1.2483  0.8375
14077TIP3    H263647   0.047   3.273  13.793  0.5797  0.7109  2.2337
14078TIP3   OH263648   3.105   0.061  12.735 -0.2298 -0.0463  0.1329
14078TIP3    H163649   3.078  -0.019  12.692 -2.9644  0.8751 -0.0462
14078TIP3    H263650   3.148   0.113  12.667  0.0882 -0.6822 -0.1523
14079TIP3   OH263651   6.708   4.534  13.758 -0.4144  0.0711  0.6400
14079TIP3    H163652   6.636   4.589  13.727 -0.3684  0.0377  0.4738
14079TIP3    H263653   6.690   4.448  13.721  1.4372  0.7628 -2.2174
14080TIP3   OH263654   4.963   6.728   4.961 -0.2432  0.1916  0.4712
14080TIP3    H163655   4.909   6.737   5.040  0.3431  2.0187  0.7121
14080TIP3    H263656   4.900   6.727   4.889 -0.7093  0.1399  0.8709
14081TIP3   OH263657   0.662   0.983  15.529 -0.0713 -0.2004 -0.6456
14081TIP3    H163658   0.725   1.047  15.561  0.7436 -0.3596 -1.8752
14081TIP3    H263659   0.705   0.898  15.538 -0.1207 -0.3202 -1.4162
14082TIP3   OH263660   3.039   5.033   0.184 -0.4152  0.0503 -0.2452
14082TIP3    H163661   3.122   5.023   0.137 -2.0783 -0.2307 -3.4000
14082TIP3    H263662   3.028   4.950   0.231 -0.8008 -1.7755 -3.2875
14083TIP3   OH263663   5.745   5.833   2.228 -0.4143  0.4052  0.7630
14083TIP3    H163664   5.653   5.822   2.251 -0.6202  1.6848  0.6385
14083TIP3    H263665   5.781   5.888   2.298  0.2967 -0.1864  0.8782
14084TIP3   OH263666   0.439   1.035   0.145 -0.4703  0.1838  0.1073
14084TIP3    H163667   0.528   1.043   0.110 -0.2679  0.0543  0.5810
14084TIP3    H263668   0.450   1.040   0.240 -1.2319  2.6861  0.1284
14085TIP3   OH263669   1.824   5.787  11.710  0.8765  0.6593  0.2140
14085TIP3    H163670   1.802   5.764  11.619 -0.9816  1.7085  0.3337
14085TIP3    H263671   1.747   5.758  11.760  2.0734 -0.3206  1.5424
14086TIP3   OH263672   1.023   2.541   2.871 -0.2548  1.1846 -0.4404
14086TIP3    H163673   1.014   2.616   2.931 -0.0866  1.0102 -0.1982
14086TIP3    H263674   1.013   2.580   2.784 -2.2585  1.1806 -0.2542
14087TIP3   OH263675   3.942   1.143   1.200  0.0945  0.8646 -0.7173
14087TIP3    H163676   3.982   1.216   1.248 -0.0055  0.6975 -0.3765
14087TIP3    H263677   3.963   1.065   1.252  0.3286  0.6315 -1.1579
14088TIP3   OH263678   1.685   1.068   1.866 -0.3061 -0.0041  0.2944
14088TIP3    H163679   1.766   1.043   1.911  0.6808  0.7299 -1.0132
14088TIP3    H263680   1.664   1.154   1.901 -1.7959 -1.0425  2.2347
14089TIP3   OH263681   0.914   4.401  12.958 -0.3036  0.1802  0.0811
14089TIP3    H163682   0.954   4.421  12.874 -1.0117  1.1078 -0.0504
14089TIP3    H263683   0.983   4.358  13.008  0.6628  1.1829 -0.3586
14090TIP3   OH263684   2.539   2.225   4.381 -0.2409  0.4989  0.7527
14090TIP3    H163685   2.601   2.288   4.344 -0.7564  0.4566 -0.2296
14090TIP3    H263686   2.478   2.278   4.433 -0.2790  0.7362  0.4699
14091TIP3   OH263687   3.638   1.699   1.303  0.2001 -0.4386 -0.2426
14091TIP3    H163688   3.597   1.750   1.373  0.6964 -1.2809  0.6956
14091TIP3    H263689   3.569   1.640   1.272 -0.8357  1.7135 -2.3625
14092TIP3   OH263690   6.030   3.788  15.549 -0.1547 -0.1591  0.5064
14092TIP3    H163691   5.970   3.785  15.624 -0.5493 -1.3109  0.1543
14092TIP3    H263692   5.987   3.847  15.487 -0.8066 -0.7551  0.3737
14093TIP3   OH263693   0.629   4.956   2.733 -0.4139  0.2378 -0.0509
14093TIP3    H163694   0.666   4.962   2.821 -0.1317  0.0471 -0.1573
14093TIP3    H263695   0.558   5.021   2.733 -0.4868  0.1634  0.3497
14094TIP3   OH263696   6.461   3.818  12.387 -0.3682  0.0193  0.0528
14094TIP3    H163697   6.488   3.863  12.467  3.0912 -2.4651  0.5397
14094TIP3    H263698   6.505   3.866  12.317 -1.2261  0.6122 -0.0948
14095TIP3   OH263699   2.450   4.226  14.213 -0.2530  0.7156  0.1264
14095TIP3    H163700   2.449   4.133  14.236  0.7411  0.6968  0.1552
14095TIP3    H263701   2.403   4.231  14.130  0.6704  0.0048 -0.4611
14096TIP3   OH263702   5.156   5.769  13.125 -0.0563 -0.6974  0.2886
14096TIP3    H163703   5.069   5.788  13.160 -0.0435 -2.3386  1.2930
14096TIP3    H263704   5.141   5.750  13.033 -0.6230 -0.0895  0.2452
14097TIP3   OH263705   4.253   4.088  16.856  0.0024  0.5124  0.3022
14097TIP3    H163706   4.298   4.029  16.916 -2.9549 -0.6248  1.5537
14097TIP3    H263707   4.200   4.032  16.801 -0.3205  1.8190 -0.7804
14098TIP3   OH263708   3.011   3.113  11.711  0.3814 -0.1965 -0.2241
14098TIP3    H163709   2.962   3.043  11.754  1.1203  0.5586  1.9508
14098TIP3    H263710   2.961   3.130  11.631 -0.7959 -1.9715  0.0636
14099TIP3   OH263711   6.021   5.396  12.059 -0.5196 -0.4180 -0.4123
14099TIP3    H163712   5.929   5.419  12.075 -0.8090 -0.2962 -2.1249
14099TIP3    H263713   6.065   5.415  12.142 -1.6948  1.3654 -0.1512
14100TIP3   OH263714   5.542   6.042  12.716  0.0138  0.3441  0.2242
14100TIP3    H163715   5.509   5.981  12.650  0.6021 -1.1099  1.2294
14100TIP3    H263716   5.638   6.036  12.708  0.1173  2.1710 -0.5578
14101TIP3   OH263717   0.712   5.885  14.977  0.0511  0.0786 -0.3817
14101TIP3    H163718   0.796   5.905  14.935  0.5826 -0.3767  0.4229
14101TIP3    H263719   0.713   5.790  14.988 -0.9078 -0.0220 -1.0295
14102TIP3   OH263720   0.433   5.122   2.127  0.0529  0.0771 -0.4538
14102TIP3    H163721   0.482   5.052   2.170 -1.9440 -0.3250  1.3452
14102TIP3    H263722   0.404   5.084   2.044  2.6105  0.3119 -1.5435
14103TIP3   OH263723   4.203   5.889   4.949 -0.5396 -0.2455 -0.1528
14103TIP3    H163724   4.234   5.969   4.906 -1.0991  1.7091  2.7472
14103TIP3    H263725   4.113   5.879   4.919 -0.4417  0.1856 -0.5984
14104TIP3   OH263726   0.978   1.995   3.427 -0.1180 -0.7124  0.2099
14104TIP3    H163727   0.961   1.911   3.470  0.8753 -0.9092  0.2431
14104TIP3    H263728   1.047   2.035   3.479  1.9845 -1.4763 -1.7988
14105TIP3   OH263729   6.648   1.096   5.268 -0.4837 -0.0330  0.3422
14105TIP3    H163730   6.682   1.165   5.211  0.2939 -0.4141  0.3277
14105TIP3    H263731   6.629   1.140   5.350  1.6049 -0.0727  0.8966
14106TIP3   OH263732   4.670   1.878  14.242 -0.5066 -0.0479 -0.3796
14106TIP3    H163733   4.719   1.883  14.324 -1.0118 -0.4858 -0.0532
14106TIP3    H263734   4.604   1.947  14.249 -1.1940 -0.7411  0.0069
14107TIP3   OH263735   5.065   5.120  12.682 -0.4658  0.4061 -0.2410
14107TIP3    H163736   5.059   5.135  12.587  0.6728 -0.8776 -0.5619
14107TIP3    H263737   4.992   5.061  12.701 -0.0619 -0.2216 -0.5608
14108TIP3   OH263738   1.488   4.963   5.982 -0.0515 -0.3156 -0.0512
14108TIP3    H163739   1.559   4.937   5.924  0.0466  0.0564 -0.1016
14108TIP3    H263740   1.524   4.955   6.070  0.3548  0.7333 -0.1082
14109TIP3   OH263741   5.296   3.867  12.491  0.2706  1.1072  0.3239
14109TIP3    H163742   5.260   3.821  12.414  0.9845  0.7528  0.1939
14109TIP3    H263743   5.285   3.960  12.470  1.1536  1.0365 -0.5701
14110TIP3   OH263744   0.343   0.256  12.869  0.2464 -0.1249 -0.4260
14110TIP3    H163745   0.426   0.225  12.906  0.7406 -0.1344 -1.4988
14110TIP3    H263746   0.282   0.255  12.943  1.1704 -0.2193  0.3567
14111TIP3   OH263747   3.255   5.609   3.898  0.2990 -0.4863  0.0168
14111TIP3    H163748   3.188   5.541   3.900  1.3241 -1.4933  1.1467
14111TIP3    H263749   3.229   5.665   3.825 -1.0329 -1.5944 -0.4086
14112TIP3   OH263750   6.600   2.423  15.555  0.3825  0.6106  0.1236
14112TIP3    H163751   6.529   2.384  15.504  1.3835  0.3916 -1.1284
14112TIP3    H263752   6.557   2.454  15.635 -0.5710 -2.7425  1.1160
14113TIP3   OH263753   6.649   5.530  12.631  0.6484 -0.1277  0.1485
14113TIP3    H163754   6.693   5.446  12.621  1.1132  0.1414 -0.0887
14113TIP3    H263755   6.684   5.566  12.712 -0.6381 -0.8087  1.0485
14114TIP3   OH263756   1.155   1.951   3.727  0.1102 -0.2128  0.4513
14114TIP3    H163757   1.152   1.904   3.810 -0.0628 -0.0377  0.5434
14114TIP3    H263758   1.241   1.929   3.690 -0.2950 -1.2978  0.0930
14115TIP3   OH263759   3.868   5.930  14.844 -0.2399 -0.1697  0.6689
14115TIP3    H163760   3.889   5.979  14.925  0.6385 -1.6504  1.3795
14115TIP3    H263761   3.880   5.838  14.868 -0.0275 -0.6471 -1.1446
14116TIP3   OH263762   3.197   0.040  15.143  0.0537 -0.0739  0.0024
14116TIP3    H163763   3.289   0.059  15.163 -0.0712  0.6007 -0.0598
14116TIP3    H263764   3.200  -0.008  15.060  0.4558 -1.4499  0.7656
14117TIP3   OH263765   5.716   3.627   6.710  0.0765 -0.0480  0.6011
14117TIP3    H163766   5.697   3.718   6.688  3.1364 -0.0519 -3.0203
14117TIP3    H263767   5.632   3.582   6.699 -1.0733  1.9778  0.5694
14118TIP3   OH263768   4.307   1.106   1.909  0.4626 -0.2703 -0.0422
14118TIP3    H163769   4.383   1.056   1.879  1.4543 -1.5463  4.0103
14118TIP3    H263770   4.241   1.040   1.928 -0.8452  0.6431 -1.2587
14119TIP3   OH263771   3.832   3.302  13.724 -0.1024 -0.2635 -0.2243
14119TIP3    H163772   3.924   3.315  13.704 -0.3555 -0.5195 -1.6883
14119TIP3    H263773   3.805   3.229  13.667 -1.6267  0.9725 -1.1667
14120TIP3   OH263774   3.462   4.939   4.043 -0.1151  0.0407 -0.5040
14120TIP3    H163775   3.501   4.858   4.077 -0.5518  0.3610  0.8248
14120TIP3    H263776   3.373   4.939   4.079 -0.2904  0.8553 -0.9300
14121TIP3   OH263777   1.035   3.589  12.632 -0.4977 -0.1935 -0.2797
14121TIP3    H163778   1.128   3.571  12.623 -0.3579  0.7592 -0.7879
14121TIP3    H263779   0.996   3.503  12.648  0.6214 -0.4488  1.4295
14122TIP3   OH263780   5.707   3.181  17.202  0.3041 -0.7144  0.0219
14122TIP3    H163781   5.691   3.158  17.294 -0.6755  0.4613  0.1821
14122TIP3    H263782   5.690   3.275  17.199  0.2422 -0.7609 -1.3865
14123TIP3   OH263783   5.228   0.140   5.384 -0.2956  0.5396  0.4891
14123TIP3    H163784   5.164   0.153   5.314  0.3394 -2.0320 -0.7034
14123TIP3    H263785   5.312   0.131   5.340  0.3630  0.4132  1.7074
14124TIP3   OH263786   3.863   3.536   1.924  0.0704 -0.2310 -0.6091
14124TIP3    H163787   3.881   3.590   2.001  1.4746 -2.9342  1.1286
14124TIP3    H263788   3.926   3.565   1.859  0.7440  0.2852  0.2576
14125TIP3   OH263789   0.237   5.485  17.253 -0.3468 -0.7102 -0.0387
14125TIP3    H163790   0.328   5.490  17.224  0.7198  0.6629  3.1455
14125TIP3    H263791   0.209   5.576  17.261 -1.7308 -1.1078 -0.0848
14126TIP3   OH263792   1.353   4.790  13.668 -0.0844  0.4318 -0.2935
14126TIP3    H163793   1.412   4.866  13.675  0.2428  0.0665  1.8850
14126TIP3    H263794   1.412   4.715  13.659 -0.3784  0.3444 -1.6521
14127TIP3   OH263795   6.456   0.330  16.360  0.0448  0.0441  0.3574
14127TIP3    H163796   6.474   0.265  16.292  0.0493  1.7357 -1.3347
14127TIP3    H263797   6.414   0.402  16.313 -1.6973  0.5074  2.4782
14128TIP3   OH263798   5.168   1.297   1.394  0.9964  0.4495  0.1709
14128TIP3    H163799   5.173   1.213   1.347  0.5491  1.2915 -1.4713
14128TIP3    H263800   5.085   1.335   1.365  1.8140  2.0445 -0.1558
14129TIP3   OH263801   0.182   4.463  13.561 -0.3498 -0.5917  0.3835
14129TIP3    H163802   0.187   4.533  13.626 -0.4488 -0.4401  0.2293
14129TIP3    H263803   0.264   4.415  13.571 -0.1083 -0.2181  0.2274
14130TIP3   OH263804   5.897   5.822  12.702 -0.1158  0.3548 -0.0008
14130TIP3    H163805   5.878   5.907  12.742  0.1448  0.4879 -0.1530
14130TIP3    H263806   5.970   5.840  12.642  0.1941 -0.0528  0.2511
14131TIP3   OH263807   0.472   1.008   4.051 -0.0078  0.0482 -0.5512
14131TIP3    H163808   0.560   0.988   4.020  1.8126  2.6907  2.2515
14131TIP3    H263809   0.446   1.086   4.001  0.3783  0.7604  0.3296
14132TIP3   OH263810   4.229   2.632   1.077  0.9349  0.1796 -0.0721
14132TIP3    H163811   4.274   2.704   1.120  2.4749 -0.4450 -0.5595
14132TIP3    H263812   4.259   2.554   1.124  2.1801 -0.4532 -1.7903
14133TIP3   OH263813   4.810   3.016   1.333  0.6633 -0.0520  0.4443
14133TIP3    H163814   4.839   3.004   1.423  0.8168  0.1959  0.4265
14133TIP3    H263815   4.810   3.110   1.319  1.8739 -0.1385 -0.2178
14134TIP3   OH263816   5.449   3.276  15.948  0.6085 -0.6022  0.1422
14134TIP3    H163817   5.405   3.260  16.032  2.0106  0.8171  1.1844
14134TIP3    H263818   5.535   3.310  15.971  2.1926 -2.9149 -1.8493
14135TIP3   OH263819   3.610   2.597  11.446 -0.0153 -1.0870  0.0213
14135TIP3    H163820   3.640   2.593  11.537  1.3869  0.9619 -0.2696
14135TIP3    H263821   3.690   2.592  11.394 -0.6214 -0.3910 -1.0174
14136TIP3   OH263822   6.079   5.261   5.826  0.3152  0.2589 -0.4427
14136TIP3    H163823   6.091   5.221   5.912  0.1579 -1.2299 -1.0978
14136TIP3    H263824   6.003   5.318   5.837 -1.5939 -2.1435 -0.2843
14137TIP3   OH263825   5.736   0.250  15.148  0.0977  0.4470 -0.2927
14137TIP3    H163826   5.649   0.210  15.146  0.4007 -0.3436  0.9129
14137TIP3    H263827   5.735   0.313  15.076 -1.2909  0.0935 -0.6237
14138TIP3   OH263828   6.682   1.723  13.314  0.1957 -0.3580 -0.1300
14138TIP3    H163829   6.776   1.709  13.308 -0.0490 -1.5803 -1.9591
14138TIP3    H263830   6.663   1.721  13.408  1.9061 -0.5624  0.2400
14139TIP3   OH263831   2.700   6.447   3.049 -0.5848  0.1562  0.1182
14139TIP3    H163832   2.741   6.503   2.983  0.5506 -0.0691  0.6219
14139TIP3    H263833   2.672   6.369   3.001 -0.0829  0.1489 -0.1609
14140TIP3   OH263834   4.103   2.109   3.342 -0.0615  0.3843 -0.2259
14140TIP3    H163835   4.067   2.106   3.431 -0.1076  0.9103 -0.2237
14140TIP3    H263836   4.197   2.122   3.355  0.3296 -2.1055 -0.2040
14141TIP3   OH263837   2.226   6.726   2.740  0.2626 -0.0836  0.2156
14141TIP3    H163838   2.282   6.652   2.714 -2.1397 -1.5288 -1.2515
14141TIP3    H263839   2.235   6.789   2.669  1.1050  0.3745  0.7075
14142TIP3   OH263840   4.618   1.362   1.788 -0.5356 -0.0270 -0.1588
14142TIP3    H163841   4.644   1.312   1.711  0.2927  0.1585 -0.0051
14142TIP3    H263842   4.632   1.454   1.763  1.8116 -0.0283  0.9160
14143TIP3   OH263843   4.036   0.409  14.634 -0.2669 -0.3709 -0.7726
14143TIP3    H163844   4.087   0.342  14.589  0.4450 -0.3618 -0.0027
14143TIP3    H263845   3.972   0.360  14.685  1.3078 -0.5840  1.0844
14144TIP3   OH263846   3.398   1.580  15.607 -0.0102 -0.3418  0.2986
14144TIP3    H163847   3.322   1.624  15.643  0.0686  0.4174 -0.4431
14144TIP3    H263848   3.363   1.527  15.535  0.2286  0.4390 -0.4010
14145TIP3   OH263849   4.521   6.299   0.670  0.1223 -0.0139 -0.1848
14145TIP3    H163850   4.493   6.265   0.585 -0.5418 -0.2141  0.1096
14145TIP3    H263851   4.616   6.292   0.668  0.1019 -0.1849 -0.8401
14146TIP3   OH263852   1.841   2.657  10.693  0.2191 -0.6831  0.0624
14146TIP3    H163853   1.820   2.606  10.614 -0.5064  2.3808 -1.8948
14146TIP3    H263854   1.931   2.685  10.679  0.2794 -0.6102  0.6116
14147TIP3   OH263855   5.232   3.142  12.763 -0.0280 -0.1157 -0.2490
14147TIP3    H163856   5.300   3.104  12.706  0.1667  0.7357 -0.6168
14147TIP3    H263857   5.156   3.087  12.750  0.2574 -0.4051 -0.7369
14148TIP3   OH263858   0.586   6.423  17.377 -0.2282  0.3899 -0.5618
14148TIP3    H163859   0.566   6.467  17.294 -1.0629 -0.6286 -0.9218
14148TIP3    H263860   0.562   6.331  17.362  1.5100 -0.2223  0.1440
14149TIP3   OH263861   4.963   0.132  11.390 -0.0856  0.3703  0.1206
14149TIP3    H163862   5.054   0.137  11.416  1.0381 -0.8237 -3.0651
14149TIP3    H263863   4.947   0.213  11.341 -0.5391  0.3061  0.1559
14150TIP3   OH263864   2.885   5.796   1.576 -0.2554 -0.0032  0.3193
14150TIP3    H163865   2.844   5.857   1.515  1.0757  1.3005  0.6688
14150TIP3    H263866   2.928   5.731   1.520  1.3164  1.4224 -0.2148
14151TIP3   OH263867   1.251   6.130   0.976 -0.1243  0.6918  0.4354
14151TIP3    H163868   1.293   6.214   0.957 -2.1015  1.3983 -1.1947
14151TIP3    H263869   1.324   6.071   0.995  1.7324  1.6945 -2.7585
14152TIP3   OH263870   1.720   4.459   3.297 -0.0891  0.4959 -0.6858
14152TIP3    H163871   1.686   4.541   3.262  0.6144  1.0012 -0.1977
14152TIP3    H263872   1.809   4.479   3.324 -0.0765 -0.2956 -0.0982
14153TIP3   OH263873   4.835   1.502   1.423  0.0485  0.2383 -0.2426
14153TIP3    H163874   4.845   1.408   1.439  1.7519  0.6728  1.5521
14153TIP3    H263875   4.891   1.519   1.348  0.4496 -0.0351 -0.0104
14154TIP3   OH263876   3.519   1.638  14.944 -0.3601 -0.1930  0.3630
14154TIP3    H163877   3.512   1.708  14.879 -1.5453 -1.0391 -0.4853
14154TIP3    H263878   3.607   1.647  14.980  0.2988  0.3849 -1.2973
14155TIP3   OH263879   3.555   4.623  12.457  0.4413 -0.4863  0.4874
14155TIP3    H163880   3.625   4.569  12.419  0.7731 -0.3195  0.8583
14155TIP3    H263881   3.502   4.561  12.507 -0.5153 -0.8714 -0.9426
14156TIP3   OH263882   3.927   5.033   2.561  0.3864 -0.2702 -0.4635
14156TIP3    H163883   3.984   5.108   2.550  1.3368 -0.6380  1.5875
14156TIP3    H263884   3.922   5.019   2.655  0.7257 -3.1272 -0.7688
14157TIP3   OH263885   1.919   6.722   1.184 -0.9046 -0.1666 -0.2829
14157TIP3    H163886   1.937   6.700   1.093  0.1250  0.5358 -0.2635
14157TIP3    H263887   1.859   6.653   1.214  0.9519 -2.0369 -0.6761
14158TIP3   OH263888   1.480   6.519  13.653  0.2508  0.1296  0.4821
14158TIP3    H163889   1.466   6.428  13.624  0.0173 -0.9730  3.6137
14158TIP3    H263890   1.423   6.571  13.597 -1.2072 -1.9344 -0.0922
14159TIP3   OH263891   3.179   5.980  14.037  0.5554 -0.3905 -0.5420
14159TIP3    H163892   3.161   6.060  13.988  1.4987 -0.2211 -0.6416
14159TIP3    H263893   3.267   5.994  14.074  1.3733 -1.9462 -1.7708
14160TIP3   OH263894   0.790   1.896   2.533 -0.2600  0.0835 -0.0191
14160TIP3    H163895   0.867   1.917   2.481  1.3293 -1.9913  1.3081
14160TIP3    H263896   0.715   1.913   2.475  1.2964 -0.0544 -2.1701
14161TIP3   OH263897   2.379   0.468   2.147  0.3229 -0.6928  0.0736
14161TIP3    H163898   2.405   0.424   2.066  0.2290  0.8148 -0.8115
14161TIP3    H263899   2.285   0.454   2.152 -0.3431  2.1510 -2.0346
14162TIP3   OH263900   5.751   1.862  17.282  0.9427 -0.4002  0.1621
14162TIP3    H163901   5.694   1.938  17.279  0.1190 -0.8698  2.4666
14162TIP3    H263902   5.747   1.826  17.193 -0.9480  0.5844 -0.1950
14163TIP3   OH263903   4.809   4.622  13.821  0.1719  0.2511  0.2628
14163TIP3    H163904   4.716   4.631  13.804  0.2513 -1.0626 -1.0118
14163TIP3    H263905   4.835   4.542  13.775  1.9580  0.6643  0.4676
14164TIP3   OH263906   6.004   1.432   1.109  0.0223 -0.1398 -0.6213
14164TIP3    H163907   6.011   1.460   1.201  2.2622 -1.0181 -0.4641
14164TIP3    H263908   6.047   1.502   1.060  3.7219 -1.9962 -0.4115
14165TIP3   OH263909   4.673   4.066   2.713  0.1137  0.4562  0.5461
14165TIP3    H163910   4.729   4.137   2.680  1.0645 -1.0777 -1.3422
14165TIP3    H263911   4.671   4.002   2.642 -2.5092 -0.4602  1.3229
14166TIP3   OH263912   2.162   5.390  12.292 -0.3866 -0.5283 -0.0465
14166TIP3    H163913   2.217   5.455  12.250 -2.7285  1.5246 -0.1425
14166TIP3    H263914   2.155   5.319  12.227  0.2169  0.2407 -0.9769
14167TIP3   OH263915   0.310   3.678  14.055  0.3302  0.3246 -0.1528
14167TIP3    H163916   0.229   3.692  14.104 -0.7602  4.4858 -2.6723
14167TIP3    H263917   0.283   3.676  13.963  2.8362 -1.6875 -0.9745
14168TIP3   OH263918   1.374   0.605   4.943 -0.3873  0.0173  0.0144
14168TIP3    H163919   1.383   0.649   4.858  2.3202  1.0058  0.7148
14168TIP3    H263920   1.372   0.677   5.007 -1.5583 -0.7461  0.8723
14169TIP3   OH263921   4.206   2.913   2.682  0.1939  0.8111 -0.5120
14169TIP3    H163922   4.255   2.862   2.617 -0.8142 -0.4302 -0.3381
14169TIP3    H263923   4.118   2.920   2.646 -0.1976  0.7012  0.3934
14170TIP3   OH263924   1.072   1.384  11.711  0.0200 -0.2112 -0.4968
14170TIP3    H163925   1.113   1.431  11.638  3.5236 -1.9065  0.1823
14170TIP3    H263926   1.040   1.453  11.769  3.5286  1.4567 -0.2815
14171TIP3   OH263927   0.331   4.368  16.809  0.3171  0.1722 -0.0401
14171TIP3    H163928   0.312   4.450  16.855 -1.2107  0.4592 -1.0836
14171TIP3    H263929   0.418   4.343  16.839  0.0144  1.1437  1.7842
14172TIP3   OH263930   6.247   1.769   0.702  0.0642  0.2547  0.2594
14172TIP3    H163931   6.194   1.774   0.782 -0.8259  0.5171 -0.3261
14172TIP3    H263932   6.300   1.848   0.703  0.7940 -0.2216  1.0748
14173TIP3   OH263933   0.721   6.010   1.435  0.6267  0.0500  0.0673
14173TIP3    H163934   0.634   6.049   1.442  1.0083  0.9661 -0.1001
14173TIP3    H263935   0.774   6.057   1.500  1.0670 -0.2869 -0.0382
14174TIP3   OH263936   2.021   3.589  14.509  0.2169 -0.0967  0.2795
14174TIP3    H163937   1.991   3.619  14.423 -0.1501  2.2373  1.1572
14174TIP3    H263938   2.006   3.494  14.508  0.8517 -0.2526 -2.4472
14175TIP3   OH263939   4.968   2.643   0.501  0.0996 -0.1703  0.1206
14175TIP3    H163940   4.985   2.549   0.506 -0.6332 -0.4410 -1.5338
14175TIP3    H263941   5.045   2.679   0.457 -0.1285 -0.2063 -0.3245
14176TIP3   OH263942   4.856   0.678   3.472  0.7127 -0.2246  0.3476
14176TIP3    H163943   4.855   0.671   3.567  2.6625  0.2040  0.4486
14176TIP3    H263944   4.822   0.594   3.441  0.7061 -0.6334  1.4262
14177TIP3   OH263945   0.550   0.661  15.317  0.0931  0.4841  0.1472
14177TIP3    H163946   0.507   0.740  15.286 -0.3220  1.3998  2.7862
14177TIP3    H263947   0.642   0.684  15.322  0.5012 -0.3499 -2.1883
14178TIP3   OH263948   6.079   3.198   3.371  0.0399 -0.6429  0.3769
14178TIP3    H163949   6.089   3.285   3.333  2.5564 -0.5471  1.1072
14178TIP3    H263950   6.066   3.213   3.464  0.9865 -1.0312  0.5860
14179TIP3   OH263951   2.596   4.982   1.257 -0.2822  0.2735  0.4710
14179TIP3    H163952   2.524   4.956   1.199  1.6652 -2.7062 -0.8910
14179TIP3    H263953   2.667   5.007   1.198  0.9377 -0.3308  1.6292
14180TIP3   OH263954   6.433   3.781  11.903 -0.0799  0.2304  0.3165
14180TIP3    H163955   6.407   3.733  11.824 -2.5647  0.0454  1.1689
14180TIP3    H263956   6.463   3.866  11.870  0.9859 -0.5888 -0.9441
14181TIP3   OH263957   2.340   2.799   5.208 -0.4888 -0.3567 -0.2458
14181TIP3    H163958   2.250   2.828   5.192 -0.0341 -0.2786 -3.1053
14181TIP3    H263959   2.335   2.703   5.204 -0.4935 -0.3620 -0.1107
14182TIP3   OH263960   3.293   2.709   4.278 -0.3628  0.8553 -0.9591
14182TIP3    H163961   3.231   2.757   4.332  0.0532  2.1128 -1.5603
14182TIP3    H263962   3.315   2.631   4.330 -0.9764  1.3597  0.0847
14183TIP3   OH263963   0.260   1.936  11.577 -0.9906  0.0443 -0.4926
14183TIP3    H163964   0.288   1.919  11.487  0.6544  1.6087 -0.3512
14183TIP3    H263965   0.185   1.879  11.591 -0.2140 -1.4952 -2.2794
14184TIP3   OH263966   3.659   3.284  10.907  0.0518 -0.0856  0.2610
14184TIP3    H163967   3.731   3.331  10.947 -0.8005  0.6897  0.9214
14184TIP3    H263968   3.697   3.243  10.829  1.0868  0.6950  0.3412
14185TIP3   OH263969   4.124   5.909   1.103 -0.1762  0.2542 -0.0555
14185TIP3    H163970   4.105   5.848   1.174 -0.1713 -0.4780 -0.6685
14185TIP3    H263971   4.077   5.989   1.126 -3.3064 -1.1348 -1.0058
14186TIP3   OH263972   5.591   1.668   2.617 -0.5400 -0.2527  0.6352
14186TIP3    H163973   5.520   1.703   2.563  1.7698  2.2359 -1.0249
14186TIP3    H263974   5.590   1.723   2.696  3.0621  4.2059 -1.9516
14187TIP3   OH263975   0.704   4.750   5.553 -0.6102  0.3950  0.2111
14187TIP3    H163976   0.740   4.825   5.506  0.9045 -0.6498 -0.3855
14187TIP3    H263977   0.752   4.749   5.636  1.0078 -1.1204 -0.6703
14188TIP3   OH263978   2.250   0.043  12.096  0.1473 -0.5616  0.7748
14188TIP3    H163979   2.172   0.097  12.093  0.2871 -0.3886 -0.0448
14188TIP3    H263980   2.273   0.028  12.004  0.1320 -1.9887  0.9734
14189TIP3   OH263981   1.722   1.281  11.254 -0.2306 -0.4128  0.2100
14189TIP3    H163982   1.758   1.253  11.170  0.5747 -1.1146  0.7704
14189TIP3    H263983   1.679   1.202  11.289 -0.1428 -0.2649  0.6627
14190TIP3   OH263984   0.502   6.715   0.110 -0.2564  0.0780  0.0987
14190TIP3    H163985   0.463   6.743   0.192 -1.5837 -1.0284 -0.1148
14190TIP3    H263986   0.570   6.653   0.136 -0.0534  0.4206  0.3923
14191TIP3   OH263987   1.972   2.278  15.734 -0.0008  0.0359 -0.0428
14191TIP3    H163988   1.929   2.353  15.693  1.7631  1.1247 -0.0505
14191TIP3    H263989   1.946   2.203  15.682  1.2568  1.1989 -2.5317
14192TIP3   OH263990   0.181   5.826   5.185  0.1210 -0.6443  0.3360
14192TIP3    H163991   0.198   5.832   5.279  0.8640  0.6804  0.1360
14192TIP3    H263992   0.112   5.891   5.169 -0.5655 -1.4184  0.0805
14193TIP3   OH263993   2.025   0.661   0.174  0.2578 -0.2046 -0.5329
14193TIP3    H163994   1.940   0.631   0.141  0.1718  0.1164 -0.6147
14193TIP3    H263995   2.041   0.608   0.252 -1.2022  1.4091  0.9441
14194TIP3   OH263996   6.393   2.006  13.413 -0.1801 -0.1765  0.3307
14194TIP3    H163997   6.444   2.063  13.356  0.2643 -0.4080  0.4880
14194TIP3    H263998   6.378   1.927  13.361 -0.3410 -0.1271  0.3011
14195TIP3   OH263999   5.498   5.048   5.527  0.8571 -0.3345 -0.5757
14195TIP3    H164000   5.532   5.125   5.481 -1.2204  1.4496  0.6847
14195TIP3    H264001   5.419   5.024   5.478  0.1058 -0.0495  0.4580
14196TIP3   OH264002   6.264   0.455   5.399  0.0833  0.4809  0.0786
14196TIP3    H164003   6.267   0.399   5.322 -1.2186  1.6661 -0.8652
14196TIP3    H264004   6.323   0.527   5.378  0.8414  0.0951  0.8101
14197TIP3   OH264005   2.344   0.641   1.835  0.2981 -0.0127  0.2597
14197TIP3    H164006   2.418   0.604   1.786  1.7152 -0.0086  2.3115
14197TIP3    H264007   2.322   0.573   1.899 -0.1852  0.7936  0.9618
14198TIP3   OH264008   5.675   2.683  15.765  0.8784  0.0439 -0.6915
14198TIP3    H164009   5.750   2.678  15.824  0.3840 -2.7615 -0.1785
14198TIP3    H264010   5.601   2.706  15.821  0.5000 -2.1310 -0.2348
14199TIP3   OH264011   1.378   1.269   4.941  0.0067  0.1169  0.0625
14199TIP3    H164012   1.294   1.306   4.968 -0.6746 -1.1420 -0.2416
14199TIP3    H264013   1.411   1.223   5.019  0.9292  1.4414  0.4925
14200TIP3   OH264014   2.552   3.308  16.046 -0.1977  0.1720 -0.7613
14200TIP3    H164015   2.513   3.261  16.120  1.3487  1.0471  0.6879
14200TIP3    H264016   2.483   3.365  16.014 -0.8353 -0.0487  0.1886
14201TIP3   OH264017   2.288   1.391   2.813  0.1270  0.1189 -0.0054
14201TIP3    H164018   2.329   1.433   2.737  0.6155 -1.8772 -0.9235
14201TIP3    H264019   2.258   1.464   2.867  1.4491  1.6342 -1.1848
14202TIP3   OH264020   1.335   1.898   2.046  0.1534  0.8616  0.0020
14202TIP3    H164021   1.327   1.803   2.050 -2.4939  1.0229  0.4491
14202TIP3    H264022   1.345   1.918   1.953  0.1027  0.1634 -0.1556
14203TIP3   OH264023   5.373   2.114  16.094 -0.1892  0.1702  0.4279
14203TIP3    H164024   5.450   2.083  16.142  0.5209 -0.5843 -1.1338
14203TIP3    H264025   5.373   2.209  16.107 -0.0550 -0.0124  1.9407
14204TIP3   OH264026   3.578   4.376  13.917 -0.4875  0.3994  0.0643
14204TIP3    H164027   3.647   4.440  13.939 -1.5773  1.7239 -0.2057
14204TIP3    H264028   3.559   4.393  13.825  0.3674 -1.5023 -0.4958
14205TIP3   OH264029   3.495   3.702  13.111 -0.6340  0.1167  0.5682
14205TIP3    H164030   3.568   3.734  13.162 -1.0216  0.7386  0.7437
14205TIP3    H264031   3.533   3.678  13.026 -0.1912  0.2148  0.7407
14206TIP3   OH264032   3.233   6.653   0.105  0.1962 -0.0008  0.3356
14206TIP3    H164033   3.178   6.595   0.157 -0.1275  0.8393  0.9557
14206TIP3    H264034   3.314   6.661   0.155  0.0017  0.5685  0.5698
14207TIP3   OH264035   3.328   3.708   0.508 -0.5061  0.2233  0.5797
14207TIP3    H164036   3.396   3.775   0.499 -0.8541  0.6404  0.9984
14207TIP3    H264037   3.245   3.756   0.501 -0.7993 -0.4758 -1.4378
14208TIP3   OH264038   3.947   3.391   0.775 -0.1014 -0.1306  0.0745
14208TIP3    H164039   3.972   3.398   0.683 -0.7164  2.1282  0.0195
14208TIP3    H264040   3.965   3.478   0.812 -1.3335 -0.5083  1.6897
14209TIP3   OH264041   2.098   5.829  14.291 -0.0955 -0.0490  0.2837
14209TIP3    H164042   2.119   5.900  14.351 -1.5004 -0.6755  1.5911
14209TIP3    H264043   2.006   5.843  14.269 -0.8617 -2.1892  1.7455
14210TIP3   OH264044   3.209   4.045   0.444  0.3721  0.2400  0.8364
14210TIP3    H164045   3.172   4.054   0.532  1.4372  1.8087  1.1593
14210TIP3    H264046   3.134   4.052   0.385 -0.3009 -0.4663  1.5855
14211TIP3   OH264047   2.051   0.503   1.905  0.5403  0.7914  0.0805
14211TIP3    H164048   1.982   0.487   1.969 -0.6812 -0.5288 -1.4700
14211TIP3    H264049   2.106   0.425   1.909 -0.4589 -0.0671 -1.4918
14212TIP3   OH264050   5.649   5.130   1.839  0.4081 -0.0014  0.5886
14212TIP3    H164051   5.555   5.131   1.861  0.0380 -1.7686 -0.6625
14212TIP3    H264052   5.669   5.037   1.827  2.8791  0.1385  2.9340
14213TIP3   OH264053   6.476   6.627  16.138  0.6157 -0.6243  0.1428
14213TIP3    H164054   6.517   6.656  16.220 -1.0286  0.6322  0.5927
14213TIP3    H264055   6.434   6.544  16.160 -0.1681 -0.0903  0.7258
14214TIP3   OH264056   4.629   2.409  11.658  0.0244  0.6777 -0.3367
14214TIP3    H164057   4.635   2.471  11.730  0.4697  0.8497 -0.5160
14214TIP3    H264058   4.561   2.444  11.601 -1.4641 -0.2849  0.7759
14215TIP3   OH264059   3.027   3.726  15.036 -0.1713 -0.5802  0.1521
14215TIP3    H164060   3.064   3.725  15.124 -1.9286  1.2201  0.9966
14215TIP3    H264061   3.008   3.819  15.020 -0.5271 -0.9662 -1.8474
14216TIP3   OH264062   6.585   1.710  14.879  0.0099 -0.3517 -0.0302
14216TIP3    H164063   6.647   1.783  14.890  2.8864 -2.5568 -0.3787
14216TIP3    H264064   6.531   1.736  14.804 -0.9623  2.5495  1.5461
14217TIP3   OH264065   5.011   4.863  17.188  0.9549 -0.9299 -0.1119
14217TIP3    H164066   5.012   4.864  17.092 -0.1009  0.2636 -0.1405
14217TIP3    H264067   4.987   4.953  17.212  0.2471 -1.4673  1.2538
14218TIP3   OH264068   2.462   6.110  10.848  0.5782 -0.0743 -0.1459
14218TIP3    H164069   2.377   6.147  10.870  0.5600  0.2642 -0.7589
14218TIP3    H264070   2.443   6.022  10.815  0.6040 -0.5802  1.1302
14219TIP3   OH264071   3.888   1.350  12.592  0.4544 -0.1764 -0.0679
14219TIP3    H164072   3.861   1.273  12.641  2.7793 -0.6262  0.6143
14219TIP3    H264073   3.861   1.424  12.647  0.8021 -0.5975  0.6800
14220TIP3   OH264074   4.679   1.759   0.976 -0.0239 -0.0021  0.0611
14220TIP3    H164075   4.677   1.700   0.900  1.9948 -0.1136  0.0224
14220TIP3    H264076   4.589   1.790   0.985 -0.5724 -0.9540 -1.6094
14221TIP3   OH264077   0.326   4.597  11.316 -0.3336  0.0625  0.5245
14221TIP3    H164078   0.292   4.572  11.402 -0.8086  2.1280  0.9834
14221TIP3    H264079   0.252   4.587  11.257 -0.1200 -0.9452  0.3977
14222TIP3   OH264080   6.754   6.124   5.442 -0.1701  0.2000  0.0843
14222TIP3    H164081   6.823   6.186   5.419  0.4296 -0.5949 -0.2950
14222TIP3    H264082   6.737   6.075   5.362  1.0557 -1.7389  0.9227
14223TIP3   OH264083   1.042   4.998   5.103 -0.3918  0.5216  0.5344
14223TIP3    H164084   1.007   4.909   5.112  1.1729 -0.3487 -1.1502
14223TIP3    H264085   1.137   4.986   5.107 -0.1518  2.4446  2.4431
14224TIP3   OH264086   1.877   1.383   2.363  0.7386  0.0542 -0.3963
14224TIP3    H164087   1.908   1.345   2.445 -0.3543  2.8924  1.4506
14224TIP3    H264088   1.782   1.374   2.366  0.6262  0.9620 -0.9176
14225TIP3   OH264089   1.288   4.040  16.634  0.3063 -0.2930 -0.1428
14225TIP3    H164090   1.367   4.022  16.583  0.8876  0.3065  0.5276
14225TIP3    H264091   1.246   3.954  16.645  1.1599 -0.7046 -0.0274
14226TIP3   OH264092   1.751   3.087  14.808 -0.1402  0.4321 -0.1207
14226TIP3    H164093   1.675   3.029  14.799 -0.2116  0.8256 -3.2059
14226TIP3    H264094   1.716   3.175  14.791  0.9241  0.6411 -1.4116
14227TIP3   OH264095   6.727   2.986   4.988 -0.0127 -0.2470 -0.1985
14227TIP3    H164096   6.735   3.073   5.026  0.5230 -0.3840  0.0064
14227TIP3    H264097   6.769   2.928   5.052 -1.8301 -0.8817  0.4969
14228TIP3   OH264098   6.145   0.392   4.064 -0.6573 -0.3654 -0.3007
14228TIP3    H164099   6.142   0.437   4.149  1.0576  1.0773 -0.9542
14228TIP3    H264100   6.065   0.422   4.020 -0.4579  0.6374 -0.0246
14229TIP3   OH264101   0.401   5.241  16.384  0.4718 -0.4657 -0.3021
14229TIP3    H164102   0.345   5.264  16.458 -1.0192 -2.8419 -0.5972
14229TIP3    H264103   0.448   5.163  16.413  1.8802  0.1099 -0.9468
14230TIP3   OH264104   2.764   5.100  14.180  0.3359 -0.1320  0.1341
14230TIP3    H164105   2.694   5.046  14.143 -2.0577  0.7455  2.9802
14230TIP3    H264106   2.796   5.152  14.106 -1.8282 -0.7924 -1.3617
14231TIP3   OH264107   4.211   1.828   3.822 -0.1587  0.4005 -0.6228
14231TIP3    H164108   4.289   1.825   3.879 -0.8392 -2.5149  0.3413
14231TIP3    H264109   4.138   1.837   3.883 -0.7349  0.4120 -1.3039
14232TIP3   OH264110   2.222   2.265  14.759  0.3585  0.3356  0.3948
14232TIP3    H164111   2.314   2.291  14.759  0.5145 -0.1471  1.6500
14232TIP3    H264112   2.196   2.268  14.851 -0.7177 -0.1140  0.1230
14233TIP3   OH264113   3.886   5.961  13.496  0.1610  0.2823 -0.3267
14233TIP3    H164114   3.855   6.040  13.541  1.0500  0.4238  0.0604
14233TIP3    H264115   3.861   5.889  13.555  0.3223  0.3718 -0.1467
14234TIP3   OH264116   3.506   0.703  17.203  0.1180 -0.3548  0.4217
14234TIP3    H164117   3.585   0.748  17.232  0.2410 -0.5539  0.3963
14234TIP3    H264118   3.537   0.617  17.172 -0.0295 -0.2005 -0.1689
14235TIP3   OH264119   6.694   0.158  14.916 -0.3445  0.0766  0.5119
14235TIP3    H164120   6.606   0.137  14.948 -0.3246 -0.4289  0.2396
14235TIP3    H264121   6.752   0.097  14.962 -0.2112 -0.0237  0.2142
14236TIP3   OH264122   4.787   4.208  12.247 -0.2690  0.2998  0.7598
14236TIP3    H164123   4.730   4.179  12.318  0.1389 -0.0850  0.9344
14236TIP3    H264124   4.854   4.141  12.242 -0.6177  0.0216 -0.3797
14237TIP3   OH264125   2.793   1.017  15.443 -0.0607  0.4042 -0.5693
14237TIP3    H164126   2.816   1.046  15.531  0.6967  0.6736 -0.8503
14237TIP3    H264127   2.697   1.009  15.445 -0.1091  1.0168  0.0945
14238TIP3   OH264128   3.102   3.204  15.960  0.4677 -0.3620 -0.4799
14238TIP3    H164129   3.062   3.287  15.935 -0.6534 -0.9560 -0.7565
14238TIP3    H264130   3.102   3.205  16.056 -0.7842 -0.5802 -0.4556
14239TIP3   OH264131   5.199   5.141   4.936  0.3499 -0.1624 -0.0134
14239TIP3    H164132   5.237   5.229   4.943  0.4567 -0.2747  0.9383
14239TIP3    H264133   5.128   5.151   4.872  0.0589  0.7311  0.4263
14240TIP3   OH264134   1.610   3.014  15.808  0.2994 -0.1146  0.8409
14240TIP3    H164135   1.632   2.939  15.752  2.4987  1.6122 -0.8231
14240TIP3    H264136   1.587   3.083  15.747  0.1547  1.1089  2.2263
14241TIP3   OH264137   2.124   6.674  16.483 -0.0754  0.1096 -0.0070
14241TIP3    H164138   2.068   6.618  16.431  2.0449 -2.6412  0.4337
14241TIP3    H264139   2.127   6.633  16.569 -0.5238  2.4428  1.2065
14242TIP3   OH264140   1.368   5.824  16.383  0.0405  0.2816  0.0866
14242TIP3    H164141   1.373   5.918  16.399  1.5454  0.2259  0.0693
14242TIP3    H264142   1.335   5.817  16.293 -2.4462  0.6984  0.8636
14243TIP3   OH264143   4.962   2.639  17.013  0.2909 -0.3520  0.0689
14243TIP3    H164144   5.030   2.704  16.996 -0.0287 -0.1736 -0.5311
14243TIP3    H264145   4.955   2.589  16.931  1.7422 -2.2817  1.0354
14244TIP3   OH264146   6.380   3.137  13.690 -0.0495 -0.2668 -0.3001
14244TIP3    H164147   6.293   3.132  13.651 -0.2059  1.1738 -0.2242
14244TIP3    H264148   6.413   3.224  13.664  0.2259  0.3683  1.9071
14245TIP3   OH264149   6.229   4.642   0.718 -0.5383 -0.0497 -0.0363
14245TIP3    H164150   6.309   4.694   0.730 -1.0547  1.3627 -2.2711
14245TIP3    H264151   6.261   4.553   0.704  0.6211  0.3824 -0.2481
14246TIP3   OH264152   2.749   4.600   2.746  0.0926 -0.2634 -0.0398
14246TIP3    H164153   2.798   4.544   2.686 -0.1620  1.9321 -2.4627
14246TIP3    H264154   2.792   4.686   2.740  1.0404 -0.1940  4.1987
14247TIP3   OH264155   0.740   3.702  17.072 -0.4331  0.3875 -0.1806
14247TIP3    H164156   0.723   3.761  16.999  1.6211 -0.6674 -1.6158
14247TIP3    H264157   0.716   3.752  17.150 -1.2906  2.0811 -1.4752
14248TIP3   OH264158   2.833   1.618  12.070  0.2567  0.0076 -0.0340
14248TIP3    H164159   2.884   1.546  12.033  0.5488  1.1862 -2.0870
14248TIP3    H264160   2.890   1.657  12.136  1.1204 -0.0959 -0.6975
14249TIP3   OH264161   2.468   3.752  12.163  0.3217 -0.1741  0.4840
14249TIP3    H164162   2.484   3.832  12.114 -0.4547 -0.2096  0.1588
14249TIP3    H264163   2.493   3.682  12.103 -0.2191 -0.2061  0.2936
14250TIP3   OH264164   2.321   5.051   0.066 -0.6097  0.5291 -0.2192
14250TIP3    H164165   2.274   5.028  -0.015 -1.2226 -2.4993  0.8719
14250TIP3    H264166   2.255   5.044   0.135  0.7033 -0.5916  0.9715
14251TIP3   OH264167   6.715   1.155   0.069 -0.5920 -0.3595  0.3036
14251TIP3    H164168   6.783   1.167   0.135  1.2474 -0.4550 -1.4969
14251TIP3    H264169   6.755   1.101   0.001 -2.1012  0.4409 -1.3294
14252TIP3   OH264170   1.514   6.247   1.336 -0.1617 -0.1855  0.2521
14252TIP3    H164171   1.484   6.172   1.285 -1.1567 -1.2745  2.2746
14252TIP3    H264172   1.553   6.207   1.415 -0.0720  1.4023  1.0448
14253TIP3   OH264173   1.633   5.238  12.796 -0.1110  0.9741  0.0961
14253TIP3    H164174   1.591   5.174  12.738  1.6751 -0.5907  0.4248
14253TIP3    H264175   1.662   5.308  12.737 -3.1793  2.2177 -0.1205
14254TIP3   OH264176   0.188   4.848  12.802  0.2424  0.8266  0.1675
14254TIP3    H164177   0.147   4.896  12.730  0.8537  0.2144 -0.6125
14254TIP3    H264178   0.209   4.915  12.867  3.8387  2.2604 -2.1309
14255TIP3   OH264179   2.271   4.569  13.367 -0.8125  0.5443  0.0835
14255TIP3    H164180   2.212   4.494  13.364  0.3252 -0.3653 -0.3820
14255TIP3    H264181   2.286   4.585  13.460 -1.2165  0.3156  0.1890
14256TIP3   OH264182   3.312   6.604   5.750 -0.1566  0.0329  0.1077
14256TIP3    H164183   3.293   6.636   5.662 -0.1090  0.6296  0.3139
14256TIP3    H264184   3.271   6.517   5.752 -0.1210 -0.0073 -0.5127
14257TIP3   OH264185   0.348   6.721   4.560  0.1125  0.0245  0.4573
14257TIP3    H164186   0.315   6.810   4.549  1.7746  0.4000 -2.3084
14257TIP3    H264187   0.321   6.674   4.481  0.3856 -1.5893  1.2634
14258TIP3   OH264188   0.496   2.551   0.547 -0.0994  0.8354 -0.7066
14258TIP3    H164189   0.560   2.586   0.485  0.4771 -0.9219 -1.1534
14258TIP3    H264190   0.412   2.560   0.501  0.3112 -0.3614 -1.7497
14259TIP3   OH264191   6.601   4.462   4.146 -0.4696  0.3896  0.0046
14259TIP3    H164192   6.563   4.413   4.073  1.9001 -1.9948  0.2065
14259TIP3    H264193   6.668   4.518   4.106  0.8444 -0.9330  0.2808
14260TIP3   OH264194   4.952   2.948   4.616 -0.1037  0.2835  0.2272
14260TIP3    H164195   5.007   2.921   4.542  0.1310 -2.4750  1.2781
14260TIP3    H264196   4.946   2.869   4.670 -2.0954  1.5839  2.0207
14261TIP3   OH264197   3.854   6.255   2.673 -0.2421  0.1834 -0.3470
14261TIP3    H164198   3.761   6.259   2.651 -0.6903 -1.3989  1.0053
14261TIP3    H264199   3.885   6.176   2.629 -0.5137 -1.4579  2.1752
14262TIP3   OH264200   0.321   4.210  17.138  0.0938 -0.7084 -0.4457
14262TIP3    H164201   0.362   4.293  17.116  1.2211 -1.3686 -0.9692
14262TIP3    H264202   0.232   4.232  17.165  0.5600  0.7043 -0.0266
14263TIP3   OH264203   6.013   5.422   6.304 -0.2778  0.0957 -0.3651
14263TIP3    H164204   5.929   5.452   6.270 -0.4556 -1.6920 -1.6697
14263TIP3    H264205   5.990   5.365   6.378 -0.3844 -1.6443 -1.6714
14264TIP3   OH264206   2.313   6.571  16.135 -0.1429 -0.0753 -0.1685
14264TIP3    H164207   2.282   6.483  16.112  0.3173 -0.3781  0.3511
14264TIP3    H264208   2.233   6.624  16.136 -0.5255 -0.6397  0.1922
14265TIP3   OH264209   5.613   4.568   2.233  0.1872  0.8640 -0.2071
14265TIP3    H164210   5.618   4.600   2.143  1.1617 -0.0712 -0.5003
14265TIP3    H264211   5.591   4.475   2.225 -1.2630  1.0999  0.5910
14266TIP3   OH264212   5.671   3.610  13.645 -0.1855 -0.1682  0.2149
14266TIP3    H164213   5.686   3.702  13.667 -0.0056 -0.1784  0.1321
14266TIP3    H264214   5.595   3.585  13.699 -0.3810  0.0925  0.0651
14267TIP3   OH264215   2.335   3.794   1.291  0.8529 -0.1502 -0.2996
14267TIP3    H164216   2.249   3.751   1.297  0.2491  0.9209 -0.9657
14267TIP3    H264217   2.342   3.820   1.199  2.0705 -0.5526 -0.3404
14268TIP3   OH264218   3.192   1.838  12.810  0.2310 -0.3789 -0.1536
14268TIP3    H164219   3.245   1.807  12.736 -1.3728  0.7771 -1.8656
14268TIP3    H264220   3.125   1.771  12.821  0.9101 -0.9339  0.8231
14269TIP3   OH264221   0.736   6.452   3.860  0.5333  0.1712  0.2872
14269TIP3    H164222   0.673   6.513   3.898  0.1115 -0.6348  0.9229
14269TIP3    H264223   0.706   6.440   3.770  0.3436  0.5318  0.2991
14270TIP3   OH264224   4.072   5.156  13.570  0.0313  0.1908  0.1136
14270TIP3    H164225   4.001   5.127  13.513  0.8210 -0.8755 -0.3574
14270TIP3    H264226   4.044   5.242  13.601 -1.5987 -0.3286  0.1770
14271TIP3   OH264227   2.610   3.723  15.412 -0.3119 -0.1393 -1.1210
14271TIP3    H164228   2.656   3.654  15.460 -1.9601  0.6722  1.9156
14271TIP3    H264229   2.679   3.781  15.380  0.9412 -0.3077  1.0663
14272TIP3   OH264230   4.388   4.347  12.551  0.4819 -0.2554  0.2028
14272TIP3    H164231   4.402   4.275  12.612  2.7154  2.1990  2.8865
14272TIP3    H264232   4.456   4.335  12.485  1.8907  0.1665  1.5191
14273TIP3   OH264233   3.126   4.289  15.582  0.4314  0.1572 -0.2721
14273TIP3    H164234   3.120   4.195  15.601  2.2925  0.0727  0.1317
14273TIP3    H264235   3.036   4.320  15.585 -0.2658 -1.6835 -0.8097
14274TIP3   OH264236   1.143   2.699   1.118 -0.0403 -0.2022  0.4759
14274TIP3    H164237   1.177   2.683   1.206  1.9838 -1.0352 -0.3739
14274TIP3    H264238   1.130   2.611   1.081 -1.3238  0.1294  0.0771
14275TIP3   OH264239   3.119   5.775   5.825 -0.2217  0.2916  0.2094
14275TIP3    H164240   3.166   5.762   5.908  1.0929 -0.4485 -0.6184
14275TIP3    H264241   3.183   5.817   5.768 -0.5881 -0.6442 -0.9250
14276TIP3   OH264242   3.567   4.781  15.673 -0.1907  0.5910  0.6306
14276TIP3    H164243   3.600   4.701  15.714 -0.4282  0.3880  0.4278
14276TIP3    H264244   3.493   4.807  15.728 -1.6208 -0.6373 -0.6091
14277TIP3   OH264245   1.204   4.877  10.886 -0.0178 -0.8008 -0.0057
14277TIP3    H164246   1.188   4.784  10.869 -0.6475 -1.0184  1.5296
14277TIP3    H264247   1.119   4.919  10.870 -0.0595 -0.6932  0.4727
14278TIP3   OH264248   2.074   0.561  15.433  0.2715  0.1081  0.1725
14278TIP3    H164249   2.065   0.642  15.383 -0.8913 -1.6675 -2.7348
14278TIP3    H264250   2.152   0.519  15.397 -0.1805 -0.8853  0.3198
14279TIP3   OH264251   0.656   6.415   2.092 -0.2582 -0.3497 -0.1210
14279TIP3    H164252   0.740   6.392   2.131 -0.0932 -0.3075 -0.4462
14279TIP3    H264253   0.655   6.368   2.008  0.1557  0.9549 -0.8832
14280TIP3   OH264254   6.284   5.483   2.183 -0.7484  0.1086 -1.2012
14280TIP3    H164255   6.260   5.500   2.274  1.4326 -1.0754 -0.3329
14280TIP3    H264256   6.235   5.405   2.159 -0.8968  0.0939 -0.8576
14281TIP3   OH264257   4.810   4.598   4.713 -0.4321  0.2928 -0.1650
14281TIP3    H164258   4.864   4.577   4.789  0.6204 -1.1448 -1.2512
14281TIP3    H264259   4.747   4.526   4.707  1.6398 -1.5238 -2.5016
14282TIP3   OH264260   3.015   2.598  16.728  0.3365  0.2634 -0.0275
14282TIP3    H164261   2.970   2.535  16.672  0.5900  2.1019 -2.4263
14282TIP3    H264262   3.074   2.544  16.781 -0.4197 -1.6271 -1.0210
14283TIP3   OH264263   0.786   4.230   1.111  0.6792  0.3504 -0.7120
14283TIP3    H164264   0.882   4.240   1.113  0.4822  2.5975  0.4046
14283TIP3    H264265   0.764   4.233   1.017  1.4606  3.7956 -0.9324
14284TIP3   OH264266   3.620   1.171  12.015  0.2401  0.2420 -0.1320
14284TIP3    H164267   3.538   1.207  12.049  0.5901  1.5818 -0.6453
14284TIP3    H264268   3.663   1.132  12.092 -0.4709  0.2963  0.3034
14285TIP3   OH264269   2.833   1.915  17.108  0.1176  0.5349 -0.2782
14285TIP3    H164270   2.839   1.832  17.157  2.0215  0.6103 -0.3176
14285TIP3    H264271   2.809   1.980  17.175 -0.3018  0.1433 -0.0383
14286TIP3   OH264272   0.523   4.246  12.839  0.2870 -0.2672  0.3580
14286TIP3    H164273   0.513   4.159  12.879 -2.8144 -0.1182  0.1915
14286TIP3    H264274   0.483   4.236  12.752 -0.5355  1.3919  0.5092
14287TIP3   OH264275   4.627   6.145  12.871 -0.2230 -0.6135  0.1570
14287TIP3    H164276   4.699   6.081  12.877  0.4821 -0.0395 -1.5982
14287TIP3    H264277   4.665   6.225  12.907  0.3324 -0.1008 -1.4716
14288TIP3   OH264278   2.344   2.844  15.793 -0.2820  0.5108 -0.4038
14288TIP3    H164279   2.275   2.848  15.726  1.2850  0.4520 -2.0754
14288TIP3    H264280   2.337   2.927  15.839 -1.9029  0.2306 -0.0661
14289TIP3   OH264281   5.345   1.438  10.952 -0.1602  0.1787  0.0898
14289TIP3    H164282   5.377   1.349  10.970 -1.1148  0.0299  1.1647
14289TIP3    H264283   5.382   1.460  10.867 -1.7607 -2.1518 -1.3260
14290TIP3   OH264284   5.845   4.976   1.263  0.1578 -0.3964 -0.0904
14290TIP3    H164285   5.795   5.054   1.238 -0.5495 -0.8140 -0.0050
14290TIP3    H264286   5.929   4.987   1.220  0.6955  1.2304  1.2498
14291TIP3   OH264287   0.340   3.999   2.716 -0.2726  0.1343  0.6304
14291TIP3    H164288   0.381   4.081   2.745 -0.0947  0.2001  0.2128
14291TIP3    H264289   0.247   4.021   2.706 -0.3297  0.1138  1.1301
14292TIP3   OH264290   1.484   0.075  13.178  0.2093  0.6188 -0.5226
14292TIP3    H164291   1.512   0.047  13.091 -0.6646 -0.8312 -0.3637
14292TIP3    H264292   1.487   0.171  13.174 -0.7068  0.6185 -2.4540
14293TIP3   OH264293   4.460   0.792   6.354 -0.1643  0.2708 -0.1450
14293TIP3    H164294   4.507   0.766   6.434  0.5382 -1.4490 -1.0706
14293TIP3    H264295   4.472   0.887   6.350  1.0062  0.2072  1.0506
14294TIP3   OH264296   2.956   3.865  11.515 -0.0180 -0.0654 -0.1743
14294TIP3    H164297   2.951   3.960  11.506 -1.3657 -0.0572  0.3771
14294TIP3    H264298   2.896   3.845  11.587  2.6170 -1.0413  1.9294
14295TIP3   OH264299   2.437   2.561   0.790  0.5331 -0.0924 -0.0459
14295TIP3    H164300   2.484   2.601   0.862  0.1745 -0.8207  0.6169
14295TIP3    H264301   2.504   2.517   0.738  0.9204  1.2995 -0.7615
14296TIP3   OH264302   1.678   0.586   0.448 -0.1665  0.3917 -0.3521
14296TIP3    H164303   1.766   0.550   0.457 -0.4111  0.3089  2.8812
14296TIP3    H264304   1.684   0.673   0.489 -1.9890 -0.5271  2.1278
14297TIP3   OH264305   0.864   1.513  16.721 -0.2553  0.5464  0.3151
14297TIP3    H164306   0.864   1.603  16.689 -1.3218  1.2919  2.2731
14297TIP3    H264307   0.878   1.521  16.815 -0.2786 -1.3541  0.5216
14298TIP3   OH264308   3.559   2.337  11.084  0.2637  0.0567 -0.1379
14298TIP3    H164309   3.536   2.261  11.032 -0.0651 -1.1420  1.6604
14298TIP3    H264310   3.478   2.360  11.130  0.8806  0.1295  0.9604
14299TIP3   OH264311   3.320   3.975   5.105 -0.6030  0.1125 -0.1045
14299TIP3    H164312   3.287   3.891   5.074 -0.6668 -0.7197  2.0330
14299TIP3    H264313   3.412   3.959   5.124 -1.1077 -0.2409  2.4968
14300TIP3   OH264314   1.673   5.007  15.720  0.0627  0.7456  0.2988
14300TIP3    H164315   1.744   5.064  15.690  1.0463  0.5804  2.1914
14300TIP3    H264316   1.715   4.923  15.739 -0.9136  0.1724  0.0335
14301TIP3   OH264317   0.339   3.258  11.803 -0.3763  0.2129  0.5440
14301TIP3    H164318   0.282   3.225  11.872 -1.3790  2.1799  0.7219
14301TIP3    H264319   0.343   3.186  11.739 -1.3399 -0.7505  1.5277
14302TIP3   OH264320   2.143   5.880   1.998  0.2462  0.9715 -0.0979
14302TIP3    H164321   2.176   5.799   2.035 -2.4922 -0.1306  0.2181
14302TIP3    H264322   2.119   5.858   1.908  0.9302  1.8781 -0.5166
14303TIP3   OH264323   3.127   0.759  13.619 -0.3174  0.4488 -0.0202
14303TIP3    H164324   3.103   0.678  13.662  0.4259  1.0109  1.5283
14303TIP3    H264325   3.195   0.797  13.675  0.6460  1.2678 -1.6547
14304TIP3   OH264326   3.012   1.239  10.796 -0.5430  0.5052 -0.2891
14304TIP3    H164327   3.071   1.164  10.795 -0.9822  0.1583 -1.0184
14304TIP3    H264328   2.950   1.219  10.867  0.4178  1.0450  0.7240
14305TIP3   OH264329   3.136   0.900  14.289 -0.0055 -0.1800 -0.1420
14305TIP3    H164330   3.112   0.810  14.267  0.3173 -0.0894 -0.9043
14305TIP3    H264331   3.203   0.891  14.357  0.6868 -0.5564 -0.8483
14306TIP3   OH264332   6.087   1.529   3.725 -0.2254  0.2410 -0.3471
14306TIP3    H164333   6.115   1.444   3.759  0.5061  1.5268  2.5933
14306TIP3    H264334   6.165   1.584   3.730 -1.0919  1.5324 -0.5302
14307TIP3   OH264335   3.751   5.315  11.732  0.2751  0.2553 -0.3714
14307TIP3    H164336   3.770   5.289  11.822 -1.1930  0.9815  0.1976
14307TIP3    H264337   3.782   5.405  11.727  0.2259  0.2628 -0.5337
14308TIP3   OH264338   3.539   3.652  14.575 -0.4419  0.1576  0.3101
14308TIP3    H164339   3.559   3.561  14.556 -1.5234 -0.1699  0.6870
14308TIP3    H264340   3.474   3.677  14.509 -0.2670  0.6102  0.3033
14309TIP3   OH264341   5.386   4.270   5.450 -0.2289 -0.4577 -1.2790
14309TIP3    H164342   5.333   4.302   5.377  1.2224  1.1636 -1.6778
14309TIP3    H264343   5.416   4.349   5.495  1.3769 -1.3211 -0.7425
14310TIP3   OH264344   4.918   3.557   1.017  0.2341 -0.1990 -0.0005
14310TIP3    H164345   4.908   3.474   1.063  0.1109 -0.4625 -0.4984
14310TIP3    H264346   4.918   3.533   0.925 -0.2984  0.4123 -0.1615
14311TIP3   OH264347   5.845   0.034   3.837  0.0519  0.1583 -0.0344
14311TIP3    H164348   5.880  -0.037   3.890 -2.5969 -1.8833 -0.8135
14311TIP3    H264349   5.842  -0.001   3.748 -0.2886  1.6546 -0.6391
14312TIP3   OH264350   6.473   5.672   5.654 -0.4879  0.1424 -0.3653
14312TIP3    H164351   6.468   5.578   5.637 -0.5538 -0.1556  1.1143
14312TIP3    H264352   6.473   5.678   5.750  1.3121  1.5335 -0.3986
14313TIP3   OH264353   5.973   4.225   5.009  0.0091  0.0455 -0.4653
14313TIP3    H164354   5.977   4.163   5.082  1.4662 -0.3014 -0.8044
14313TIP3    H264355   5.967   4.311   5.050  0.7404 -0.1487  0.0788
14314TIP3   OH264356   3.618   2.525  12.816 -0.3219  0.1598 -0.3349
14314TIP3    H164357   3.709   2.535  12.789 -0.2628 -0.8406 -0.5326
14314TIP3    H264358   3.618   2.547  12.909 -0.0616  1.1044 -0.5498
14315TIP3   OH264359   2.334   5.964  16.282 -0.7021 -0.1614 -0.1817
14315TIP3    H164360   2.325   5.896  16.349  1.8944  0.4234  0.8901
14315TIP3    H264361   2.287   5.929  16.206  1.6262 -3.9006 -0.1762
14316TIP3   OH264362   2.641   3.887   0.708 -0.6364  0.0566  0.4151
14316TIP3    H164363   2.552   3.889   0.744 -1.5363 -0.7323 -1.5702
14316TIP3    H264364   2.645   3.963   0.650 -0.1376 -0.1009  0.2405
14317TIP3   OH264365   6.286   5.684  12.133  0.0334 -0.2707  0.0799
14317TIP3    H164366   6.211   5.647  12.086  0.2961  1.2832 -1.6843
14317TIP3    H264367   6.360   5.667  12.075  0.5940  0.5824  0.5423
14318TIP3   OH264368   1.530   5.260   2.447  0.3962  0.4996 -0.2530
14318TIP3    H164369   1.489   5.250   2.362 -0.9897 -0.8941  0.5079
14318TIP3    H264370   1.533   5.171   2.483 -2.1102  1.3415  2.4689
14319TIP3   OH264371   0.206   2.479  15.056  0.0843 -0.1619 -0.4447
14319TIP3    H164372   0.191   2.530  14.976  0.3688 -0.5225 -0.7315
14319TIP3    H264373   0.143   2.515  15.119  0.6633  0.9198 -0.4626
14320TIP3   OH264374   3.364   4.083  16.945 -0.2248 -0.1895 -0.3906
14320TIP3    H164375   3.333   4.164  16.905 -1.2051  0.1431  0.9853
14320TIP3    H264376   3.459   4.084  16.930  0.0004  1.9292  0.8109
14321TIP3   OH264377   1.749   3.575   5.725  0.1914 -0.3302 -0.0796
14321TIP3    H164378   1.654   3.568   5.739 -0.0005 -0.1226 -1.1613
14321TIP3    H264379   1.780   3.485   5.724  0.4179 -0.3580  2.6731
14322TIP3   OH264380   5.134   4.510  13.789  0.0480 -0.2572 -0.2062
14322TIP3    H164381   5.071   4.575  13.758  0.1971  0.0803  0.1855
14322TIP3    H264382   5.091   4.426  13.776 -0.5842 -0.0141  0.2733
14323TIP3   OH264383   3.152   4.906   1.194 -0.3786 -0.2098 -0.1315
14323TIP3    H164384   3.224   4.964   1.170  0.9017 -0.3359  2.9532
14323TIP3    H264385   3.109   4.950   1.267 -2.5027 -0.8897 -0.8947
14324TIP3   OH264386   6.015   5.856  12.127  0.0964  0.7126 -0.0158
14324TIP3    H164387   5.953   5.825  12.061  0.1529  0.0335  0.2382
14324TIP3    H264388   6.048   5.776  12.168  1.8126  1.0166 -0.7470
14325TIP3   OH264389   5.123   4.159   0.792  0.1560  0.1643 -0.1321
14325TIP3    H164390   5.030   4.175   0.807 -0.1323 -1.4836  0.0681
14325TIP3    H264391   5.167   4.238   0.822 -1.2569  1.5223 -1.4445
14326TIP3   OH264392   0.074   2.298   6.747 -0.0136 -0.0235 -0.0612
14326TIP3    H164393   0.108   2.237   6.812  0.1748 -1.2053 -1.2305
14326TIP3    H264394  -0.017   2.315   6.774  1.1196  2.6162  2.6966
14327TIP3   OH264395   1.927   3.805  12.360 -0.4104 -0.4987 -0.2101
14327TIP3    H164396   1.983   3.736  12.324  0.5921 -0.6001  1.4610
14327TIP3    H264397   1.963   3.823  12.447 -1.4364  1.2423 -0.0973
14328TIP3   OH264398   2.242   6.451  12.176  0.2413 -0.0312  0.0846
14328TIP3    H164399   2.304   6.405  12.233  0.9144 -0.9852 -1.3547
14328TIP3    H264400   2.212   6.525  12.228  0.4508 -1.1392  1.8514
14329TIP3   OH264401   5.883   4.679   1.360 -0.0629  0.1654  0.2127
14329TIP3    H164402   5.888   4.654   1.267 -0.0392  0.9636 -0.0086
14329TIP3    H264403   5.963   4.729   1.375 -0.0840  0.0648  0.6613
14330TIP3   OH264404   4.643   1.673  13.030 -0.3709  0.0962 -0.1821
14330TIP3    H164405   4.726   1.674  12.984 -0.7437  0.4407 -0.8642
14330TIP3    H264406   4.579   1.643  12.965 -0.8336  0.1458  0.2377
14331TIP3   OH264407   5.131   5.210  14.319  0.4238 -0.2849 -0.0293
14331TIP3    H164408   5.151   5.256  14.401  0.1584 -1.4633  0.7181
14331TIP3    H264409   5.043   5.239  14.295  0.8408  0.7441 -0.4042
14332TIP3   OH264410   2.325   0.159  14.872  0.2789 -0.3890 -0.5820
14332TIP3    H164411   2.352   0.233  14.927 -0.9202 -0.4662  0.1468
14332TIP3    H264412   2.256   0.195  14.817  0.2649 -0.7614 -0.8105
14333TIP3   OH264413   3.709   5.817   3.370 -0.5588 -0.0336 -0.2762
14333TIP3    H164414   3.713   5.908   3.397  1.2150  0.3198 -1.5899
14333TIP3    H264415   3.693   5.819   3.276  1.8060 -0.9651 -0.7565
14334TIP3   OH264416   2.779   2.107  13.722  0.5459  0.2968  0.1425
14334TIP3    H164417   2.826   2.151  13.651 -0.5030  0.0485 -0.7215
14334TIP3    H264418   2.848   2.065  13.774  1.3861  1.1188 -0.2768
14335TIP3   OH264419   3.620   2.444  15.016 -0.1941 -0.1362 -0.7106
14335TIP3    H164420   3.599   2.418  15.106  0.1842  2.2859  0.1719
14335TIP3    H264421   3.549   2.408  14.963 -1.5228  0.0305  0.8637
14336TIP3   OH264422   0.756   1.920   0.800 -0.3225 -0.2001 -0.2087
14336TIP3    H164423   0.783   1.854   0.737  0.1639  0.3245 -0.5598
14336TIP3    H264424   0.821   1.989   0.792  0.0449 -0.3475  1.2364
14337TIP3   OH264425   2.200   4.100  12.875 -0.4086  0.2310  0.4328
14337TIP3    H164426   2.264   4.086  12.805  1.2234 -0.4794  1.9909
14337TIP3    H264427   2.212   4.192  12.900  1.6321 -0.4066  2.1365
14338TIP3   OH264428   3.293   2.117  14.928  0.4094 -0.4166  0.7779
14338TIP3    H164429   3.384   2.100  14.953  1.5275 -0.8371 -3.0171
14338TIP3    H264430   3.288   2.212  14.916  1.1204 -0.5942 -1.2945
14339TIP3   OH264431   1.426   6.250   5.949 -0.1890  0.2271  0.1098
14339TIP3    H164432   1.459   6.303   5.877  0.2505  0.9875  0.8496
14339TIP3    H264433   1.503   6.232   6.003 -0.3096 -1.2210 -0.1362
14340TIP3   OH264434   2.382   2.468  12.376  0.1404  0.0690 -0.2410
14340TIP3    H164435   2.396   2.401  12.442  0.1330 -0.7766 -1.0806
14340TIP3    H264436   2.293   2.455  12.345  0.7833 -0.8623 -1.8266
14341TIP3   OH264437   4.792   5.119   0.941  0.0678  0.1161  0.1263
14341TIP3    H164438   4.728   5.121   0.869  0.9051 -0.4883 -0.6609
14341TIP3    H264439   4.771   5.038   0.988 -0.8979  0.8391  0.9763
14342TIP3   OH264440   0.804   5.230   1.629 -0.5551 -0.1816 -0.0141
14342TIP3    H164441   0.764   5.228   1.716  0.3601  0.9577  0.4534
14342TIP3    H264442   0.889   5.271   1.643  0.5315 -1.9260 -1.0870
14343TIP3   OH264443   3.779   3.220  12.820  0.0774 -0.9564 -0.2858
14343TIP3    H164444   3.752   3.200  12.730  1.3531 -3.8727 -0.1478
14343TIP3    H264445   3.709   3.183  12.874  0.4952 -1.4323 -0.0646
14344TIP3   OH264446   3.620   3.739   1.742  0.0954  0.8191 -0.4338
14344TIP3    H164447   3.660   3.688   1.672 -1.1315 -0.0333 -0.5311
14344TIP3    H264448   3.529   3.750   1.715 -0.2090  1.1298  0.6687
14345TIP3   OH264449   2.079   3.035  12.750  0.2651 -0.5159 -0.5713
14345TIP3    H164450   2.146   2.975  12.783  0.2516  0.1560  0.7525
14345TIP3    H264451   1.997   3.002  12.788  0.3718  0.8038  0.9221
14346TIP3   OH264452   1.371   3.620   4.064 -0.5946 -0.9631 -0.1496
14346TIP3    H164453   1.414   3.657   3.987  0.1809  1.7761  1.4470
14346TIP3    H264454   1.288   3.666   4.070 -0.1014 -0.2073  1.3000
14347TIP3   OH264455   3.212   5.662   4.281  0.0338 -0.5732  0.2420
14347TIP3    H164456   3.151   5.645   4.209  0.2037 -0.5625  0.0969
14347TIP3    H264457   3.176   5.611   4.354  0.8529 -2.0750 -0.3429
14348TIP3   OH264458   3.182   4.613  11.230 -0.3874  0.4348 -0.5806
14348TIP3    H164459   3.227   4.629  11.148  1.2060  0.3633  0.2482
14348TIP3    H264460   3.209   4.525  11.256 -0.5450  0.6104  0.2201
14349TIP3   OH264461   0.719   3.060  14.489  1.0546  0.3907  0.4083
14349TIP3    H164462   0.754   3.099  14.408  1.8333 -1.7557 -0.3592
14349TIP3    H264463   0.624   3.064  14.478  1.0470  2.8203  0.7873
14350TIP3   OH264464   1.683   4.586   0.468 -0.0612 -0.8199 -0.0520
14350TIP3    H164465   1.724   4.582   0.555  1.9493 -0.9110 -0.9306
14350TIP3    H264466   1.609   4.527   0.473  2.3122 -4.0355  0.5445
14351TIP3   OH264467   5.033   3.589  17.079 -0.0805 -0.8326 -0.1849
14351TIP3    H164468   5.006   3.497  17.080  0.3370 -0.9510  0.4111
14351TIP3    H264469   4.988   3.628  17.153  0.2853 -0.7099 -0.0273
14352TIP3   OH264470   5.180   4.335   2.076 -0.0199 -0.0399  0.2397
14352TIP3    H164471   5.208   4.422   2.048  2.5610 -1.7634 -3.1766
14352TIP3    H264472   5.112   4.310   2.014 -2.0294  0.0947  2.2658
14353TIP3   OH264473   5.187   6.222   0.697  0.1832 -0.2934 -0.0663
14353TIP3    H164474   5.149   6.191   0.779 -0.0981 -0.6733 -0.3368
14353TIP3    H264475   5.247   6.152   0.669 -2.2680 -1.8331 -1.9446
14354TIP3   OH264476   4.360   4.525  14.174 -0.0484 -0.2017  0.0093
14354TIP3    H164477   4.379   4.516  14.268 -0.0258 -0.9640 -0.0623
14354TIP3    H264478   4.298   4.597  14.169  1.6920  1.4145  0.4006
14355TIP3   OH264479   5.165   0.492  15.498  0.1315 -0.6172  0.0579
14355TIP3    H164480   5.244   0.507  15.445 -1.1865 -0.6905 -2.0302
14355TIP3    H264481   5.142   0.401  15.483 -1.4907 -0.0721 -1.0665
14356TIP3   OH264482   3.039   1.624  12.743  0.9114  0.7233 -0.5205
14356TIP3    H164483   3.103   1.636  12.673 -0.8732 -0.0139 -2.3797
14356TIP3    H264484   2.954   1.634  12.700 -0.3728 -2.6201  0.8478
14357TIP3   OH264485   5.169   5.114  15.174  0.2214 -0.6018 -0.2538
14357TIP3    H164486   5.202   5.149  15.257 -3.2205  1.1963  0.5629
14357TIP3    H264487   5.103   5.049  15.200 -0.3076 -0.6409 -1.6043
14358TIP3   OH264488   3.977   2.531   3.701  0.1268 -0.1739 -0.0630
14358TIP3    H164489   4.060   2.488   3.684 -0.2076 -0.9466  0.2295
14358TIP3    H264490   3.918   2.498   3.634 -0.0540  0.0701 -0.0278
14359TIP3   OH264491   1.713   4.228   2.669 -0.3209 -0.1330 -0.8653
14359TIP3    H164492   1.728   4.134   2.674  0.8451  0.1191  1.4893
14359TIP3    H264493   1.787   4.262   2.618 -0.3693 -0.3926 -1.1129
14360TIP3   OH264494   6.120   5.526  15.723  0.0385 -0.2961 -0.0144
14360TIP3    H164495   6.087   5.457  15.781 -0.2942 -0.2421 -0.1330
14360TIP3    H264496   6.118   5.605  15.776  1.9167 -0.6278  0.6315
14361TIP3   OH264497   5.406   3.120   3.844  0.3661  0.3723 -0.0674
14361TIP3    H164498   5.464   3.123   3.920  0.6849 -1.0387 -0.2314
14361TIP3    H264499   5.329   3.071   3.875 -1.0145  2.6187  0.2934
14362TIP3   OH264500   2.903   0.325  16.246 -0.5576  0.1058 -0.0610
14362TIP3    H164501   2.878   0.310  16.337 -0.3803  2.3631  0.4333
14362TIP3    H264502   2.982   0.273  16.233 -0.7043 -0.4061  1.0078
14363TIP3   OH264503   2.204   6.732  11.689 -0.2736  0.2631  0.2528
14363TIP3    H164504   2.261   6.798  11.727  1.9841 -0.9353 -0.8403
14363TIP3    H264505   2.124   6.779  11.667  1.1323  2.5869 -0.2503
14364TIP3   OH264506   5.528   6.131  16.622  0.0645  0.3037 -0.2404
14364TIP3    H164507   5.448   6.163  16.662 -0.1747 -1.2616  0.6208
14364TIP3    H264508   5.595   6.144  16.689  0.1620 -0.0576 -0.2671
14365TIP3   OH264509   3.485   4.162  15.767 -0.4667 -0.2156  0.4446
14365TIP3    H164510   3.530   4.129  15.689 -1.0416  2.7346 -1.2461
14365TIP3    H264511   3.394   4.170  15.741 -0.5165  1.6885  1.0781
14366TIP3   OH264512   4.711   3.899   4.937  0.1965  0.9786 -0.3092
14366TIP3    H164513   4.788   3.929   4.985  0.1802  1.9244 -0.8546
14366TIP3    H264514   4.637   3.928   4.991  0.1918  1.4335 -0.5602
14367TIP3   OH264515   2.710   6.261   4.476  0.0537  0.3586  0.0704
14367TIP3    H164516   2.789   6.235   4.428 -1.3299 -0.6128 -1.8143
14367TIP3    H264517   2.661   6.316   4.415 -2.0979 -1.4822 -0.0052
14368TIP3   OH264518   4.907   0.746  14.239 -0.3157 -0.7016 -0.1179
14368TIP3    H164519   4.868   0.832  14.221 -0.9932 -0.8597  0.5258
14368TIP3    H264520   4.837   0.683  14.223 -0.2731 -1.0118  0.8124
14369TIP3   OH264521   2.584   3.412  13.874  0.4118  0.2698  0.5180
14369TIP3    H164522   2.639   3.356  13.928 -0.0747  0.6302  1.4205
14369TIP3    H264523   2.551   3.355  13.804  2.6927  0.2710 -0.6491
14370TIP3   OH264524   0.693   2.770   3.262 -0.5518 -0.4544  0.2640
14370TIP3    H164525   0.740   2.853   3.253 -0.6409 -0.3763  0.5161
14370TIP3    H264526   0.745   2.708   3.211  0.3509 -0.5853  1.3075
14371TIP3   OH264527   4.470   3.515   0.690  0.0899 -0.1167 -0.6881
14371TIP3    H164528   4.388   3.525   0.738 -0.1287 -0.1694 -1.0482
14371TIP3    H264529   4.446   3.529   0.598  0.2013 -1.6264 -0.9696
14372TIP3   OH264530   0.229   2.842   6.671  0.5548  0.3368  0.0974
14372TIP3    H164531   0.305   2.895   6.649  1.0929  0.5458  2.2806
14372TIP3    H264532   0.262   2.752   6.677  0.8815  0.5375  1.9119
14373TIP3   OH264533   2.757   4.457  16.850  0.0779  0.4577 -0.1099
14373TIP3    H164534   2.843   4.494  16.871  0.2497  0.4047 -0.6949
14373TIP3    H264535   2.735   4.403  16.926  1.3183 -0.8483 -0.6318
14374TIP3   OH264536   4.199   1.997   0.793 -0.4603  0.5814 -0.5164
14374TIP3    H164537   4.110   2.018   0.820 -0.8854  2.9297 -3.2121
14374TIP3    H264538   4.189   1.955   0.708  0.9746 -1.3913  0.2223
14375TIP3   OH264539   4.995   0.695  13.701 -0.3252  0.2672  0.3625
14375TIP3    H164540   4.925   0.758  13.720 -0.7161 -0.1520  0.3470
14375TIP3    H264541   4.962   0.644  13.627 -0.1758 -0.1953  0.6098
14376TIP3   OH264542   5.485   2.097   4.864 -0.8390 -0.0880 -0.0790
14376TIP3    H164543   5.419   2.149   4.818 -0.3861  0.0718 -0.5597
14376TIP3    H264544   5.542   2.162   4.904 -0.1471 -0.2018 -0.8593
14377TIP3   OH264545   1.198   2.177   5.265 -0.7897  0.5880  0.2090
14377TIP3    H164546   1.111   2.178   5.227 -1.2106 -0.8692  1.0622
14377TIP3    H264547   1.200   2.098   5.319  0.7034  1.1418  1.0283
14378TIP3   OH264548   5.354   6.131  14.491 -0.3603  0.0116 -0.0070
14378TIP3    H164549   5.444   6.149  14.464 -0.5771 -2.3174 -2.5906
14378TIP3    H264550   5.363   6.092  14.578  0.9374  1.4366  0.5468
14379TIP3   OH264551   4.423   6.147  17.177  0.2070  0.1175  0.2489
14379TIP3    H164552   4.467   6.214  17.124 -0.4442  0.4044  0.0601
14379TIP3    H264553   4.463   6.154  17.263  0.6263  0.2794  0.0459
14380TIP3   OH264554   6.224   3.697   3.202 -0.3631  0.2004 -0.6626
14380TIP3    H164555   6.279   3.745   3.141  0.5895  0.5911  0.4742
14380TIP3    H264556   6.137   3.735   3.191 -0.8192 -1.4347 -3.5519
14381TIP3   OH264557   2.242   6.133  15.555 -0.1391  0.7594  0.2150
14381TIP3    H164558   2.282   6.051  15.525 -0.7376  0.2386  0.8042
14381TIP3    H264559   2.298   6.202  15.519  0.8007  0.0715  0.3301
14382TIP3   OH264560   6.415   5.610  14.787 -0.4004  0.2619  0.5020
14382TIP3    H164561   6.410   5.536  14.848 -0.4349  0.6443  0.9743
14382TIP3    H264562   6.337   5.662  14.807  0.6577  1.4887  1.5918
14383TIP3   OH264563   4.738   4.014  14.144  0.1208 -0.2430  0.0166
14383TIP3    H164564   4.818   3.971  14.173 -0.1624 -1.6131 -1.1491
14383TIP3    H264565   4.752   4.107  14.165  1.7620 -0.5403  0.3663
14384TIP3   OH264566   5.968   3.374   1.403  0.9139  0.7540  0.1616
14384TIP3    H164567   5.882   3.361   1.362  0.7754 -1.5433  1.0484
14384TIP3    H264568   5.957   3.454   1.455 -0.5067  0.8062 -0.1643
14385TIP3   OH264569   1.646   3.011  12.970  0.4469 -0.5476 -0.2627
14385TIP3    H164570   1.563   3.026  12.926  0.0555 -1.4141  0.1663
14385TIP3    H264571   1.659   3.090  13.023  0.0121 -0.3148 -0.4996
14386TIP3   OH264572   5.113   2.274   1.795  0.4824  0.3546 -0.6960
14386TIP3    H164573   5.187   2.334   1.784  0.4031  0.9388  1.3990
14386TIP3    H264574   5.037   2.332   1.808 -0.3365 -0.2348 -2.5807
14387TIP3   OH264575   2.933   6.094  11.759  0.0378 -0.2438  0.4606
14387TIP3    H164576   2.884   6.019  11.726  2.0389 -2.3331  1.9174
14387TIP3    H264577   3.025   6.072  11.743  0.7201  1.7743  1.2353
14388TIP3   OH264578   3.907   3.045  14.243 -0.9206 -0.1303 -0.6427
14388TIP3    H164579   3.982   3.089  14.202 -0.1709  0.3018  1.1123
14388TIP3    H264580   3.943   3.005  14.322 -1.8450 -2.8679 -1.4967
14389TIP3   OH264581   2.848   2.088   4.305 -0.1271  0.6435  0.1401
14389TIP3    H164582   2.802   2.005   4.317 -0.4067  0.8340  0.4024
14389TIP3    H264583   2.841   2.132   4.389  2.0025 -0.0258  0.7226
14390TIP3   OH264584   4.509   6.506  14.502 -0.1770  0.5678 -0.2174
14390TIP3    H164585   4.459   6.540  14.428  1.2857 -0.6888 -1.8611
14390TIP3    H264586   4.596   6.546  14.493  0.0658  0.3034  0.7769
14391TIP3   OH264587   4.082   0.925   1.900  0.4515 -0.3302 -0.0224
14391TIP3    H164588   4.075   0.832   1.922  0.4851 -0.1802  0.6733
14391TIP3    H264589   4.005   0.944   1.846 -0.7450 -0.2881  1.6184
14392TIP3   OH264590   2.686   2.858   6.089  0.5199  0.2947 -0.0673
14392TIP3    H164591   2.601   2.849   6.131  0.2755  0.5872 -0.4956
14392TIP3    H264592   2.710   2.769   6.065  0.9585  0.0389  1.2536
14393TIP3   OH264593   4.918   5.803  11.876  0.0928  0.0278  0.5485
14393TIP3    H164594   4.860   5.816  11.951 -0.6563  0.1278 -0.0346
14393TIP3    H264595   4.859   5.783  11.803  0.7230  1.0778 -0.2774
14394TIP3   OH264596   2.901   2.177   5.405 -0.3093  0.2573 -0.2713
14394TIP3    H164597   2.874   2.206   5.318 -0.3482  3.7199  0.7629
14394TIP3    H264598   2.991   2.144   5.392  0.0662  1.6740 -1.4874
14395TIP3   OH264599   0.144   6.415   3.043  0.1172  0.2064 -0.1275
14395TIP3    H164600   0.125   6.441   2.953  0.8384 -0.5970 -0.5199
14395TIP3    H264601   0.237   6.392   3.043 -0.1622 -1.0307  0.5204
14396TIP3   OH264602   2.003   6.070  13.625  0.0293  0.2384  0.1538
14396TIP3    H164603   2.034   6.080  13.715  1.2292 -1.6256 -0.0006
14396TIP3    H264604   2.049   5.993  13.592  1.6188  2.2821 -2.9221
14397TIP3   OH264605   6.496   5.867   3.896 -0.4736 -0.5719 -0.2965
14397TIP3    H164606   6.564   5.869   3.828  1.0837  0.9081  1.2141
14397TIP3    H264607   6.540   5.830   3.972 -1.6607 -0.5183  0.4361
14398TIP3   OH264608   2.136   1.128  15.197 -0.1466 -0.3235 -0.2643
14398TIP3    H164609   2.051   1.126  15.241 -0.7287  0.0147 -1.3434
14398TIP3    H264610   2.166   1.218  15.209 -0.3307 -0.2165 -0.6011
14399TIP3   OH264611   0.847   3.345   5.997  0.4558 -0.0359  0.6514
14399TIP3    H164612   0.888   3.272   6.044 -1.1217 -1.4523 -0.0658
14399TIP3    H264613   0.795   3.391   6.063 -0.9900 -1.4496  0.5660
14400TIP3   OH264614   4.464   1.107  10.966  0.4437 -0.3407 -0.7947
14400TIP3    H164615   4.412   1.099  11.046  0.4828 -1.9304 -0.8908
14400TIP3    H264616   4.459   1.199  10.943  1.9000  0.5728  2.0245
14401TIP3   OH264617   3.383   1.873   4.581 -0.3873  0.1877 -0.1275
14401TIP3    H164618   3.421   1.855   4.667  1.2180  0.2388 -0.7927
14401TIP3    H264619   3.437   1.823   4.520 -1.9007 -0.3659 -1.0619
14402TIP3   OH264620   3.455   1.717   1.698  0.3120  0.1051 -0.0386
14402TIP3    H164621   3.528   1.766   1.660 -1.1272  1.1103 -1.6159
14402TIP3    H264622   3.477   1.625   1.681  0.3643  0.4726 -2.1915
14403TIP3   OH264623   1.893   4.799   3.512 -0.4883  0.1505 -0.3929
14403TIP3    H164624   1.892   4.752   3.428  0.7086  0.9414 -0.8902
14403TIP3    H264625   1.922   4.887   3.489  1.3171 -0.0142  1.0299
14404TIP3   OH264626   4.929   5.899  13.280  0.1766 -0.8444  0.3133
14404TIP3    H164627   4.944   5.959  13.353 -2.6818  0.7722 -0.2561
14404TIP3    H264628   4.876   5.950  13.218  1.9013 -2.3640 -2.6178
14405TIP3   OH264629   0.724   3.040  11.840 -0.0605 -0.3477 -0.3376
14405TIP3    H164630   0.764   2.955  11.822 -1.2390 -1.4137  1.6909
14405TIP3    H264631   0.692   3.032  11.930 -1.0821  1.9105 -0.4540
14406TIP3   OH264632   3.777   6.296  12.596  0.7094 -0.2882 -0.4924
14406TIP3    H164633   3.733   6.374  12.562  2.1585  0.4641 -0.7188
14406TIP3    H264634   3.746   6.290  12.687  0.1510  0.2153 -0.6409
14407TIP3   OH264635   5.636   6.107  16.378 -0.3441 -0.1745  0.3590
14407TIP3    H164636   5.628   6.150  16.463  1.7190  1.7896 -0.3359
14407TIP3    H264637   5.661   6.017  16.398  1.0681  0.5086  1.8329
14408TIP3   OH264638   0.355   0.143  11.503  0.0553 -0.2276  0.2720
14408TIP3    H164639   0.300   0.142  11.425 -0.3797 -0.6305  0.5772
14408TIP3    H264640   0.346   0.056  11.540  0.3422 -0.0733  0.7203
14409TIP3   OH264641   6.692   4.707   6.418 -1.0613  0.0154 -0.8671
14409TIP3    H164642   6.739   4.721   6.336 -1.0682 -0.9241 -1.0433
14409TIP3    H264643   6.645   4.788   6.433 -0.1817  0.6045 -1.2204
14410TIP3   OH264644   1.214   1.036  14.764 -0.1331  0.2365 -0.2803
14410TIP3    H164645   1.250   0.978  14.697  0.9349 -1.9607  2.0288
14410TIP3    H264646   1.291   1.081  14.800 -0.8895  2.8653 -1.6990
14411TIP3   OH264647   5.438   4.739   3.823  0.0989 -0.3040  0.3142
14411TIP3    H164648   5.391   4.712   3.902  0.5471  0.4068  0.8411
14411TIP3    H264649   5.370   4.757   3.759 -0.2583 -1.1904  0.4344
14412TIP3   OH264650   4.590   6.287  16.115  0.2196 -0.4074 -0.2264
14412TIP3    H164651   4.567   6.371  16.073  0.0445 -1.3599 -2.1411
14412TIP3    H264652   4.506   6.247  16.135  0.2614 -0.8577 -0.9015
14413TIP3   OH264653   6.303   6.274  11.336  0.4957 -0.6779  0.0050
14413TIP3    H164654   6.221   6.323  11.342  0.3155 -1.0995  1.5866
14413TIP3    H264655   6.365   6.325  11.388  0.7961 -1.1878  0.1549
14414TIP3   OH264656   2.214   2.849   0.691 -0.6871  0.9318 -0.1196
14414TIP3    H164657   2.194   2.822   0.781 -2.6803  1.4827 -0.3409
14414TIP3    H264658   2.159   2.926   0.677 -2.0325 -0.3475 -2.4767
14415TIP3   OH264659   2.287   4.995   3.505  0.3741 -0.3703  0.0895
14415TIP3    H164660   2.336   5.018   3.583 -1.0696 -0.4240  1.0553
14415TIP3    H264661   2.314   5.059   3.439  0.9555  0.2356  0.9028
14416TIP3   OH264662   0.172   6.066  16.382  0.3586  0.7692 -0.4415
14416TIP3    H164663   0.235   6.133  16.354  1.4410 -0.8457 -2.1193
14416TIP3    H264664   0.103   6.068  16.315 -0.2345  1.0062  0.1637
14417TIP3   OH264665   5.358   3.978   3.046  0.5298 -0.0440  0.0609
14417TIP3    H164666   5.333   4.024   3.126 -2.5053 -1.5649  0.1118
14417TIP3    H264667   5.290   4.001   2.983  0.9683 -1.5795 -1.0174
14418TIP3   OH264668   1.476   2.247   5.296 -0.2026  0.2767 -0.3352
14418TIP3    H164669   1.471   2.332   5.253  0.3527  0.9277  0.8353
14418TIP3    H264670   1.385   2.217   5.300 -0.7036  1.8109  1.1187
14419TIP3   OH264671   6.277   4.765  14.425  0.1210 -0.1965  0.1725
14419TIP3    H164672   6.320   4.770  14.511 -0.1293 -1.3472  0.3749
14419TIP3    H264673   6.207   4.831  14.430  0.8762  0.6158  0.3920
14420TIP3   OH264674   6.227   1.417   0.734 -0.2874  0.0564  0.0799
14420TIP3    H164675   6.237   1.512   0.732  0.2486 -0.0015 -0.3508
14420TIP3    H264676   6.133   1.402   0.728 -0.3172  0.5447 -0.7668
14421TIP3   OH264677   2.735   6.586  13.388  0.4493 -0.4026  0.1530
14421TIP3    H164678   2.758   6.602  13.296  0.7386  2.3231  0.6445
14421TIP3    H264679   2.647   6.621  13.398  0.5776 -0.3058  1.0312
14422TIP3   OH264680   6.401   4.504   5.574  0.5087  0.0021 -0.0860
14422TIP3    H164681   6.428   4.534   5.660  1.6529 -1.8896  0.2737
14422TIP3    H264682   6.476   4.522   5.517  2.0547 -3.6175  0.5307
14423TIP3   OH264683   6.332   2.539   1.032 -0.1742  0.5540 -0.0231
14423TIP3    H164684   6.425   2.544   1.010  0.4260 -0.9298  1.8643
14423TIP3    H264685   6.301   2.629   1.029  1.1498  1.0038 -1.2824
14424TIP3   OH264686   3.752   4.624   5.734 -0.5763 -0.2604 -0.0101
14424TIP3    H164687   3.673   4.574   5.711 -0.8092 -0.1086  0.4604
14424TIP3    H264688   3.824   4.562   5.720 -0.7743 -0.3854 -0.4792
14425TIP3   OH264689   1.600   2.777  11.465  0.3286  0.5292  0.4203
14425TIP3    H164690   1.529   2.840  11.480 -0.6931 -0.2722 -0.8311
14425TIP3    H264691   1.556   2.693  11.455  1.2271  0.2815 -2.3184
14426TIP3   OH264692   3.413   1.642   3.341  0.3780 -0.3485 -0.4798
14426TIP3    H164693   3.401   1.612   3.251  1.2584  1.6863 -1.3479
14426TIP3    H264694   3.460   1.726   3.332 -0.9583  0.7347  1.7783
14427TIP3   OH264695   3.135   2.846   0.135 -0.0952 -0.1284 -0.1905
14427TIP3    H164696   3.074   2.919   0.123 -0.2529 -0.0741  0.8555
14427TIP3    H264697   3.131   2.798   0.052 -1.3234  0.0485 -0.2592
14428TIP3   OH264698   2.579   3.302   3.814  0.0773 -0.5663  0.0512
14428TIP3    H164699   2.672   3.304   3.838  0.7972 -0.1930 -2.4930
14428TIP3    H264700   2.539   3.372   3.865  1.7562  1.0232 -0.7269
14429TIP3   OH264701   1.425   1.877   6.729  0.4861 -0.7865 -0.7166
14429TIP3    H164702   1.412   1.792   6.686 -0.9647  0.0699 -2.0700
14429TIP3    H264703   1.428   1.940   6.657 -0.3277  0.5125  0.3512
14430TIP3   OH264704   2.602   3.319  12.860 -0.1445 -0.1210 -0.5599
14430TIP3    H164705   2.584   3.291  12.770 -0.4263  0.4715 -0.6900
14430TIP3    H264706   2.515   3.338  12.896 -0.1446 -1.4281  0.2028
14431TIP3   OH264707   2.596   6.260   3.530  0.3391  0.0738 -0.4166
14431TIP3    H164708   2.622   6.332   3.587  0.7840 -0.7735  0.4922
14431TIP3    H264709   2.503   6.274   3.513 -0.1671 -0.4364  1.7279
14432TIP3   OH264710   1.657   3.667  14.179 -0.1981 -0.3189 -0.0072
14432TIP3    H164711   1.593   3.712  14.234 -0.3115 -2.5066  1.7867
14432TIP3    H264712   1.616   3.583  14.158  1.1993 -0.8728 -0.6517
14433TIP3   OH264713   6.106   2.767  12.563  0.4019  0.2267  0.0654
14433TIP3    H164714   6.162   2.706  12.611  2.6955  2.8975  1.0506
14433TIP3    H264715   6.129   2.754  12.471 -0.2901 -1.3602  0.0730
14434TIP3   OH264716   5.333   5.817  11.424  0.6619  0.3895 -0.3415
14434TIP3    H164717   5.355   5.736  11.377  0.7772 -0.0007  0.3623
14434TIP3    H264718   5.417   5.862  11.433  1.3793 -1.2422  2.6073
14435TIP3   OH264719   1.735   5.288   2.683  0.0802  0.1546 -0.0061
14435TIP3    H164720   1.802   5.315   2.620  2.1870 -1.8982  1.2023
14435TIP3    H264721   1.693   5.213   2.640  0.2737 -0.1090  0.2628
14436TIP3   OH264722   3.993   3.475  16.255  0.9419  0.8830  0.6321
14436TIP3    H164723   4.072   3.440  16.297  1.3096 -1.1848 -1.5674
14436TIP3    H264724   4.022   3.498  16.167 -1.1321 -1.3307 -0.7462
14437TIP3   OH264725   0.871   1.033  13.735 -0.1630 -0.3657  0.4389
14437TIP3    H164726   0.780   1.034  13.704 -0.6465 -1.2071  1.7149
14437TIP3    H264727   0.896   0.941  13.733  0.7571 -0.1166 -0.1090
14438TIP3   OH264728   1.873   2.892  15.180  0.7168 -0.2679  0.0584
14438TIP3    H164729   1.954   2.879  15.131  1.4059  0.9613  0.8207
14438TIP3    H264730   1.837   2.973  15.144 -0.6428 -1.2314 -0.8580
14439TIP3   OH264731   4.223   4.236  14.907 -0.4498  0.1532  0.7007
14439TIP3    H164732   4.273   4.165  14.866 -1.8467 -0.4367 -0.0463
14439TIP3    H264733   4.228   4.218  15.000  3.1779  1.7766  0.9642
14440TIP3   OH264734   0.663   6.742  16.919  0.4082  0.2966 -0.1860
14440TIP3    H164735   0.667   6.821  16.865 -0.4841 -0.0743 -0.8049
14440TIP3    H264736   0.570   6.722  16.926  0.5818 -0.2972  0.5746
14441TIP3   OH264737   3.025   2.199   3.069 -0.5975 -0.0584 -0.5081
14441TIP3    H164738   3.008   2.286   3.035 -1.2981 -0.4128 -1.0948
14441TIP3    H264739   2.951   2.180   3.126 -0.3950 -0.2336 -0.2996
14442TIP3   OH264740   4.682   3.044   3.620  0.4261 -0.0152 -0.1184
14442TIP3    H164741   4.660   3.082   3.535  0.3131 -1.0340 -0.5447
14442TIP3    H264742   4.625   3.091   3.681 -0.2907 -0.0562 -0.7413
14443TIP3   OH264743   0.440   4.427   5.346  0.7427  0.6727 -1.1506
14443TIP3    H164744   0.458   4.385   5.261  1.2399  0.7285 -1.0769
14443TIP3    H264745   0.467   4.361   5.410  0.2753  0.5936 -1.0335
14444TIP3   OH264746   2.571   2.599  13.117 -0.5114  0.4012  0.2458
14444TIP3    H164747   2.662   2.615  13.140 -0.2782  0.3297 -0.6182
14444TIP3    H264748   2.574   2.532  13.049 -1.3842 -2.1312  2.5068
14445TIP3   OH264749   5.296   6.338   2.610  0.5923 -0.0849  0.5031
14445TIP3    H164750   5.238   6.265   2.634  0.1177 -0.0318 -0.4417
14445TIP3    H264751   5.374   6.326   2.664  0.0087 -0.5869  1.2520
14446TIP3   OH264752   1.984   0.052   0.099 -0.2027 -0.1066 -0.4035
14446TIP3    H164753   1.942   0.009   0.174  0.9346 -0.6368 -0.0417
14446TIP3    H264754   1.973   0.145   0.116  0.0124 -0.2190  0.4189
14447TIP3   OH264755   0.628   2.468  17.179  0.1276 -0.1538  0.0646
14447TIP3    H164756   0.589   2.384  17.156 -3.3633  1.3034  0.1323
14447TIP3    H264757   0.635   2.516  17.097 -1.1374  0.6800  0.4074
14448TIP3   OH264758   4.285   3.664   1.161  1.1473  0.1966  0.3301
14448TIP3    H164759   4.278   3.726   1.234 -0.1627 -0.4253  0.7738
14448TIP3    H264760   4.338   3.709   1.095 -0.0230  1.9328  0.5158
14449TIP3   OH264761   5.090   3.557  14.415 -0.1292 -0.0960  0.4756
14449TIP3    H164762   5.001   3.531  14.440 -0.3022  0.3455  0.3263
14449TIP3    H264763   5.093   3.545  14.320 -0.4935  1.2182  0.2714
14450TIP3   OH264764   4.643   0.568   5.248 -0.4051  0.4775 -0.2834
14450TIP3    H164765   4.676   0.482   5.221 -0.6405  0.7560 -1.5171
14450TIP3    H264766   4.611   0.607   5.167 -0.6834  1.5634  0.3428
14451TIP3   OH264767   5.030   0.381  12.225 -0.4060  0.0575 -0.1767
14451TIP3    H164768   5.025   0.289  12.251 -0.2446 -0.0438 -0.5002
14451TIP3    H264769   5.119   0.392  12.193 -0.5462  0.2249 -0.5168
14452TIP3   OH264770   2.254   1.618  13.219 -0.0797 -0.3769 -0.6543
14452TIP3    H164771   2.242   1.602  13.312 -2.0327 -1.4240 -1.0523
14452TIP3    H264772   2.197   1.693  13.200  0.6169  0.0921 -0.9577
14453TIP3   OH264773   2.772   0.447   4.632 -0.2773 -0.3543 -0.4753
14453TIP3    H164774   2.749   0.490   4.550 -1.1941 -2.6677 -1.5195
14453TIP3    H264775   2.704   0.475   4.694  0.2332  1.1457 -0.5647
14454TIP3   OH264776   4.516   3.498   1.181 -0.4603  0.0969 -0.1591
14454TIP3    H164777   4.488   3.413   1.215 -1.8151 -0.4229 -2.3897
14454TIP3    H264778   4.437   3.551   1.180 -0.7869 -0.2440 -3.2485
14455TIP3   OH264779   4.565   4.024  12.285  0.0412 -0.1701  0.6222
14455TIP3    H164780   4.495   4.004  12.224  0.6755 -0.3611 -0.0652
14455TIP3    H264781   4.626   3.951  12.277  0.2862 -0.0530  1.2684
14456TIP3   OH264782   0.003   6.374  13.151 -0.1606 -0.0265 -0.0803
14456TIP3    H164783  -0.033   6.347  13.067 -0.0207  0.6306 -0.3585
14456TIP3    H264784  -0.073   6.410  13.198  0.0703  1.1701 -0.5884
14457TIP3   OH264785   3.420   4.420   2.875  0.0592  0.0118  0.1813
14457TIP3    H164786   3.462   4.497   2.912  1.6873  0.5702 -2.5458
14457TIP3    H264787   3.331   4.448   2.854  1.0279  1.7417 -2.0872
14458TIP3   OH264788   4.951   1.625   6.505 -0.3158 -0.6852  0.1598
14458TIP3    H164789   4.964   1.717   6.527 -1.1089 -0.7224  0.8298
14458TIP3    H264790   5.020   1.579   6.553 -0.1478 -0.4787  0.1170
14459TIP3   OH264791   0.096   3.700   1.000  0.5231  0.4055 -0.9502
14459TIP3    H164792   0.033   3.628   1.009 -0.6372  1.3161 -1.4304
14459TIP3    H264793   0.169   3.676   1.057 -0.1303 -0.8336 -0.6000
14460TIP3   OH264794   2.568   0.648  16.687 -0.0805  0.0544  0.4632
14460TIP3    H164795   2.616   0.659  16.605 -0.9311  0.4866  0.0229
14460TIP3    H264796   2.633   0.669  16.755  0.9331 -1.2881 -0.0248
14461TIP3   OH264797   4.462   2.213  17.294  0.2162  0.5143 -0.1307
14461TIP3    H164798   4.537   2.269  17.274  0.8224  0.6446  2.2272
14461TIP3    H264799   4.448   2.223  17.388 -1.9620 -0.5249 -0.2646
14462TIP3   OH264800   1.614   3.062   0.940 -0.5169 -0.1724 -0.4258
14462TIP3    H164801   1.617   3.100   0.852  0.3585  0.6489 -0.0511
14462TIP3    H264802   1.679   2.992   0.939  1.1375  1.2917  0.2071
14463TIP3   OH264803   5.449   4.538  17.238 -0.0076  0.0167 -0.6842
14463TIP3    H164804   5.490   4.521  17.153  0.7145  1.2852 -0.6130
14463TIP3    H264805   5.433   4.633  17.238 -1.3355 -0.1877  0.0195
14464TIP3   OH264806   1.426   0.217   2.446  0.2356 -0.2301 -0.1423
14464TIP3    H164807   1.426   0.279   2.374  0.2836 -0.8698 -0.6968
14464TIP3    H264808   1.387   0.266   2.519 -0.4430  0.2040 -0.7754
14465TIP3   OH264809   2.589   1.111   6.612 -0.2790 -0.3463 -0.2153
14465TIP3    H164810   2.625   1.199   6.620  1.1816 -1.0534  3.0593
14465TIP3    H264811   2.656   1.062   6.563  1.0966 -0.5119  1.6743
14466TIP3   OH264812   3.371   4.433   1.470  0.0559 -0.8613  0.1121
14466TIP3    H164813   3.460   4.442   1.436 -0.0071  1.1854  0.3811
14466TIP3    H264814   3.377   4.362   1.534  1.7691 -0.0188  0.9578
14467TIP3   OH264815   0.165   1.699   4.348 -0.1888  0.3568 -0.5623
14467TIP3    H164816   0.131   1.611   4.359  0.1649  0.3538  0.5934
14467TIP3    H264817   0.231   1.692   4.279  0.2938 -0.4051 -0.0258
14468TIP3   OH264818   1.971   2.186  11.087  0.2207  1.1118 -0.3765
14468TIP3    H164819   1.884   2.217  11.112  0.0217 -0.9401  1.8224
14468TIP3    H264820   1.954   2.107  11.036  0.7809  0.6205  0.1901
14469TIP3   OH264821   1.022   2.616  13.073  0.0806  0.4783  0.4772
14469TIP3    H164822   1.037   2.684  13.007  0.9541 -0.3870 -0.2383
14469TIP3    H264823   0.937   2.579  13.050 -0.5015  1.4345  0.9950
14470TIP3   OH264824   3.909   3.752   4.590  0.1111  0.1974 -0.4350
14470TIP3    H164825   3.867   3.751   4.504 -0.2894  0.3391 -0.2426
14470TIP3    H264826   3.941   3.842   4.600 -1.5485  0.7363  0.3746
14471TIP3   OH264827   0.810   3.245   5.515 -0.2377 -0.1281 -0.0919
14471TIP3    H164828   0.902   3.236   5.540 -0.5538 -0.6607  0.9469
14471TIP3    H264829   0.772   3.297   5.586 -0.7233  0.1437 -0.5532
14472TIP3   OH264830   2.755   5.279   3.805 -0.1274  0.5260 -0.2993
14472TIP3    H164831   2.770   5.362   3.760 -1.6773 -0.3959 -2.7217
14472TIP3    H264832   2.727   5.219   3.736  1.6732 -2.2850  1.2122
14473TIP3   OH264833   2.127   2.223   1.813  0.1023  0.0892 -0.5876
14473TIP3    H164834   2.146   2.303   1.862 -0.1307  0.2131 -0.6944
14473TIP3    H264835   2.162   2.240   1.726 -0.5170  0.3352 -0.7971
14474TIP3   OH264836   5.094   6.183   1.266 -0.6003 -0.1989  0.4306
14474TIP3    H164837   5.094   6.091   1.294 -2.8768 -0.7315 -1.1155
14474TIP3    H264838   5.022   6.223   1.315 -0.9363  0.2595 -0.4323
14475TIP3   OH264839   3.204   4.288   2.281 -0.2707  0.0008 -0.3891
14475TIP3    H164840   3.218   4.348   2.208 -1.6615  0.8041 -0.0343
14475TIP3    H264841   3.238   4.204   2.250  3.4422  1.2866 -0.2410
14476TIP3   OH264842   2.944   2.787  12.612 -0.6865  0.8119 -0.0235
14476TIP3    H164843   2.857   2.784  12.574 -0.5898 -0.9594 -0.1891
14476TIP3    H264844   2.929   2.790  12.707 -1.0144 -1.9568  0.0977
14477TIP3   OH264845   5.967   3.534   0.294  0.0040 -0.7082 -0.7793
14477TIP3    H164846   6.029   3.569   0.230  0.5732 -1.4032 -0.6178
14477TIP3    H264847   5.881   3.566   0.265  0.4698  0.6051 -0.7770
14478TIP3   OH264848   5.089   3.814  15.935 -0.4733  0.7390 -0.0183
14478TIP3    H164849   5.073   3.876  16.006  1.6995 -0.0339  1.2121
14478TIP3    H264850   5.166   3.848  15.890 -0.6237  0.1314 -0.7612
14479TIP3   OH264851   1.168   4.512   0.256 -0.1138 -0.2032 -0.4409
14479TIP3    H164852   1.173   4.605   0.231 -1.3096 -0.0213 -0.1066
14479TIP3    H264853   1.075   4.499   0.276  0.3789 -0.9404  1.5530
14480TIP3   OH264854   1.318   5.938   3.988  0.2741 -0.3254  0.6338
14480TIP3    H164855   1.357   5.940   4.076  0.4486  0.7278  0.5566
14480TIP3    H264856   1.373   5.998   3.937  2.2735 -3.3943 -1.1422
14481TIP3   OH264857   3.410   6.734   1.872  0.0469 -0.0696  0.2825
14481TIP3    H164858   3.445   6.648   1.897 -0.1466  0.1071  1.2270
14481TIP3    H264859   3.483   6.779   1.831 -0.1318 -1.0456 -1.1691
14482TIP3   OH264860   2.200   0.547  11.988  0.4110 -0.0904 -0.0311
14482TIP3    H164861   2.184   0.460  12.023 -0.9056  0.6349  1.2914
14482TIP3    H264862   2.164   0.544  11.899 -0.6915 -0.5760  0.4104
14483TIP3   OH264863   3.776   3.271   0.050 -0.5219  0.0741 -0.0696
14483TIP3    H164864   3.715   3.219   0.102 -1.2271  2.2774  1.4589
14483TIP3    H264865   3.732   3.284  -0.034 -1.4645  0.3175  0.4484
14484TIP3   OH264866   0.260   1.027  14.579  0.1870 -0.0305  0.2425
14484TIP3    H164867   0.272   0.987  14.493 -2.1837 -0.4451  0.0553
14484TIP3    H264868   0.288   1.118  14.567 -0.2036 -0.0509 -1.0055
14485TIP3   OH264869   0.721   1.518  13.835 -0.1713 -0.8087  0.0560
14485TIP3    H164870   0.760   1.492  13.918  1.2699  0.0532 -0.3098
14485TIP3    H264871   0.665   1.445  13.810  0.5755 -1.7341  1.0282
14486TIP3   OH264872   2.892   4.939  16.125  0.6115  0.1675  0.3664
14486TIP3    H164873   2.916   4.988  16.204  1.5955  0.3773 -0.0510
14486TIP3    H264874   2.823   4.991  16.084 -0.4165 -0.3025  1.4431
14487TIP3   OH264875   6.028   1.578  16.698 -0.5470  0.0623 -0.0275
14487TIP3    H164876   6.098   1.643  16.690 -1.3800  0.9913  0.0107
14487TIP3    H264877   5.953   1.627  16.731 -0.9392 -1.1150  0.9365
14488TIP3   OH264878   0.742   5.898   4.017  0.4758  0.2152 -0.1348
14488TIP3    H164879   0.802   5.915   3.944  1.2276 -0.7243  0.2405
14488TIP3    H264880   0.674   5.841   3.979  0.4045  0.4085 -0.2993
14489TIP3   OH264881   0.441   1.617   4.458 -0.2201  0.3611 -0.4321
14489TIP3    H164882   0.415   1.534   4.418 -2.1682  0.5465  0.3634
14489TIP3    H264883   0.434   1.681   4.387 -1.0823  0.2544 -0.4451
14490TIP3   OH264884   3.644   6.204   5.540 -0.1792  0.3615  0.5633
14490TIP3    H164885   3.603   6.276   5.587  0.6403  1.9153 -0.9878
14490TIP3    H264886   3.724   6.185   5.589 -0.1122  0.8996  0.6709
14491TIP3   OH264887   0.620   4.666   5.138  0.1756  0.1184 -0.2016
14491TIP3    H164888   0.551   4.672   5.205  0.3781 -0.2888  0.0429
14491TIP3    H264889   0.696   4.708   5.178  0.2793 -0.0707 -0.1993
14492TIP3   OH264890   2.752   2.839   1.153  0.2252 -0.9350  0.2944
14492TIP3    H164891   2.783   2.805   1.237 -0.0086 -2.7048 -0.2862
14492TIP3    H264892   2.708   2.764   1.112 -2.1287  0.6047 -0.2258
14493TIP3   OH264893   3.816   2.073  16.867 -0.1075  0.3932  0.1407
14493TIP3    H164894   3.824   2.053  16.774 -0.6657  0.6222  0.0380
14493TIP3    H264895   3.906   2.090  16.896 -0.0717  1.9567 -0.7392
14494TIP3   OH264896   1.953   3.801   1.103 -0.1942 -0.4588 -0.6344
14494TIP3    H164897   1.989   3.885   1.073  1.9345 -1.0489  0.0410
14494TIP3    H264898   1.940   3.751   1.023 -0.0118 -0.0214 -0.9430
14495TIP3   OH264899   6.402   1.713  15.978 -0.4731 -0.7424  0.1461
14495TIP3    H164900   6.353   1.793  15.963  2.3285  1.5142  1.9009
14495TIP3    H264901   6.377   1.685  16.066  1.5109  0.7289  1.2805
14496TIP3   OH264902   5.743   0.884  12.049 -0.6233 -0.2819  0.6936
14496TIP3    H164903   5.737   0.821  11.977 -1.6678 -0.6699  1.1112
14496TIP3    H264904   5.773   0.965  12.007  0.1147 -0.8655  0.0465
14497TIP3   OH264905   2.683   1.691  16.208  0.3133 -0.3078  0.0396
14497TIP3    H164906   2.606   1.742  16.234  0.6493  0.0760  0.2911
14497TIP3    H264907   2.696   1.714  16.116  0.8497  0.5695  0.3249
14498TIP3   OH264908   1.662   1.873  15.748 -0.0025 -0.5731  0.0662
14498TIP3    H164909   1.631   1.844  15.662 -0.3532  0.0721 -0.0327
14498TIP3    H264910   1.584   1.870  15.804  0.3355 -1.5164  0.5190
14499TIP3   OH264911   0.082   5.690  14.656  0.2929  0.1087  0.4032
14499TIP3    H164912  -0.010   5.703  14.677  0.2643  0.5721  0.0092
14499TIP3    H264913   0.129   5.735  14.727  0.2141  0.2449  0.3695
14500TIP3   OH264914   5.493   3.484  13.412  0.2005 -0.0666 -0.2935
14500TIP3    H164915   5.400   3.469  13.399  0.0828  0.7293 -0.4153
14500TIP3    H264916   5.508   3.467  13.505 -0.1582  0.2730 -0.1744
14501TIP3   OH264917   6.480   2.127  17.148 -0.1254 -0.7623  0.1002
14501TIP3    H164918   6.429   2.096  17.223 -0.6030  1.1831  0.6526
14501TIP3    H264919   6.432   2.095  17.071 -0.3426 -1.7091  0.6219
14502TIP3   OH264920   0.286   6.760  15.558 -0.2300  0.4014 -0.7208
14502TIP3    H164921   0.330   6.799  15.633 -1.3655 -0.3180  0.3717
14502TIP3    H264922   0.350   6.699  15.521 -0.2259 -0.5568  0.7747
14503TIP3   OH264923   2.107   2.696  12.577  0.0051 -0.3722  0.9252
14503TIP3    H164924   2.015   2.682  12.599 -0.1589 -2.4193 -0.8109
14503TIP3    H264925   2.148   2.610  12.588  1.3126  0.0913 -0.0798
14504TIP3   OH264926   5.588   3.434  12.850 -0.4743 -0.1544 -0.0557
14504TIP3    H164927   5.523   3.423  12.781 -0.7909  0.8405  0.0718
14504TIP3    H264928   5.672   3.432  12.804 -0.6649  0.0865 -0.4247
14505TIP3   OH264929   2.959   6.269  13.133  0.0818  0.7379  0.0491
14505TIP3    H164930   3.027   6.319  13.177 -0.3050 -0.9384  2.8299
14505TIP3    H264931   2.879   6.291  13.181 -0.7806  0.3573 -1.1633
14506TIP3   OH264932   5.109   1.361   3.259  0.3826  0.3313 -0.2373
14506TIP3    H164933   5.076   1.432   3.203  1.9077  0.6962 -0.7422
14506TIP3    H264934   5.200   1.348   3.229  0.9457 -0.0951  1.5598
14507TIP3   OH264935   5.089   1.125   5.858 -0.5422  0.3221  0.2905
14507TIP3    H164936   5.112   1.049   5.911  1.0819  0.5071 -0.1095
14507TIP3    H264937   5.041   1.182   5.918  0.1006 -0.0634  1.1949
14508TIP3   OH264938   2.607   3.570  11.938 -0.5269  0.0914  0.2978
14508TIP3    H164939   2.675   3.524  11.987  0.4482  0.1922 -0.9083
14508TIP3    H264940   2.552   3.500  11.903  1.3302 -0.3186 -2.0806
14509TIP3   OH264941   6.450   0.208   1.049 -0.0452  0.4344  0.4212
14509TIP3    H164942   6.493   0.187   0.966 -1.8400 -1.4983 -0.0970
14509TIP3    H264943   6.466   0.133   1.105 -0.0465  1.0984  1.3327
14510TIP3   OH264944   6.435   4.943  17.188  0.3168  0.2969 -0.0171
14510TIP3    H164945   6.483   5.026  17.187  1.6864 -0.4376  1.1537
14510TIP3    H264946   6.490   4.883  17.136  1.1463 -0.7586  1.9491
14511TIP3   OH264947   1.586   1.681  17.122 -0.8422  0.1742  0.3528
14511TIP3    H164948   1.588   1.651  17.213  1.9022  0.7905  0.5837
14511TIP3    H264949   1.516   1.745  17.119  0.5280  1.9348  2.7154
14512TIP3   OH264950   4.835   1.774   1.695 -0.0352  0.0005  0.4066
14512TIP3    H164951   4.888   1.733   1.626  0.2880 -0.2772  0.8194
14512TIP3    H264952   4.852   1.868   1.683  0.0038 -0.0426  0.0957
14513TIP3   OH264953   3.134   2.239   0.820 -0.0424 -0.5542 -0.6853
14513TIP3    H164954   3.139   2.314   0.761  0.2530  0.1067  0.1667
14513TIP3    H264955   3.217   2.240   0.868 -0.7664 -0.3539  0.5983
14514TIP3   OH264956   5.181   4.668   1.070 -0.0701 -0.2898  0.7112
14514TIP3    H164957   5.156   4.579   1.095 -1.4786 -0.4186 -0.9937
14514TIP3    H264958   5.200   4.662   0.977  2.0130  0.7865  0.9964
14515TIP3   OH264959   4.985   0.900  14.962  0.1037 -0.3922  0.7232
14515TIP3    H164960   5.075   0.924  14.984 -0.2932  0.0464  1.9253
14515TIP3    H264961   4.962   0.831  15.023 -0.5964 -0.0387  0.8760
14516TIP3   OH264962   2.235   1.643  14.426  0.0015 -0.4270  0.6392
14516TIP3    H164963   2.242   1.579  14.356 -2.8896  0.5662 -0.7283
14516TIP3    H264964   2.301   1.709  14.405  1.1616 -1.5910  0.5439
14517TIP3   OH264965   5.752   6.081  12.040  0.8282  0.3245 -0.3612
14517TIP3    H164966   5.767   6.006  11.983  1.1735  0.4755 -0.4701
14517TIP3    H264967   5.808   6.150  12.005  3.1060 -0.3427  1.6909
14518TIP3   OH264968   4.497   0.615  10.341 -0.0574  0.0770 -0.0883
14518TIP3    H164969   4.559   0.673  10.385 -0.0558  1.4778 -1.8354
14518TIP3    H264970   4.413   0.660  10.349 -0.4178 -0.6211  0.1408
14519TIP3   OH264971   4.949   2.923  15.874 -0.0053  0.1757  0.2070
14519TIP3    H164972   4.920   2.832  15.868  1.7104 -0.3936 -0.0155
14519TIP3    H264973   4.944   2.956  15.784 -1.2251  0.5123  0.3876
14520TIP3   OH264974   6.572   6.375  13.568  0.1347  0.0035 -0.5641
14520TIP3    H164975   6.512   6.342  13.501 -0.1928  0.4715 -0.5010
14520TIP3    H264976   6.656   6.382  13.523 -0.2369  1.0025 -1.1442
14521TIP3   OH264977   5.096   4.833  13.041  0.3538 -0.0622  0.2606
14521TIP3    H164978   5.122   4.836  12.949 -3.9253 -0.7005 -1.1904
14521TIP3    H264979   5.098   4.740  13.063  2.1500  0.1505  1.1689
14522TIP3   OH264980   5.224   1.415   5.420 -0.4587 -0.1082  0.4972
14522TIP3    H164981   5.245   1.355   5.349 -2.4100  0.3595 -0.5391
14522TIP3    H264982   5.238   1.364   5.500 -0.6058 -1.4363 -0.3047
14523TIP3   OH264983   0.285   1.899   1.362  0.3061 -0.0208  0.4216
14523TIP3    H164984   0.301   1.987   1.328  1.8436 -0.6546 -0.5513
14523TIP3    H264985   0.317   1.840   1.295 -0.8440 -1.3658  0.9861
14524TIP3   OH264986   2.206   6.343  11.296 -0.6584 -0.5482  0.3276
14524TIP3    H164987   2.215   6.292  11.377  0.7431 -0.5816  0.1762
14524TIP3    H264988   2.292   6.384  11.284 -1.3468  0.7824 -0.2716
14525TIP3   OH264989   3.453   6.677   1.126  0.4269 -0.9034 -0.0712
14525TIP3    H164990   3.499   6.719   1.053  0.0421  0.0217  0.1986
14525TIP3    H264991   3.418   6.596   1.089 -1.8829  0.6805 -1.6755
14526TIP3   OH264992   6.011   2.792  11.282  0.0945 -0.0917 -0.0600
14526TIP3    H164993   6.026   2.752  11.197  1.1760  0.8482 -0.3367
14526TIP3    H264994   5.930   2.753  11.314 -0.4890 -0.2154 -1.6568
14527TIP3   OH264995   3.180   3.488  16.221 -0.3119  0.5460 -1.0358
14527TIP3    H164996   3.252   3.428  16.199 -0.8313 -0.5154  0.0137
14527TIP3    H264997   3.114   3.431  16.261 -1.1475  1.7229 -0.7085
14528TIP3   OH264998   4.636   6.699   0.777 -0.4148  0.2951 -0.1650
14528TIP3    H164999   4.648   6.686   0.683 -2.0441 -1.8869 -0.1592
14528TIP3    H265000   4.631   6.794   0.788 -0.1439  0.6062 -2.2701
14529TIP3   OH265001   2.120   4.668   1.910  0.1417  0.0488 -0.4246
14529TIP3    H165002   2.133   4.578   1.939 -0.3072  0.1545  0.1175
14529TIP3    H265003   2.058   4.661   1.838 -0.7344  0.0127  0.3142
14530TIP3   OH265004   5.649   2.736  14.895 -0.5846 -0.0855  0.6201
14530TIP3    H165005   5.719   2.704  14.838 -0.9107 -1.4804  0.9771
14530TIP3    H265006   5.578   2.673  14.885 -0.7032 -0.2973  2.4441
14531TIP3   OH265007   1.093   4.668  12.825 -0.3315 -0.4239  0.4048
14531TIP3    H165008   1.132   4.748  12.861  0.7021 -0.8617  0.2948
14531TIP3    H265009   1.127   4.598  12.881 -1.7843 -0.7466  0.9478
14532TIP3   OH265010   6.314   4.767  13.123  0.1769 -0.3491 -0.3547
14532TIP3    H165011   6.241   4.809  13.077 -0.7507 -1.4807  0.0439
14532TIP3    H265012   6.344   4.698  13.063 -0.6472 -1.4345  0.4432
14533TIP3   OH265013   4.720   1.067  13.676  0.4672 -0.7919  0.5736
14533TIP3    H165014   4.634   1.095  13.642  0.4571  2.3236  2.7756
14533TIP3    H265015   4.776   1.064  13.598 -0.5234  2.0125 -0.3950
14534TIP3   OH265016   4.381   4.358  15.726  0.6576 -0.6148  0.3659
14534TIP3    H165017   4.296   4.390  15.694  0.0579  0.3513  2.7067
14534TIP3    H265018   4.360   4.279  15.776  0.8222  0.5614  2.3986
14535TIP3   OH265019   1.140   4.567   3.694  0.0212 -0.1495  0.1666
14535TIP3    H165020   1.113   4.518   3.772 -0.9305  1.4646  0.8939
14535TIP3    H265021   1.069   4.554   3.631  1.2872 -2.3775 -0.9528
14536TIP3   OH265022   2.934   3.693  14.355  0.9514  0.4800  0.1611
14536TIP3    H165023   2.920   3.604  14.387 -2.0165  0.2579 -1.4264
14536TIP3    H265024   3.003   3.684  14.289  1.5462 -0.4026  0.8845
14537TIP3   OH265025   2.993   6.338  15.354  0.2303  0.2953  0.3521
14537TIP3    H165026   2.982   6.409  15.290 -0.4459 -0.0322  0.0926
14537TIP3    H265027   3.017   6.262  15.301  2.1139  0.5767  0.7450
14538TIP3   OH265028   2.462   2.891  16.844 -0.2094  0.2122  0.2828
14538TIP3    H165029   2.556   2.880  16.858 -0.4061 -0.5525  1.1387
14538TIP3    H265030   2.455   2.943  16.764  0.9258 -0.7506 -0.4850
14539TIP3   OH265031   4.191   3.793  10.938  0.8425 -0.6829 -0.0076
14539TIP3    H165032   4.255   3.819  10.872  3.1589 -0.5694  2.1343
14539TIP3    H265033   4.138   3.871  10.954  1.2209 -0.2917 -0.6508
14540TIP3   OH265034   6.365   5.154   5.034  0.1223 -0.5697 -0.2192
14540TIP3    H165035   6.290   5.106   5.070 -0.7213  0.8359 -0.0572
14540TIP3    H265036   6.441   5.099   5.056 -0.6584 -1.1093  1.2518
14541TIP3   OH265037   6.549   3.337  13.548  0.3189  0.1834  0.0707
14541TIP3    H165038   6.580   3.413  13.499 -1.9990  0.5765 -0.9474
14541TIP3    H265039   6.578   3.262  13.497  0.3826  0.4821 -0.3355
14542TIP3   OH265040   1.418   5.353  13.767  0.2376  0.3337  0.1990
14542TIP3    H165041   1.413   5.335  13.674 -0.9618 -0.5900  0.4163
14542TIP3    H265042   1.426   5.448  13.773 -0.5786  0.4806 -0.8193
14543TIP3   OH265043   4.400   6.579   4.027 -0.1253 -0.3759  0.4584
14543TIP3    H165044   4.320   6.602   4.074 -0.6946 -2.3149  0.5088
14543TIP3    H265045   4.370   6.538   3.946  0.8429  0.3810 -0.3153
14544TIP3   OH265046   3.063   0.963  16.819 -0.2107 -0.3466  0.6639
14544TIP3    H165047   3.001   1.011  16.874 -0.3794  0.8952 -0.5515
14544TIP3    H265048   3.138   1.023  16.810  0.3790 -1.0783  0.6151
14545TIP3   OH265049   4.386   2.902   2.991  0.0955 -0.2221  0.2716
14545TIP3    H165050   4.455   2.964   2.968  0.4489 -0.4599  0.6789
14545TIP3    H265051   4.384   2.840   2.918 -1.2245  1.0469 -0.8492
14546TIP3   OH265052   4.298   2.599   1.984  0.2141 -1.0516 -0.4748
14546TIP3    H165053   4.229   2.610   1.918 -1.6026 -2.0250  1.1795
14546TIP3    H265054   4.261   2.539   2.048  1.7676  0.1368  1.6558
14547TIP3   OH265055   5.224   0.173  12.549 -0.7516  0.1060  0.6085
14547TIP3    H165056   5.315   0.198  12.531 -0.8096  1.0099  1.4641
14547TIP3    H265057   5.185   0.252  12.587 -1.6567 -0.5405  1.0529
14548TIP3   OH265058   4.686   1.326   3.398  0.2433 -0.2086  0.2697
14548TIP3    H165059   4.727   1.315   3.312  0.5978 -0.5489  0.4798
14548TIP3    H265060   4.594   1.344   3.378  0.3156 -0.3182 -0.1811
14549TIP3   OH265061   0.323   1.384   2.803  0.3594 -0.0670  0.8681
14549TIP3    H165062   0.275   1.464   2.781  1.0850 -0.4523 -2.5999
14549TIP3    H265063   0.255   1.323   2.831 -0.5707  0.8507  0.6979
14550TIP3   OH265064   1.087   0.959   6.373 -0.6657 -0.0848  0.0165
14550TIP3    H165065   1.025   1.031   6.378 -0.2239  0.2607  0.8622
14550TIP3    H265066   1.124   0.954   6.461 -0.1442 -0.8583 -0.2362
14551TIP3   OH265067   2.964   5.854   4.240  0.1647 -0.0598 -0.3833
14551TIP3    H165068   3.007   5.845   4.155  0.5695 -0.2253 -0.1593
14551TIP3    H265069   2.881   5.806   4.230  0.5120 -0.6516 -0.4747
14552TIP3   OH265070   6.208   4.655  14.760 -0.2145 -0.2222  0.7346
14552TIP3    H165071   6.214   4.575  14.708  0.3305 -0.0067  0.4560
14552TIP3    H265072   6.286   4.653  14.815  0.3199  0.5876  0.0359
14553TIP3   OH265073   1.799   2.936   4.959 -0.6088  0.8330  0.2636
14553TIP3    H165074   1.715   2.896   4.979 -0.3634  0.5670  0.7776
14553TIP3    H265075   1.861   2.863   4.957 -0.2554  1.1114  0.6859
14554TIP3   OH265076   1.651   0.278   1.526  0.2830 -0.5980  0.2080
14554TIP3    H165077   1.712   0.205   1.537  1.3326  0.0876 -0.7558
14554TIP3    H265078   1.662   0.304   1.434 -0.2107  0.6429  0.4867
14555TIP3   OH265079   6.694   1.675  17.128  0.4509 -0.5551 -0.5453
14555TIP3    H165080   6.641   1.741  17.172  0.3409  0.0413 -1.5287
14555TIP3    H265081   6.676   1.689  17.035  0.7600 -1.6986 -0.7858
14556TIP3   OH265082   5.151   1.946  17.142  0.1020  0.4448  0.0304
14556TIP3    H165083   5.171   2.039  17.142 -1.4096  0.8731 -2.5577
14556TIP3    H265084   5.056   1.941  17.144  0.1397 -1.1927  2.3866
14557TIP3   OH265085   2.061   3.591  15.697 -0.1078 -0.0880 -0.5427
14557TIP3    H165086   1.967   3.602  15.715 -0.1148  1.2594 -1.2524
14557TIP3    H265087   2.067   3.506  15.653 -0.8879 -0.5286  0.1622
14558TIP3   OH265088   2.794   1.595   0.092  0.1708 -0.0897  0.2893
14558TIP3    H165089   2.716   1.561   0.135  0.1561  1.7218  1.8271
14558TIP3    H265090   2.867   1.555   0.139  0.2088 -1.1012 -0.5818
14559TIP3   OH265091   6.562   6.581   6.095 -0.2352 -0.0485 -0.2911
14559TIP3    H165092   6.635   6.640   6.113  0.1404 -0.5365 -0.2285
14559TIP3    H265093   6.528   6.557   6.181  0.9880 -1.6545 -0.2192
14560TIP3   OH265094   3.141   1.458   3.995  0.1331 -0.3429 -0.9983
14560TIP3    H165095   3.081   1.450   3.921 -1.9578  1.1352  0.3957
14560TIP3    H265096   3.096   1.413   4.067  0.2568  1.4231  0.2767
14561TIP3   OH265097   1.881   0.419  15.799 -0.1504 -0.3564  0.2036
14561TIP3    H165098   1.925   0.447  15.879 -0.6698  2.1311 -0.2932
14561TIP3    H265099   1.949   0.422  15.732 -0.1807 -0.4118  0.1704
14562TIP3   OH265100   1.923   3.962  14.962  0.3636  0.2380 -0.6011
14562TIP3    H165101   1.833   3.962  14.993  0.3797  1.5939 -0.4648
14562TIP3    H265102   1.955   3.874  14.978 -0.6532 -0.0015  0.1961
14563TIP3   OH265103   5.154   1.999  16.211  0.0219 -0.0094  0.7854
14563TIP3    H165104   5.167   1.907  16.185  1.1358 -0.1001  1.6156
14563TIP3    H265105   5.222   2.047  16.165  0.3877  0.1832  1.5106
14564TIP3   OH265106   1.199   5.925  15.563 -0.2398  0.5854  0.9032
14564TIP3    H165107   1.106   5.949  15.563 -0.6213 -0.8191  0.5798
14564TIP3    H265108   1.230   5.947  15.651 -0.3554  2.9138  0.4205
14565TIP3   OH265109   4.554   1.798  13.267 -0.4709 -0.6568 -0.4087
14565TIP3    H165110   4.591   1.738  13.202 -0.9136 -2.8555  1.2700
14565TIP3    H265111   4.468   1.762  13.288 -0.4104  0.0758  1.2715
14566TIP3   OH265112   4.805   6.662  15.836  0.3044  0.8952  0.1490
14566TIP3    H165113   4.844   6.748  15.823 -1.5756  1.7092 -0.3923
14566TIP3    H265114   4.725   6.679  15.885 -0.7272 -0.3810 -1.0249
14567TIP3   OH265115   5.766   0.693  13.734  0.3705  0.1752 -0.3064
14567TIP3    H165116   5.823   0.616  13.739  0.8832  0.3843 -2.0707
14567TIP3    H265117   5.803   0.754  13.798 -0.5977 -1.3367  1.7890
14568TIP3   OH265118   1.848   5.987   6.065  0.4239  0.1854 -0.2716
14568TIP3    H165119   1.813   5.920   6.006  1.0172  0.5610 -1.0678
14568TIP3    H265120   1.861   5.941   6.148  2.5835 -1.2510 -1.2795
14569TIP3   OH265121   6.506   1.276  14.087  0.7762 -0.2433  0.6741
14569TIP3    H165122   6.600   1.286  14.071  0.8173  1.5185  1.7904
14569TIP3    H265123   6.476   1.363  14.113 -1.0536 -0.9085  0.9803
14570TIP3   OH265124   6.277   1.297  13.308  0.0960 -0.0595 -0.2096
14570TIP3    H165125   6.342   1.364  13.286  0.8873 -0.6348  0.2799
14570TIP3    H265126   6.259   1.253  13.225  0.5383 -0.0697 -0.3037
14571TIP3   OH265127   3.952   4.068   2.775 -0.1213 -0.2953  0.2134
14571TIP3    H165128   4.007   3.995   2.803 -0.4999 -0.3979  0.7026
14571TIP3    H265129   3.905   4.094   2.854 -2.2181 -1.4639 -0.5783
14572TIP3   OH265130   5.945   1.128  17.042 -0.1650 -0.2760  0.7235
14572TIP3    H165131   5.889   1.061  17.081  0.1153 -0.2392  1.1957
14572TIP3    H265132   5.962   1.097  16.953  2.2763 -2.2716  1.7809
14573TIP3   OH265133   5.349   4.996  12.011 -0.1654 -0.0510  0.2276
14573TIP3    H165134   5.371   4.958  12.096  1.3667 -0.4470 -0.3109
14573TIP3    H265135   5.323   5.086  12.032  2.6815  0.7092  0.9484
14574TIP3   OH265136   3.696   6.520   0.556  0.2177 -0.0816  0.1289
14574TIP3    H165137   3.773   6.487   0.602 -0.1823  0.8717  1.5302
14574TIP3    H265138   3.690   6.612   0.582  0.4091  0.7376 -2.4487
14575TIP3   OH265139   5.393   6.064  12.295 -0.6766  0.3651  0.0331
14575TIP3    H165140   5.377   6.125  12.223  0.3114 -0.8597 -1.2822
14575TIP3    H265141   5.319   6.003  12.293 -2.0845  1.8950  1.8540
14576TIP3   OH265142   6.499   4.810   5.432  0.7386 -0.2248  0.0622
14576TIP3    H165143   6.445   4.754   5.375  0.5507 -1.6131  1.5367
14576TIP3    H265144   6.589   4.786   5.411  0.6980 -0.0622 -0.3027
14577TIP3   OH265145   3.611   3.941   0.905  0.2418  0.5286  0.6920
14577TIP3    H165146   3.573   3.854   0.892 -0.3092  0.9598 -0.7643
14577TIP3    H265147   3.578   3.969   0.991 -1.0545  0.0259  0.3863
14578TIP3   OH265148   0.481   2.288  12.234  0.2775 -0.0201  0.4315
14578TIP3    H165149   0.470   2.282  12.139 -0.4259 -0.2916  0.5309
14578TIP3    H265150   0.517   2.203  12.259  1.7001  0.4895  0.2528
14579TIP3   OH265151   4.899   2.573  11.244 -0.0700 -0.2126 -0.0799
14579TIP3    H165152   4.944   2.655  11.225  0.6327 -0.1065  1.8273
14579TIP3    H265153   4.806   2.596  11.245 -0.0709  0.0165 -1.9259
14580TIP3   OH265154   2.704   3.415   3.290  0.3226  0.0336 -0.1396
14580TIP3    H165155   2.781   3.448   3.244  1.0365 -1.8067 -0.3623
14580TIP3    H265156   2.740   3.357   3.358 -0.8409 -0.6593 -0.0836
14581TIP3   OH265157   2.712   1.952  11.721  0.1541  0.0904  0.4119
14581TIP3    H165158   2.660   1.893  11.666  0.8450 -1.0246  0.9233
14581TIP3    H265159   2.755   2.011  11.659  0.5345 -0.8342 -0.2285
14582TIP3   OH265160   5.211   6.016   5.169 -0.3407  0.3592  0.3348
14582TIP3    H165161   5.294   6.048   5.136 -0.6289  0.8512  0.0805
14582TIP3    H265162   5.232   5.933   5.213  0.0194 -0.4358 -1.2844
14583TIP3   OH265163   6.143   5.973   6.194 -0.0173  0.7975  0.6320
14583TIP3    H165164   6.120   5.881   6.206  2.8220  0.1065  1.7570
14583TIP3    H265165   6.092   6.019   6.261 -1.1740  0.0059  0.3202
14584TIP3   OH265166   3.612   4.943  12.075  0.1151 -0.1009  0.1085
14584TIP3    H165167   3.686   4.926  12.133  0.7984  0.6594 -0.5124
14584TIP3    H265168   3.537   4.952  12.133  0.8673  1.1244  0.9371
14585TIP3   OH265169   4.402   4.055   5.733  0.0327  0.0440 -0.2283
14585TIP3    H165170   4.481   4.014   5.768 -1.2418 -1.7135  0.7421
14585TIP3    H265171   4.381   4.005   5.655 -0.2392  0.3706 -0.3684
14586TIP3   OH265172   0.846   2.304  12.829  0.3478 -0.0855  0.0663
14586TIP3    H165173   0.919   2.303  12.891 -0.6539 -0.5750  1.3057
14586TIP3    H265174   0.887   2.306  12.743  1.8788 -2.3164  0.6517
14587TIP3   OH265175   2.648   2.944  14.492  0.3688 -0.0549 -0.1484
14587TIP3    H165176   2.627   2.922  14.402  0.4928  3.2154 -1.1124
14587TIP3    H265177   2.581   3.008  14.518  1.5554  0.6855  1.2966
14588TIP3   OH265178   4.473   0.328  13.697 -0.7269 -0.4117 -0.1994
14588TIP3    H165179   4.463   0.246  13.649 -1.4177 -0.7808  0.5449
14588TIP3    H265180   4.526   0.383  13.640  0.9180 -1.8531 -0.1211
14589TIP3   OH265181   1.274   1.685   3.943  0.2367  0.1252  0.3814
14589TIP3    H165182   1.354   1.720   3.904 -0.5877  0.9826 -0.6084
14589TIP3    H265183   1.266   1.597   3.907 -0.5068  0.8988 -1.4590
14590TIP3   OH265184   3.917   6.597   3.847  0.4079  0.0167 -0.1916
14590TIP3    H165185   3.978   6.530   3.816  2.0959  0.8643  1.1406
14590TIP3    H265186   3.918   6.587   3.942 -2.3101 -0.5503 -0.1398
14591TIP3   OH265187   6.498   1.738   4.397 -0.5151 -0.0066 -0.0807
14591TIP3    H165188   6.466   1.803   4.460  0.6401  0.0785  0.4533
14591TIP3    H265189   6.424   1.680   4.381 -0.3159 -1.2754  2.9383
14592TIP3   OH265190   1.216   5.001   0.117  0.7205 -0.2164 -0.0372
14592TIP3    H165191   1.287   5.021   0.057  1.3763  0.0852  0.8131
14592TIP3    H265192   1.193   5.085   0.157 -1.1227 -0.0418 -1.3396
14593TIP3   OH265193   1.842   2.326   3.479  0.0664  0.0248  0.0538
14593TIP3    H165194   1.780   2.306   3.409 -0.1511 -1.3370  0.5925
14593TIP3    H265195   1.852   2.243   3.526  0.5620  0.7895  1.3524
14594TIP3   OH265196   3.691   5.796   1.128  0.5365  0.1146 -0.2815
14594TIP3    H165197   3.784   5.774   1.122  0.5916 -0.2229  1.3242
14594TIP3    H265198   3.666   5.770   1.217 -1.1508 -0.0130 -0.7526
14595TIP3   OH265199   5.274   1.598  14.884 -0.2815 -0.4345 -0.2212
14595TIP3    H165200   5.356   1.638  14.855 -0.0790 -0.6737  0.0204
14595TIP3    H265201   5.298   1.509  14.911 -0.3540 -0.0396  1.2333
14596TIP3   OH265202   3.765   1.655   0.360  0.6976 -0.1208  1.0329
14596TIP3    H165203   3.686   1.709   0.357  0.2358 -0.7618  1.3570
14596TIP3    H265204   3.749   1.586   0.295  0.9218 -0.3494  1.2165
14597TIP3   OH265205   3.136   4.316  16.176  0.2195  0.0291 -0.1635
14597TIP3    H165206   3.112   4.373  16.103 -2.0946  2.2773  2.1025
14597TIP3    H265207   3.218   4.352  16.209  0.2363  0.2791 -0.4735
14598TIP3   OH265208   2.951   2.152  12.332 -0.1241 -0.1466  0.2624
14598TIP3    H165209   2.976   2.231  12.284 -0.4959 -0.5843 -0.6658
14598TIP3    H265210   3.006   2.154  12.411 -0.2473  1.1196  0.3410
14599TIP3   OH265211   3.746   5.745   3.707 -0.3593 -0.3722  0.1843
14599TIP3    H165212   3.820   5.703   3.663 -0.7117 -1.6764  0.7884
14599TIP3    H265213   3.765   5.839   3.702  0.9605 -0.6474 -0.3228
14600TIP3   OH265214   1.504   6.180  15.987  0.2466 -0.0593 -0.2779
14600TIP3    H165215   1.587   6.208  15.947  0.1525  0.1034 -0.3565
14600TIP3    H265216   1.459   6.134  15.917  0.7550 -1.1301  0.0707
14601TIP3   OH265217   4.824   0.341  10.740  0.5040  0.2112 -0.2469
14601TIP3    H165218   4.918   0.325  10.747  0.4653 -0.1348 -0.4990
14601TIP3    H265219   4.790   0.322  10.828  0.3285 -2.0415 -0.7555
14602TIP3   OH265220   5.270   4.506  15.877 -0.1174  0.0581 -0.2470
14602TIP3    H165221   5.205   4.528  15.810 -0.7816  1.9921  0.9414
14602TIP3    H265222   5.219   4.501  15.958  1.0391  0.2286  0.5033
14603TIP3   OH265223   1.048   2.647   2.602 -0.1299 -0.1442 -0.2264
14603TIP3    H165224   1.143   2.655   2.612 -0.0549 -0.8402 -0.3332
14603TIP3    H265225   1.024   2.714   2.539  0.1584  0.6751  0.5214
14604TIP3   OH265226   5.994   1.434   2.950  0.2574  0.8615  0.0961
14604TIP3    H165227   6.057   1.505   2.957  1.1488 -0.0199  1.2604
14604TIP3    H265228   6.043   1.355   2.973 -0.7509 -0.1282 -1.0049
14605TIP3   OH265229   0.303   4.898  16.826  0.2756 -0.6735 -0.0642
14605TIP3    H165230   0.212   4.870  16.830  1.0504 -3.7435 -1.2913
14605TIP3    H265231   0.315   4.927  16.736  0.3371  0.4943  0.3109
14606TIP3   OH265232   6.158   3.106  12.861  0.2072  0.1592 -0.1955
14606TIP3    H165233   6.105   3.184  12.878  0.7516  0.8448 -1.5032
14606TIP3    H265234   6.203   3.089  12.944 -2.1223 -0.5389  1.0166
14607TIP3   OH265235   5.365   2.463   2.031 -0.0025 -0.4225  0.4841
14607TIP3    H165236   5.427   2.479   1.960  0.2522 -2.5614  0.1611
14607TIP3    H265237   5.370   2.542   2.085  2.4275 -0.1925  0.0494
14608TIP3   OH265238   3.326   0.598  14.804 -0.4150 -0.2487  0.1194
14608TIP3    H165239   3.249   0.609  14.749 -0.8320  1.2865  0.9520
14608TIP3    H265240   3.297   0.540  14.875 -0.9424  0.6341  0.6421
14609TIP3   OH265241   1.548   4.632   2.149  0.2796  0.3537 -0.0478
14609TIP3    H165242   1.461   4.600   2.123  0.5185 -0.5924  0.2554
14609TIP3    H265243   1.588   4.663   2.068  0.0912 -0.2862 -0.3936
14610TIP3   OH265244   3.628   6.756   6.687  0.4679  0.0469  0.3399
14610TIP3    H165245   3.631   6.710   6.771  3.9994  1.5982  1.2481
14610TIP3    H265246   3.538   6.788   6.680 -0.3145 -1.3566  2.7910
14611TIP3   OH265247   0.747   0.720   2.151  0.5279  0.8796 -0.0724
14611TIP3    H165248   0.840   0.697   2.158  0.6980  1.6677  0.3374
14611TIP3    H265249   0.704   0.664   2.216  1.0186  2.0839  1.3628
14612TIP3   OH265250   6.187   5.716   2.870 -0.0196 -0.5861 -0.2489
14612TIP3    H165251   6.216   5.694   2.782 -0.3819 -0.8678 -0.3024
14612TIP3    H265252   6.221   5.804   2.886  2.8171 -1.7377  0.5567
14613TIP3   OH265253   1.905   6.154   3.125 -0.4618 -0.1204 -0.7214
14613TIP3    H165254   1.828   6.125   3.077  0.1009 -0.5100 -1.4127
14613TIP3    H265255   1.910   6.097   3.202 -0.0944 -1.0110 -1.3927
14614TIP3   OH265256   1.518   5.389   5.827 -0.0156  0.1303 -0.4572
14614TIP3    H165257   1.460   5.331   5.777 -0.5069 -0.0009  0.2419
14614TIP3    H265258   1.549   5.454   5.764 -0.7373  0.0539 -0.8965
14615TIP3   OH265259   2.977   3.827  13.309 -0.6746  0.0356 -0.1110
14615TIP3    H165260   3.071   3.822  13.327 -0.7367 -0.6732  0.0343
14615TIP3    H265261   2.942   3.879  13.381 -0.4974 -0.3363  0.2496
14616TIP3   OH265262   4.900   1.917   3.362 -0.2862  0.1689 -0.0735
14616TIP3    H165263   4.884   1.990   3.303 -1.7133  1.1273  1.4219
14616TIP3    H265264   4.878   1.839   3.310  3.2534  0.5118 -2.3932
14617TIP3   OH265265   0.597   0.210   0.448 -0.4055 -0.3880 -0.0229
14617TIP3    H165266   0.577   0.117   0.441  0.1750 -0.4911 -0.4165
14617TIP3    H265267   0.693   0.214   0.446 -0.3208  0.0577  2.0694
14618TIP3   OH265268   2.861   5.661   5.872 -0.3074  0.5070  0.1400
14618TIP3    H165269   2.940   5.711   5.852 -0.0946  0.3190  0.5130
14618TIP3    H265270   2.861   5.653   5.967 -1.2331  1.2639  0.2290
14619TIP3   OH265271   4.113   3.004   6.271  0.0735 -0.2650 -0.0199
14619TIP3    H165272   4.028   3.046   6.262  0.4603  0.3053 -1.2325
14619TIP3    H265273   4.176   3.074   6.256  0.7443 -0.8876 -0.1982
14620TIP3   OH265274   4.669   1.731   3.561  0.1634 -0.1323  0.1184
14620TIP3    H165275   4.746   1.691   3.601  0.8990 -1.3421 -2.3406
14620TIP3    H265276   4.693   1.822   3.548  0.8960 -0.3362  0.0320
14621TIP3   OH265277   0.551   6.036  14.442  0.2839 -0.0642  0.2208
14621TIP3    H165278   0.460   6.022  14.468 -0.1233 -2.0040 -1.8996
14621TIP3    H265279   0.602   6.014  14.521 -1.0174  0.5507  1.2819
14622TIP3   OH265280   4.564   2.893   1.422  0.1931  0.1078 -0.4409
14622TIP3    H165281   4.624   2.963   1.398  0.2123 -0.0527 -0.8781
14622TIP3    H265282   4.488   2.938   1.459 -0.6223  0.5048 -2.4487
14623TIP3   OH265283   2.712   3.424  13.127  0.3917  0.0521 -0.0879
14623TIP3    H165284   2.683   3.419  13.036  0.2505 -0.7631 -0.0064
14623TIP3    H265285   2.803   3.452  13.121  0.6203 -0.7586 -0.5271
14624TIP3   OH265286   3.361   3.657   4.644  0.6223 -0.3166 -0.0524
14624TIP3    H165287   3.420   3.728   4.667  0.5927 -0.0151 -0.8845
14624TIP3    H265288   3.295   3.657   4.714  0.0258  1.1641 -0.5691
14625TIP3   OH265289   1.609   3.328   5.726 -0.4659  0.1506  0.4767
14625TIP3    H165290   1.642   3.316   5.637 -0.3026 -0.5820  0.6308
14625TIP3    H265291   1.625   3.244   5.769 -0.1895  0.6256  1.3109
14626TIP3   OH265292   5.792   1.794   0.168  0.2194  0.2580  0.4154
14626TIP3    H165293   5.767   1.803   0.076 -0.1849 -0.6122  0.4269
14626TIP3    H265294   5.851   1.718   0.170 -0.7968 -0.5497  1.0436
14627TIP3   OH265295   3.361   4.871  14.282  0.0276 -0.4775 -0.2187
14627TIP3    H165296   3.298   4.832  14.222 -1.3958  2.0385 -0.5150
14627TIP3    H265297   3.308   4.919  14.345  1.5834 -0.9644  1.5580
14628TIP3   OH265298   0.724   6.175  13.406  0.2615  0.5477 -0.1107
14628TIP3    H165299   0.778   6.167  13.485  0.0257  1.0591  0.1070
14628TIP3    H265300   0.683   6.261  13.414 -0.9694 -0.0318 -0.0401
14629TIP3   OH265301   1.079   3.692  15.484 -0.0313 -0.0917 -0.0095
14629TIP3    H165302   0.999   3.696  15.538  0.2078  2.3094  0.2781
14629TIP3    H265303   1.142   3.645  15.539 -1.0639 -1.5400 -0.0194
14630TIP3   OH265304   5.645   6.290  12.547 -0.5853  0.3287 -0.5746
14630TIP3    H165305   5.614   6.262  12.633  0.7070 -0.6941 -0.4084
14630TIP3    H265306   5.699   6.367  12.564  0.9909 -0.7966 -0.2177
14631TIP3   OH265307   2.527   3.312  16.892 -0.2657  0.1278  0.1717
14631TIP3    H165308   2.482   3.272  16.817 -0.3649  1.0892 -0.2921
14631TIP3    H265309   2.604   3.354  16.854 -0.0645  0.2235  0.6809
14632TIP3   OH265310   2.829   2.625  11.795  0.1085 -0.4815  0.1126
14632TIP3    H165311   2.836   2.701  11.738 -1.2470 -0.7021 -0.3679
14632TIP3    H265312   2.920   2.597  11.809  0.4779 -0.3044 -1.7562
14633TIP3   OH265313   5.733   5.237   1.164  0.1596  0.0221 -0.4031
14633TIP3    H165314   5.740   5.324   1.205  2.2643 -0.9048  1.4040
14633TIP3    H265315   5.783   5.245   1.083  0.3323  0.4883 -0.2578
14634TIP3   OH265316   2.215   5.476  17.061 -0.0779  0.0363 -0.0446
14634TIP3    H165317   2.159   5.398  17.059  0.9052 -0.6709 -0.7071
14634TIP3    H265318   2.262   5.474  16.977 -0.1921  1.4624 -0.1617
14635TIP3   OH265319   0.415   4.736   4.560 -0.0999  0.5146 -0.2130
14635TIP3    H165320   0.378   4.653   4.590  0.5787 -0.5431 -2.1699
14635TIP3    H265321   0.458   4.716   4.477  0.5936  2.7138 -0.4712
14636TIP3   OH265322   0.875   6.057   2.413 -0.3094  0.1214  0.0178
14636TIP3    H165323   0.794   6.065   2.362 -0.8598 -2.2998  0.3482
14636TIP3    H265324   0.944   6.084   2.353 -1.2841  1.5197 -0.5248
14637TIP3   OH265325   5.268   3.560  16.832  0.0070  0.0482  0.2212
14637TIP3    H165326   5.216   3.480  16.832 -0.7859  0.5454 -0.8905
14637TIP3    H265327   5.292   3.574  16.741  0.8652  0.6197  0.5214
14638TIP3   OH265328   5.982   4.262   3.331  0.2459 -0.4016  0.1080
14638TIP3    H165329   6.063   4.250   3.381  0.0101 -1.5345  0.2406
14638TIP3    H265330   6.009   4.256   3.240  0.4556  0.2518  0.1174
14639TIP3   OH265331   3.201   4.904   3.734  0.2714 -0.1771 -0.3101
14639TIP3    H165332   3.107   4.889   3.721 -0.1263  0.2589  1.6998
14639TIP3    H265333   3.215   4.994   3.704 -0.2837  0.2560  0.6526
14640TIP3   OH265334   2.561   3.884   5.700 -0.0518  0.0706  0.5486
14640TIP3    H165335   2.607   3.801   5.684  0.0956 -0.2593  2.4551
14640TIP3    H265336   2.632   3.947   5.716 -0.1745  0.5163 -0.5758
14641TIP3   OH265337   3.514   1.516   2.068 -0.1008 -0.0150  0.2339
14641TIP3    H165338   3.485   1.564   2.146 -0.4019  2.4534 -1.3060
14641TIP3    H265339   3.606   1.541   2.058 -0.6540  1.5523 -1.4286
14642TIP3   OH265340   3.459   2.826   3.182 -0.2457 -0.0612  0.6796
14642TIP3    H165341   3.417   2.868   3.106 -0.3724 -0.9215  0.2649
14642TIP3    H265342   3.386   2.806   3.241 -0.0862  1.1847  1.3427
14643TIP3   OH265343   4.853   0.900   3.326  0.1898  0.1416  0.5634
14643TIP3    H165344   4.877   0.815   3.362 -0.1420 -0.2353 -0.0726
14643TIP3    H265345   4.819   0.949   3.401 -3.1543 -1.5963  0.3898
14644TIP3   OH265346   6.133   5.760  15.859  0.2453 -0.0721 -0.6503
14644TIP3    H165347   6.078   5.753  15.937  2.2756  0.5169  0.9628
14644TIP3    H265348   6.084   5.816  15.799 -0.1709  1.9881  1.4623
14645TIP3   OH265349   4.810   4.765  14.428  0.2407 -0.4092 -0.4587
14645TIP3    H165350   4.768   4.701  14.486 -2.5083  0.2136 -1.6272
14645TIP3    H265351   4.874   4.714  14.378 -0.2053 -1.7521  0.2938
14646TIP3   OH265352   4.033   0.011  11.360 -0.0903  0.0589 -0.0793
14646TIP3    H165353   3.999   0.028  11.272 -1.4217  3.5348  0.8893
14646TIP3    H265354   4.128   0.018  11.351 -0.0654 -1.4672 -1.4841
14647TIP3   OH265355   0.279   1.974  11.997  0.0977  0.3514 -0.0403
14647TIP3    H165356   0.317   1.892  12.027 -0.8078  0.7880  2.5589
14647TIP3    H265357   0.203   1.948  11.945  0.7534 -0.4435 -0.6251
14648TIP3   OH265358   3.961   5.902   2.117 -0.1924  0.2864  0.1005
14648TIP3    H165359   3.886   5.855   2.081  1.0735 -1.0830 -0.8727
14648TIP3    H265360   3.963   5.985   2.069  0.5044 -0.8323 -1.9118
14649TIP3   OH265361   0.653   0.305   5.745  0.1730 -0.1382 -0.3188
14649TIP3    H165362   0.700   0.377   5.703  0.8441  1.0301  2.2186
14649TIP3    H265363   0.704   0.285   5.823 -1.8199 -1.0256  0.8514
14650TIP3   OH265364   1.321   1.623  16.014 -1.1718  0.0780  0.2601
14650TIP3    H165365   1.268   1.570  16.073 -1.6246 -1.3913 -1.3762
14650TIP3    H265366   1.269   1.627  15.933  0.7887 -0.6758 -1.1105
14651TIP3   OH265367   1.032   5.665   2.389 -0.1123  0.0765  0.3543
14651TIP3    H165368   1.096   5.727   2.354 -0.4632  0.2095 -0.0748
14651TIP3    H265369   0.992   5.710   2.463  1.4158 -0.6357  1.6602
14652TIP3   OH265370   1.165   0.000  15.574 -0.6833 -0.5470 -0.1204
14652TIP3    H165371   1.153  -0.036  15.486 -2.8099  2.0649 -1.0493
14652TIP3    H265372   1.085  -0.024  15.621 -1.4989  1.5589 -0.3205
14653TIP3   OH265373   3.814   3.557   3.846  0.2275  0.0418 -0.1243
14653TIP3    H165374   3.771   3.642   3.835  0.4570 -0.0123 -1.6893
14653TIP3    H265375   3.854   3.561   3.933 -2.2905  0.3599  1.1232
14654TIP3   OH265376   1.252   6.402  12.943  0.1743 -0.5888  0.1507
14654TIP3    H165377   1.204   6.335  12.894 -0.7528 -1.4019  2.0389
14654TIP3    H265378   1.331   6.357  12.972  0.5756 -0.2023 -0.3255
14655TIP3   OH265379   4.718   4.406   6.459 -0.5853  0.6168 -0.6357
14655TIP3    H165380   4.640   4.361   6.493  0.8459 -1.6860 -0.1851
14655TIP3    H265381   4.707   4.497   6.489 -1.0984 -0.5070  3.1905
14656TIP3   OH265382   4.582   3.953   0.054  0.5352  0.2477 -0.1920
14656TIP3    H165383   4.544   4.010  -0.012 -0.8782 -0.3666  0.0630
14656TIP3    H265384   4.513   3.892   0.076  1.9018 -1.3826 -0.2115
14657TIP3   OH265385   6.307   0.731   0.615  0.5397 -0.0515  0.3053
14657TIP3    H165386   6.363   0.690   0.681 -1.1089 -0.3287  1.6031
14657TIP3    H265387   6.314   0.825   0.632  1.1495 -0.0365 -0.0067
14658TIP3   OH265388   5.134   5.824   0.976 -0.1941  0.5150  0.1207
14658TIP3    H165389   5.184   5.889   1.026 -1.8458  2.4473 -0.5810
14658TIP3    H265390   5.184   5.812   0.896  1.0226 -0.4715  0.9825
14659TIP3   OH265391   0.375   3.241  17.000 -0.3093  0.1627  0.2240
14659TIP3    H165392   0.320   3.319  17.003 -0.7868 -0.0864 -1.1525
14659TIP3    H265393   0.463   3.272  17.023 -0.5420  1.0656 -0.0682
14660TIP3   OH265394   0.063   6.156   4.956  0.0645 -0.2912 -0.4227
14660TIP3    H165395   0.130   6.204   5.005  0.0140 -0.1807 -0.4624
14660TIP3    H265396   0.112   6.110   4.887  0.4663 -2.3578  1.1498
14661TIP3   OH265397   1.881   0.003  15.290 -0.4008 -0.7939  0.0569
14661TIP3    H165398   1.813   0.052  15.336 -0.3154  0.0102 -0.6446
14661TIP3    H265399   1.944  -0.020  15.358 -0.2604  0.3974  0.3478
14662TIP3   OH265400   0.859   6.176   3.060 -0.1806  0.7045  0.7482
14662TIP3    H165401   0.867   6.191   3.154 -1.1383 -0.4747  1.0471
14662TIP3    H265402   0.845   6.081   3.052  0.2752  0.7260 -0.6112
14663TIP3   OH265403   0.090   5.798  12.190  0.3351  0.0609  0.3800
14663TIP3    H165404   0.110   5.729  12.253  0.7188  0.1639  0.3736
14663TIP3    H265405   0.056   5.871  12.243 -2.8135 -1.0921  0.1639
14664TIP3   OH265406   6.445   5.847   6.068 -0.2274 -0.2578  0.5019
14664TIP3    H165407   6.540   5.855   6.062  0.1525 -3.4296  0.6307
14664TIP3    H265408   6.427   5.839   6.161 -0.7090  0.7236  0.5083
14665TIP3   OH265409   5.632   0.426   2.586  0.3798  0.4021 -0.0604
14665TIP3    H165410   5.702   0.409   2.649 -0.2861  1.5919  1.0334
14665TIP3    H265411   5.551   0.418   2.637 -0.1569  1.7274 -0.6694
14666TIP3   OH265412   3.119   6.008   5.092  0.2170 -0.3363 -0.1481
14666TIP3    H165413   3.081   5.958   5.019  0.7516  0.1919 -0.7951
14666TIP3    H265414   3.045   6.061   5.125  0.3477  0.6891 -1.4051
14667TIP3   OH265415   2.299   4.646   3.896 -0.2522  0.0137  0.8894
14667TIP3    H165416   2.255   4.618   3.977  0.5498 -3.0683  0.3690
14667TIP3    H265417   2.228   4.658   3.833 -0.6625 -0.9949  1.1387
14668TIP3   OH265418   1.425   6.059  12.744 -0.6907  0.0398 -0.3550
14668TIP3    H165419   1.379   6.110  12.678  0.8720  1.4093 -0.4500
14668TIP3    H265420   1.414   6.108  12.825  0.4353  0.3300 -0.3540
14669TIP3   OH265421   6.355   2.793   2.613 -0.1140  0.4168 -0.1281
14669TIP3    H165422   6.275   2.838   2.639 -0.6121 -0.4306 -0.1280
14669TIP3    H265423   6.336   2.700   2.629 -0.8662 -0.3701 -4.3206
14670TIP3   OH265424   4.375   3.257   4.244 -0.2240 -0.0437 -0.2178
14670TIP3    H165425   4.319   3.228   4.173 -0.0132  0.4446 -0.5906
14670TIP3    H265426   4.373   3.186   4.308  0.2174 -0.8328 -1.0707
14671TIP3   OH265427   1.980   6.404   1.414  0.5143  0.0223  0.5437
14671TIP3    H165428   2.001   6.346   1.488 -0.1392  0.9662  1.4900
14671TIP3    H265429   2.059   6.404   1.361  0.5481 -1.7200  0.5217
14672TIP3   OH265430   2.861   5.042   5.194  0.0861 -0.1903  0.0588
14672TIP3    H165431   2.840   4.974   5.258 -0.5426  1.0036  1.1458
14672TIP3    H265432   2.810   5.019   5.117  1.5060 -2.1348 -0.3890
14673TIP3   OH265433   2.651   2.461  13.628 -0.0177  0.2671 -0.4049
14673TIP3    H165434   2.591   2.520  13.674 -0.5291 -0.3322 -0.2908
14673TIP3    H265435   2.594   2.407  13.573  0.2277 -1.3778  0.8915
14674TIP3   OH265436   1.145   3.353   2.094  0.6505 -0.0729 -0.1094
14674TIP3    H165437   1.051   3.337   2.104  0.6461 -0.6763 -1.0295
14674TIP3    H265438   1.186   3.274   2.129  0.7683 -0.3536 -0.8760
14675TIP3   OH265439   3.891   2.995   3.222 -0.3098  0.1891 -0.3871
14675TIP3    H165440   3.872   3.013   3.315 -1.1166 -2.3879  0.0313
14675TIP3    H265441   3.986   3.007   3.214 -0.0153 -0.8694  1.1351
14676TIP3   OH265442   6.200   2.281  15.148 -0.6412 -0.0512 -0.5773
14676TIP3    H165443   6.144   2.217  15.103 -2.2059  0.2233  0.8462
14676TIP3    H265444   6.180   2.269  15.241  0.6737  1.0186 -0.1207
14677TIP3   OH265445   3.191   4.925   4.118  0.1373 -0.3785 -0.6132
14677TIP3    H165446   3.146   4.841   4.106 -3.2236  1.2900 -0.6543
14677TIP3    H265447   3.229   4.919   4.205 -2.6913 -0.8988  0.6922
14678TIP3   OH265448   5.064   1.719  15.772  0.3295 -0.3933 -0.1729
14678TIP3    H165449   5.133   1.778  15.803  0.2887 -0.8347  0.7734
14678TIP3    H265450   5.087   1.702  15.681  0.2037  1.2856 -0.5492
14679TIP3   OH265451   4.497   2.334   6.415  0.0530 -0.3982  0.3311
14679TIP3    H165452   4.549   2.400   6.461  0.7866  0.0994 -1.1622
14679TIP3    H265453   4.424   2.382   6.377 -0.7292 -0.8622  1.2012
14680TIP3   OH265454   4.542   6.619   1.319  0.5694 -0.2591 -0.2764
14680TIP3    H165455   4.469   6.680   1.334  0.6936 -0.1766 -0.0041
14680TIP3    H265456   4.565   6.633   1.227 -0.6054 -1.2186 -0.7459
14681TIP3   OH265457   5.130   4.810   4.669 -0.4008 -0.1300 -0.6338
14681TIP3    H165458   5.140   4.834   4.761 -1.1916 -1.7083 -0.0990
14681TIP3    H265459   5.043   4.841   4.645  0.2295  1.2730 -1.2071
14682TIP3   OH265460   2.230   4.091   2.799  0.6281  0.4735 -0.2960
14682TIP3    H165461   2.214   4.118   2.709  1.1259  0.6072 -0.3502
14682TIP3    H265462   2.186   4.007   2.808 -0.8936  1.2383 -0.1544
14683TIP3   OH265463   2.416   2.507  17.220 -0.2906 -0.0690 -0.2234
14683TIP3    H165464   2.344   2.535  17.276 -0.1829 -0.2744  0.0209
14683TIP3    H265465   2.402   2.553  17.137  0.3467  1.3799  0.4321
14684TIP3   OH265466   1.419   1.500  13.763 -0.5971 -0.1757  0.0505
14684TIP3    H165467   1.345   1.466  13.712 -0.4091 -0.9692  0.2974
14684TIP3    H265468   1.486   1.519  13.698 -0.9585  0.4309 -0.1634
14685TIP3   OH265469   1.114   5.417   2.385  0.6519  1.0621  0.1478
14685TIP3    H165470   1.077   5.506   2.381 -0.4062  0.5842 -2.0381
14685TIP3    H265471   1.206   5.428   2.364 -0.1722  1.3824 -4.3856
14686TIP3   OH265472   0.347   1.298  17.051 -0.1416 -0.8295 -0.0184
14686TIP3    H165473   0.317   1.209  17.067 -0.1762 -0.7728  0.2414
14686TIP3    H265474   0.295   1.352  17.111 -0.6915 -0.5444 -0.7357
14687TIP3   OH265475   1.724   1.985   5.160  0.0356  0.8694  0.2368
14687TIP3    H165476   1.725   1.890   5.165 -0.1988  0.9020  1.0755
14687TIP3    H265477   1.704   2.005   5.069  2.0587  0.1150 -0.4324
14688TIP3   OH265478   3.344   3.221   2.240  0.2501  0.0458  0.5573
14688TIP3    H165479   3.304   3.180   2.163 -1.6476  0.1481  1.4135
14688TIP3    H265480   3.344   3.314   2.220  1.5600 -0.0715 -0.0752
14689TIP3   OH265481   6.745   5.604  11.919  0.3391  0.1504  0.1500
14689TIP3    H165482   6.665   5.649  11.945  0.6179  0.1211  1.1014
14689TIP3    H265483   6.739   5.517  11.959 -0.2042 -0.7012 -1.7062
14690TIP3   OH265484   0.143   2.514  17.320 -0.6056 -0.7812 -0.2944
14690TIP3    H165485   0.119   2.492  17.230 -2.3498 -0.6551  0.1155
14690TIP3    H265486   0.239   2.523  17.317 -0.7631  1.6373 -2.6968
14691TIP3   OH265487   3.204   2.277   2.260  0.2247  0.8123 -0.3861
14691TIP3    H165488   3.147   2.259   2.334  0.5386  0.4626 -0.2240
14691TIP3    H265489   3.200   2.372   2.248 -3.9709  0.5813 -3.2307
14692TIP3   OH265490   5.863   3.229   5.887 -0.0388  0.0048  0.1764
14692TIP3    H165491   5.800   3.293   5.854  1.2861  1.2113 -0.1433
14692TIP3    H265492   5.859   3.156   5.825 -0.6537  0.3528 -0.1985
14693TIP3   OH265493   1.288   0.791   3.857  0.0103 -0.9094  0.7551
14693TIP3    H165494   1.276   0.700   3.886 -4.8736 -1.0526 -0.8275
14693TIP3    H265495   1.278   0.843   3.937 -1.2221 -1.6653  1.1143
14694TIP3   OH265496   1.793   1.926  11.505  0.0844  0.4866 -0.5649
14694TIP3    H165497   1.701   1.950  11.496 -0.0573  0.2894  0.3253
14694TIP3    H265498   1.840   1.991  11.452 -0.3034  2.5980  1.5200
14695TIP3   OH265499   6.334   3.240   2.479 -0.1432 -0.3492  0.6550
14695TIP3    H165500   6.398   3.174   2.453  1.3304  1.6684 -1.1709
14695TIP3    H265501   6.379   3.323   2.468 -2.6605  1.1185  0.6340
14696TIP3   OH265502   6.417   5.967  14.862 -0.1405  0.5807  0.4149
14696TIP3    H165503   6.401   5.916  14.783 -1.8172  2.2053 -0.3777
14696TIP3    H265504   6.448   6.052  14.830  0.8891  0.6727  1.5976
14697TIP3   OH265505   1.593   4.468  12.852 -0.0057  0.0771 -0.4210
14697TIP3    H165506   1.603   4.513  12.769  1.0290 -1.0533 -0.9386
14697TIP3    H265507   1.681   4.462  12.888 -0.5275  1.3724  1.2449
14698TIP3   OH265508   1.034   3.422   5.213  0.2000  0.3028  0.0732
14698TIP3    H165509   0.944   3.390   5.213  0.3409 -0.1323 -1.2012
14698TIP3    H265510   1.069   3.394   5.298 -0.0733 -1.8409 -0.4590
14699TIP3   OH265511   1.727   2.853   0.325  0.2370  0.2182  0.3163
14699TIP3    H165512   1.659   2.876   0.261  0.2309 -2.6347 -0.9025
14699TIP3    H265513   1.773   2.934   0.342  0.2817  1.1802 -3.4662
14700TIP3   OH265514   5.246   5.267  15.610  0.1649  0.6800 -0.3622
14700TIP3    H165515   5.275   5.204  15.545  1.3340  1.2579 -0.4221
14700TIP3    H265516   5.260   5.223  15.694  2.2110  1.2909 -0.3326
14701TIP3   OH265517   0.557   5.475  16.355  0.0723 -0.1230  0.5554
14701TIP3    H165518   0.504   5.395  16.356  0.6779 -0.5315  0.6493
14701TIP3    H265519   0.520   5.529  16.424 -0.9743  0.1008 -0.1524
14702TIP3   OH265520   4.413   3.379  12.596 -0.0634  0.1888 -0.3120
14702TIP3    H165521   4.372   3.465  12.597  0.8825  0.6547  1.1916
14702TIP3    H265522   4.349   3.321  12.638  0.0454  0.5388  0.3454
14703TIP3   OH265523   2.086   4.724  15.488  0.0045 -0.3504  0.2000
14703TIP3    H165524   2.081   4.635  15.454  1.8757 -0.5481  0.3178
14703TIP3    H265525   2.125   4.775  15.416 -0.5228  0.2651  0.3369
14704TIP3   OH265526   1.664   2.249   6.458  0.4876  0.3418 -0.1765
14704TIP3    H165527   1.667   2.343   6.478  0.0459  0.3621 -0.1884
14704TIP3    H265528   1.654   2.207   6.544 -1.8560  0.4525 -0.3309
14705TIP3   OH265529   4.066   3.128   2.914  0.0344 -0.1894 -0.4224
14705TIP3    H165530   4.143   3.155   2.863  0.0281  2.2379  0.7054
14705TIP3    H265531   4.103   3.094   2.996 -0.0327  1.4194  0.3174
14706TIP3   OH265532   4.456   1.190   3.897 -0.0599  0.1743 -0.3361
14706TIP3    H165533   4.419   1.277   3.881 -0.0214  0.1091 -0.7885
14706TIP3    H265534   4.541   1.208   3.936 -0.2509  0.3334  0.0156
14707TIP3   OH265535   2.111   4.561  14.738  0.1260  0.5306  0.2543
14707TIP3    H165536   2.141   4.651  14.726 -0.0584  0.6070  0.3618
14707TIP3    H265537   2.183   4.507  14.707 -0.0310  0.7234 -0.4546
14708TIP3   OH265538   5.051   1.771   2.324 -0.1510 -0.9593  0.2740
14708TIP3    H165539   5.105   1.835   2.369 -1.3320  0.7709 -0.6237
14708TIP3    H265540   5.099   1.752   2.243  0.3913 -1.5432  0.7220
14709TIP3   OH265541   5.786   3.804  13.384 -0.4966  0.5212  0.0218
14709TIP3    H165542   5.744   3.731  13.338  2.0015  0.3186 -2.1720
14709TIP3    H265543   5.740   3.881  13.353  1.1575  0.3976 -3.1523
14710TIP3   OH265544   4.576   6.217   3.240  0.2162  0.5362 -0.2989
14710TIP3    H165545   4.662   6.180   3.255 -0.3338 -1.1018 -0.9237
14710TIP3    H265546   4.569   6.222   3.145 -0.6210 -0.0164 -0.2792
14711TIP3   OH265547   3.815   6.633  12.784  0.4699  0.1110  0.0892
14711TIP3    H165548   3.897   6.602  12.745  1.0610 -0.1008  1.4288
14711TIP3    H265549   3.831   6.725  12.803 -0.0442  0.3756 -0.7438
14712TIP3   OH265550   5.006   2.047  12.880 -0.0368  0.4146  0.1449
14712TIP3    H165551   4.951   2.041  12.803  1.8901 -0.0180 -1.2721
14712TIP3    H265552   5.040   2.136  12.879  0.9356  0.0603 -0.2375
14713TIP3   OH265553   1.445   6.568   4.375 -0.2024 -0.2638  0.4189
14713TIP3    H165554   1.428   6.496   4.314 -1.7521  0.4900 -0.0867
14713TIP3    H265555   1.370   6.567   4.434 -0.8882  1.6804 -0.3523
14714TIP3   OH265556   4.634   1.575  14.830  0.0131  0.0686  0.1726
14714TIP3    H165557   4.666   1.641  14.769  1.8755 -1.5340 -0.7112
14714TIP3    H265558   4.621   1.497  14.776 -0.0869 -0.8800  1.5067
14715TIP3   OH265559   0.499   1.613  16.042  0.0517  0.0317  0.5429
14715TIP3    H165560   0.553   1.689  16.062 -1.1552  0.6069  1.7417
14715TIP3    H265561   0.438   1.606  16.116  0.0621 -2.0430  0.4366
14716TIP3   OH265562   2.543   4.139   2.470  0.4921 -0.0793  0.0943
14716TIP3    H165563   2.593   4.086   2.532 -0.5535  1.0008  1.9584
14716TIP3    H265564   2.453   4.110   2.482  0.3800 -0.6122 -1.7815
14717TIP3   OH265565   5.174   1.036   1.219  0.0243 -0.7890  0.1704
14717TIP3    H165566   5.110   0.966   1.215 -2.8052  1.5917  0.2952
14717TIP3    H265567   5.173   1.074   1.131  2.4502 -1.5895 -0.2651
14718TIP3   OH265568   5.358   5.336  16.745 -0.1285 -0.0154 -0.5097
14718TIP3    H165569   5.424   5.405  16.732  0.9567 -0.7964  0.5593
14718TIP3    H265570   5.397   5.258  16.707  0.1070 -0.7500  1.1468
14719TIP3   OH265571   5.176   2.290  14.213 -0.1349  0.5826  0.4101
14719TIP3    H165572   5.219   2.205  14.219 -1.0880  0.1025  0.5816
14719TIP3    H265573   5.148   2.297  14.122 -1.3573  0.0511  0.7288
14720TIP3   OH265574   2.937   2.135   4.049 -0.1758 -0.3466  0.2223
14720TIP3    H165575   2.905   2.108   4.135  0.4566 -0.4320  0.4396
14720TIP3    H265576   3.014   2.080   4.033 -1.6321 -1.9962 -1.4674
14721TIP3   OH265577   1.540   6.424  13.297 -0.3390  0.4587 -0.0992
14721TIP3    H165578   1.595   6.351  13.270  1.2721  1.8272 -0.7082
14721TIP3    H265579   1.602   6.494  13.317 -1.7440  1.2178  1.9320
14722TIP3   OH265580   3.171   5.223   1.958 -0.9162  0.3192 -0.1592
14722TIP3    H165581   3.154   5.129   1.959 -0.3740  0.1892  2.3333
14722TIP3    H265582   3.259   5.232   1.995 -0.4535  1.7621 -1.4723
14723TIP3   OH265583   2.534   0.493  13.093 -0.4734 -0.1333 -0.0545
14723TIP3    H165584   2.516   0.402  13.071  0.1478 -0.4812  0.8269
14723TIP3    H265585   2.626   0.506  13.071 -0.1850 -0.1257  1.0785
14724TIP3   OH265586   1.667   3.858   0.787  0.5831 -0.2399 -0.1193
14724TIP3    H165587   1.700   3.923   0.726  0.3413  0.4255  0.4499
14724TIP3    H265588   1.605   3.806   0.736  0.7046  0.0363 -0.5518
14725TIP3   OH265589   5.467   2.714  15.941  0.2131 -0.1436 -0.2073
14725TIP3    H165590   5.436   2.680  16.025 -0.4766  1.2784  0.1523
14725TIP3    H265591   5.397   2.693  15.879  0.4983 -0.7616 -0.3174
14726TIP3   OH265592   0.642   4.400  12.119 -0.2063 -0.0268 -0.1077
14726TIP3    H165593   0.621   4.320  12.071 -0.1828  0.2389 -0.5623
14726TIP3    H265594   0.736   4.395  12.134  0.0097  0.4992 -1.2144
14727TIP3   OH265595   5.247   4.816   3.607  0.4484 -0.3421 -0.4982
14727TIP3    H165596   5.168   4.780   3.566 -0.0744  0.4444 -0.1980
14727TIP3    H265597   5.317   4.796   3.544  0.4497 -3.0637  0.2452
14728TIP3   OH265598   6.204   5.654   4.225  0.0746  0.1872 -0.5221
14728TIP3    H165599   6.118   5.656   4.182  0.4661  0.9776 -1.3019
14728TIP3    H265600   6.263   5.618   4.158  0.3884 -0.2070 -0.0435
14729TIP3   OH265601   6.342   5.682  13.569  0.0334 -0.1840 -0.0399
14729TIP3    H165602   6.326   5.591  13.595 -1.8100  1.0012  3.8090
14729TIP3    H265603   6.266   5.705  13.516  0.5393 -0.8727 -1.0877
14730TIP3   OH265604   5.491   4.310  11.398  0.1238  1.1033 -0.3707
14730TIP3    H165605   5.427   4.381  11.396  0.2287  1.2706  1.0804
14730TIP3    H265606   5.439   4.230  11.410  0.1652  1.3060  1.5477
14731TIP3   OH265607   5.853   3.757   5.727  0.5418 -0.2161 -0.6437
14731TIP3    H165608   5.784   3.750   5.660  0.3147 -1.3437 -0.3088
14731TIP3    H265609   5.909   3.828   5.695  0.2337 -0.4811 -1.8410
14732TIP3   OH265610   3.511   3.517   3.495  0.1016  0.3268  0.6072
14732TIP3    H165611   3.606   3.528   3.504  0.5131  0.3193 -2.4674
14732TIP3    H265612   3.480   3.604   3.469 -0.8228  0.3976  1.8656
14733TIP3   OH265613   1.206   4.441   6.612 -0.0573  0.5153 -0.0864
14733TIP3    H165614   1.201   4.468   6.521  1.0819  2.0199  0.2704
14733TIP3    H265615   1.291   4.396   6.619  0.2668  1.1921  0.4168
14734TIP3   OH265616   6.292   6.504   0.671  0.0586 -0.4866 -0.4201
14734TIP3    H165617   6.260   6.491   0.582 -1.0641  0.8717 -0.2443
14734TIP3    H265618   6.212   6.513   0.724  0.7154  0.5426  0.4283
14735TIP3   OH265619   6.087   0.643   3.114 -0.1025 -0.4936 -0.2496
14735TIP3    H165620   6.121   0.708   3.175  0.0143 -1.5100  0.8138
14735TIP3    H265621   5.992   0.656   3.115 -0.0998 -0.5036  0.1525
14736TIP3   OH265622   5.208   5.302   4.313 -0.2404 -0.3074  0.6109
14736TIP3    H165623   5.158   5.266   4.240 -0.7723 -1.3779  1.4701
14736TIP3    H265624   5.193   5.397   4.307  0.9966 -0.1749 -1.5516
14737TIP3   OH265625   2.932   4.348   5.671 -0.2086 -0.4689 -0.0163
14737TIP3    H165626   3.027   4.357   5.662 -0.0120 -0.9561  1.3927
14737TIP3    H265627   2.908   4.411   5.738 -0.4357 -2.2507  1.6716
14738TIP3   OH265628   5.371   2.069   5.689 -0.2115 -0.7256 -0.5212
14738TIP3    H165629   5.424   2.148   5.684  0.4187 -1.1298 -0.3428
14738TIP3    H265630   5.333   2.070   5.777  0.9856 -1.3631  0.0227
14739TIP3   OH265631   1.228   2.631   0.740  0.2408  0.1711 -0.1480
14739TIP3    H165632   1.266   2.557   0.787 -0.0005 -0.1595 -0.4739
14739TIP3    H265633   1.245   2.613   0.648 -0.6617  0.0404 -0.2951
14740TIP3   OH265634   6.143   2.116   5.991  0.0646 -0.8658 -0.4339
14740TIP3    H165635   6.106   2.117   6.079 -0.3484  1.7244 -0.5753
14740TIP3    H265636   6.149   2.208   5.966  1.7888 -1.4578 -2.4649
14741TIP3   OH265637   3.977   5.038   4.512 -0.4181  0.2402  0.3015
14741TIP3    H165638   3.916   5.090   4.564 -0.7229  0.3694 -0.1796
14741TIP3    H265639   4.003   5.097   4.441  0.9056  0.4740  0.9536
14742TIP3   OH265640   1.796   2.886  11.642 -0.5484 -0.3621 -0.3630
14742TIP3    H165641   1.823   2.973  11.612  0.4789 -0.6527 -0.3335
14742TIP3    H265642   1.721   2.864  11.587  0.0190 -0.0188 -1.3008
14743TIP3   OH265643   3.490   1.810   5.088 -0.3795 -0.7093 -0.0866
14743TIP3    H165644   3.570   1.787   5.039 -0.4694  0.1478 -0.6519
14743TIP3    H265645   3.454   1.726   5.115  2.0096 -1.0879  2.3362
14744TIP3   OH265646   0.744   2.912  13.592 -0.3700 -0.0484 -0.2515
14744TIP3    H165647   0.690   2.838  13.618 -0.4859 -0.5020 -1.7154
14744TIP3    H265648   0.784   2.885  13.509  1.8295  0.3980  0.5700
14745TIP3   OH265649   1.833   6.301  14.296 -0.3514  0.4157  0.3873
14745TIP3    H165650   1.890   6.371  14.264  2.2756 -0.8525  1.9866
14745TIP3    H265651   1.808   6.252  14.218  2.1903  0.0175 -0.2354
14746TIP3   OH265652   0.976   5.877   2.062 -0.1879  0.4992 -0.2013
14746TIP3    H165653   0.904   5.934   2.087  0.1130 -0.0480  2.1019
14746TIP3    H265654   0.935   5.791   2.049  0.0123  0.1667  1.2002
14747TIP3   OH265655   0.799   3.670  14.111  0.6114  0.2703 -0.1456
14747TIP3    H165656   0.880   3.622  14.094  1.5874  1.3970  1.0560
14747TIP3    H265657   0.791   3.730  14.037 -0.3693 -1.3371 -1.4133
14748TIP3   OH265658   3.853   2.280   3.888 -0.2042  0.3350  0.9533
14748TIP3    H165659   3.843   2.361   3.938 -0.5044  1.6958 -1.1812
14748TIP3    H265660   3.917   2.302   3.819  1.2653 -1.8613  1.5088
14749TIP3   OH265661   0.915   3.083   5.119 -0.0605 -0.1112 -0.7288
14749TIP3    H165662   1.006   3.100   5.142 -0.6863  1.5938  0.6652
14749TIP3    H265663   0.864   3.117   5.192 -1.8521 -0.7710 -1.5989
14750TIP3   OH265664   6.341   5.756  14.071 -0.1131  0.3977  0.2987
14750TIP3    H165665   6.323   5.784  13.982 -1.2180  0.1000  0.4132
14750TIP3    H265666   6.290   5.676  14.083 -1.7848  1.6154  1.8794
14751TIP3   OH265667   2.129   3.142  15.171  0.2008  0.4290  0.3531
14751TIP3    H165668   2.155   3.053  15.146  1.1347  0.4128  1.3133
14751TIP3    H265669   2.043   3.153  15.132  1.9931  0.9034 -4.0329
14752TIP3   OH265670   4.584   2.429  12.582 -0.2470  0.1870  0.4540
14752TIP3    H165671   4.552   2.514  12.550 -0.6534 -0.4494 -0.8662
14752TIP3    H265672   4.617   2.384  12.505 -1.0086 -1.2926  0.9417
14753TIP3   OH265673   2.068   5.072   2.230  0.1444  0.4197 -0.0498
14753TIP3    H165674   1.979   5.046   2.204  0.3546 -0.1640 -0.1944
14753TIP3    H265675   2.124   5.001   2.198  0.6002  0.5220  0.5108
14754TIP3   OH265676   6.336   5.295   6.583 -0.4619 -0.0355  0.0785
14754TIP3    H165677   6.309   5.207   6.556 -0.9538  0.0529  0.2654
14754TIP3    H265678   6.262   5.328   6.634  0.0043  0.2218  0.6035
14755TIP3   OH265679   2.545   2.604   5.582 -0.0668  0.0600 -0.4831
14755TIP3    H165680   2.541   2.540   5.511 -0.6971  2.0844 -2.4013
14755TIP3    H265681   2.455   2.631   5.595  0.0416 -0.2445  1.1424
14756TIP3   OH265682   5.692   4.823   3.744 -0.1307  0.4263 -0.2030
14756TIP3    H165683   5.608   4.778   3.743 -0.2302  0.5738 -2.1019
14756TIP3    H265684   5.756   4.756   3.723  0.4106  0.1068  2.1556
14757TIP3   OH265685   4.857   6.607  10.970 -0.0058 -0.4021 -0.5380
14757TIP3    H165686   4.877   6.701  10.976 -2.0117  0.0628 -0.6536
14757TIP3    H265687   4.931   6.565  11.015  0.0947  1.3253  1.0668
14758TIP3   OH265688   4.006   1.565   4.012 -0.0286  0.2008  0.0155
14758TIP3    H165689   4.095   1.561   3.977 -0.3491 -1.2033 -0.7237
14758TIP3    H265690   4.017   1.590   4.104  1.1278 -0.0479 -0.0406
14759TIP3   OH265691   5.344   1.396  13.113 -0.9917 -0.3776  0.5834
14759TIP3    H165692   5.375   1.400  13.203  0.8601  0.5069 -0.0461
14759TIP3    H265693   5.365   1.307  13.084  1.2144  0.2298  0.1388
14760TIP3   OH265694   2.211   5.545  15.175 -0.3678 -0.0693  0.9139
14760TIP3    H165695   2.282   5.483  15.193 -0.5824 -0.1623  1.4518
14760TIP3    H265696   2.131   5.493  15.179 -0.3730 -0.3202 -1.4185
14761TIP3   OH265697   5.110   2.063  13.599 -0.4558 -0.0971  0.4099
14761TIP3    H165698   5.143   2.142  13.642  1.8743  0.5847 -2.3013
14761TIP3    H265699   5.085   2.093  13.511 -2.5165 -1.8459  0.3231
14762TIP3   OH265700   2.676   0.097   5.152 -0.2004 -0.2006  0.7300
14762TIP3    H165701   2.639   0.185   5.140 -0.7590 -0.4739  0.4663
14762TIP3    H265702   2.770   0.109   5.136 -0.6614 -0.3135 -3.0859
14763TIP3   OH265703   3.329   6.325  11.192 -0.1078 -0.2220  0.4425
14763TIP3    H165704   3.280   6.405  11.210 -2.2199 -0.7386 -2.3078
14763TIP3    H265705   3.324   6.316  11.097  1.1849 -2.9525  0.5566
14764TIP3   OH265706   5.892   5.190  12.463  0.5207 -0.1074  0.6282
14764TIP3    H165707   5.892   5.188  12.367  2.5463  2.2048  0.4833
14764TIP3    H265708   5.916   5.100  12.488  0.9724 -0.5043 -1.0626
14765TIP3   OH265709   1.878   4.141  12.456  0.0782 -0.0722  0.2340
14765TIP3    H165710   1.883   4.149  12.551  1.6915  0.6493  0.1256
14765TIP3    H265711   1.942   4.205  12.423 -1.3767  0.6604 -1.3832
14766TIP3   OH265712   1.697   2.432  14.294  0.0328 -0.3560 -0.0532
14766TIP3    H165713   1.728   2.510  14.249 -0.2798 -0.3937 -0.3350
14766TIP3    H265714   1.651   2.382  14.227  0.0196 -0.6647  0.1848
14767TIP3   OH265715   1.057   0.905  10.992 -0.2489 -0.3840  0.2863
14767TIP3    H165716   1.087   0.818  11.021 -0.2585 -0.0762  1.2572
14767TIP3    H265717   1.138   0.950  10.967 -0.4013 -1.2803 -2.0223
14768TIP3   OH265718   1.931   0.824  14.432  0.1641 -0.5418  0.4658
14768TIP3    H165719   2.019   0.820  14.469 -0.2667 -0.8966  1.5181
14768TIP3    H265720   1.935   0.893  14.366  0.9594  0.1836  1.2503
14769TIP3   OH265721   2.343   3.305  15.693 -0.0603  0.2121  0.3752
14769TIP3    H165722   2.279   3.348  15.637  1.6742  1.5452 -0.7136
14769TIP3    H265723   2.350   3.216  15.658  0.3570  0.7691 -1.0295
14770TIP3   OH265724   2.110   1.014   3.054  0.0677  0.2755  0.0630
14770TIP3    H165725   2.058   0.936   3.035  1.5024 -0.7284  0.0438
14770TIP3    H265726   2.183   0.982   3.107  0.7526  1.5883 -0.0365
14771TIP3   OH265727   4.872   4.508  11.765 -0.0987 -0.2096  0.5696
14771TIP3    H165728   4.805   4.568  11.799 -0.4499 -0.1675 -0.1847
14771TIP3    H265729   4.955   4.553  11.781 -0.3407  0.3721  0.2249
14772TIP3   OH265730   1.787   1.840   0.876  0.3571  0.0610 -1.0524
14772TIP3    H165731   1.703   1.884   0.865  0.3020  1.3307  2.6993
14772TIP3    H265732   1.839   1.903   0.927  2.0481 -2.3023  0.3021
14773TIP3   OH265733   6.564   0.003  13.689  0.3868 -0.4711  0.1299
14773TIP3    H165734   6.588  -0.019  13.599 -2.9626  3.0962 -1.9309
14773TIP3    H265735   6.496  -0.061  13.712  0.7229 -0.9299 -0.1328
14774TIP3   OH265736   3.357   4.872   0.438  0.4403 -0.5947 -0.2899
14774TIP3    H165737   3.408   4.929   0.496  1.4042 -1.4827 -0.2311
14774TIP3    H265738   3.266   4.893   0.458  0.7684  0.0121  0.6427
14775TIP3   OH265739   6.522   3.001   2.567  0.4145 -0.5957  0.2013
14775TIP3    H165740   6.581   2.986   2.641  1.7605 -0.6456 -0.8393
14775TIP3    H265741   6.450   2.940   2.581 -0.1387  0.4330  2.2381
14776TIP3   OH265742   5.222   2.669   0.415  0.1026 -0.4239  0.0571
14776TIP3    H165743   5.258   2.747   0.372 -1.8426  1.8870  2.3648
14776TIP3    H265744   5.273   2.660   0.495 -1.4517  0.1689  1.1410
14777TIP3   OH265745   1.611   1.846   6.412  0.1867  0.0084  0.5621
14777TIP3    H165746   1.539   1.799   6.455 -0.5363  0.8842  0.3623
14777TIP3    H265747   1.586   1.846   6.319  0.9728 -0.5637  0.3461
14778TIP3   OH265748   6.043   4.693  10.835 -0.1609  0.2237 -0.2076
14778TIP3    H165749   6.036   4.667  10.743 -0.9060  3.2201 -1.1295
14778TIP3    H265750   5.959   4.668  10.873 -0.6430  0.7472 -0.8982
14779TIP3   OH265751   1.098   1.199  13.654  0.1434  0.1572  0.4070
14779TIP3    H165752   1.104   1.251  13.734 -1.0637  0.4646  0.3186
14779TIP3    H265753   1.036   1.129  13.675  0.4369 -0.2362 -0.0113
14780TIP3   OH265754   1.565   5.938   0.685  0.1643  0.3025 -0.2483
14780TIP3    H165755   1.530   5.983   0.608 -0.3026 -2.3638 -1.7234
14780TIP3    H265756   1.658   5.927   0.665  0.4686  1.4164  0.5343
14781TIP3   OH265757   4.248   3.575  16.824  0.0602  0.6424 -0.2178
14781TIP3    H165758   4.307   3.520  16.877  0.1001 -0.0920 -0.9986
14781TIP3    H265759   4.289   3.661  16.824  1.1864  0.1372 -0.7769
14782TIP3   OH265760   6.411   1.390  14.799  0.6451 -0.3791 -0.1182
14782TIP3    H165761   6.328   1.427  14.829  0.0079 -2.4671  0.8577
14782TIP3    H265762   6.440   1.450  14.730 -1.0439  1.0727  0.3582
14783TIP3   OH265763   5.333   0.153   2.156  0.1063  0.2187 -0.4401
14783TIP3    H165764   5.386   0.229   2.180  0.6849 -0.1600 -0.4779
14783TIP3    H265765   5.276   0.139   2.232 -0.0430  0.7189 -0.4570
14784TIP3   OH265766   1.789   3.461  16.443 -0.2736  0.4618 -0.1692
14784TIP3    H165767   1.741   3.460  16.359 -0.2560  0.9015 -0.1882
14784TIP3    H265768   1.728   3.501  16.505 -0.8587 -1.2242  0.3925
14785TIP3   OH265769   2.468   1.632  15.866 -0.2841 -0.9531  0.7400
14785TIP3    H165770   2.550   1.680  15.877  0.1686 -0.7268 -2.6910
14785TIP3    H265771   2.407   1.697  15.832 -0.7622 -1.9635 -0.3795
14786TIP3   OH265772   0.996   3.326  11.117  0.2103 -0.1208 -0.0975
14786TIP3    H165773   0.926   3.392  11.118  0.2659 -0.0538  1.1775
14786TIP3    H265774   1.062   3.363  11.059  0.5043  1.2685  1.0636
14787TIP3   OH265775   4.175   6.299  15.201 -0.1397 -0.0169  0.2721
14787TIP3    H165776   4.101   6.238  15.209 -0.0875 -0.1807 -0.4115
14787TIP3    H265777   4.138   6.385  15.224 -0.6536 -0.0314 -0.4668
14788TIP3   OH265778   5.496   0.075  13.479  0.5471  0.0003 -0.5445
14788TIP3    H165779   5.559   0.121  13.423 -0.9943  1.1951 -1.3948
14788TIP3    H265780   5.414   0.123  13.467 -0.4572 -1.2841  0.7870
14789TIP3   OH265781   2.344   1.479   0.444 -0.5854  0.2416  0.1750
14789TIP3    H165782   2.346   1.541   0.372 -0.8528  1.2593  1.0220
14789TIP3    H265783   2.252   1.476   0.471 -0.2809  0.9206  1.3441
14790TIP3   OH265784   5.062   2.800   1.752 -0.4214  0.1420  0.2479
14790TIP3    H165785   5.083   2.893   1.745 -3.0010  0.7608 -0.5655
14790TIP3    H265786   5.077   2.765   1.664 -0.2995 -0.0135  0.3291
14791TIP3   OH265787   2.348   1.976   1.459 -0.2050  0.1054  0.2422
14791TIP3    H165788   2.372   1.992   1.550 -0.0509  0.7563  0.0910
14791TIP3    H265789   2.316   1.886   1.458 -0.8628  0.3152  1.0755
14792TIP3   OH265790   6.351   1.755  13.683 -0.5580 -0.2749  0.5284
14792TIP3    H165791   6.259   1.771  13.700 -0.8762  0.2944 -1.5040
14792TIP3    H265792   6.358   1.660  13.677 -1.2495 -0.2779 -0.4116
14793TIP3   OH265793   3.158   5.725  13.917  0.2126 -0.0387  0.0381
14793TIP3    H165794   3.182   5.807  13.958  0.0796  0.5530 -1.0265
14793TIP3    H265795   3.142   5.748  13.825  1.4480 -1.4640 -0.5829
14794TIP3   OH265796   3.771   2.437   3.470  0.2599  0.0051 -0.3993
14794TIP3    H165797   3.849   2.400   3.428 -0.5145 -0.7346 -1.2194
14794TIP3    H265798   3.709   2.364   3.474 -0.3760  0.5719  0.2978
14795TIP3   OH265799   3.646   4.915  16.692 -0.1570  0.0447 -0.4149
14795TIP3    H165800   3.706   4.979  16.654 -0.4572  0.5683 -0.0319
14795TIP3    H265801   3.696   4.874  16.762  0.5633 -1.2759 -1.6691
14796TIP3   OH265802   6.363   0.895  15.801 -0.2230 -0.1663  0.0021
14796TIP3    H165803   6.305   0.964  15.769  1.4824  0.6175 -1.6115
14796TIP3    H265804   6.372   0.913  15.894 -0.6435  1.1541 -0.1827
14797TIP3   OH265805   5.470   1.901   0.155 -0.0393  0.2744 -0.3190
14797TIP3    H165806   5.393   1.926   0.104  0.2983  0.5444 -0.7055
14797TIP3    H265807   5.542   1.948   0.114  0.2657  0.3654  0.3157
14798TIP3   OH265808   6.351   2.053   3.167  0.3841  0.2507 -0.5528
14798TIP3    H165809   6.429   2.022   3.120 -0.2166  1.5485 -2.5673
14798TIP3    H265810   6.289   1.980   3.162  0.9084 -0.2141 -0.3510
14799TIP3   OH265811   4.026   0.055   1.064 -0.0772 -0.1076  0.0210
14799TIP3    H165812   4.086   0.096   1.126 -0.2372 -0.0123  0.1132
14799TIP3    H265813   3.940   0.062   1.105  0.0431 -1.5572  0.5552
14800TIP3   OH265814   2.285   0.315  14.050  0.5127 -0.2789 -0.1738
14800TIP3    H165815   2.370   0.304  14.008  0.2531 -0.8422 -0.5671
14800TIP3    H265816   2.274   0.236  14.104  0.5963  0.1732  0.5171
14801TIP3   OH265817   3.433   1.097   4.563  0.3606  0.3808 -0.2430
14801TIP3    H165818   3.523   1.111   4.535  0.6633 -1.6792 -0.4713
14801TIP3    H265819   3.388   1.065   4.485  0.0308 -0.8259  0.4186
14802TIP3   OH265820   2.860   6.300  13.621 -0.4799 -0.1322 -0.4296
14802TIP3    H165821   2.892   6.266  13.538  1.2346 -3.0428  1.2201
14802TIP3    H265822   2.931   6.355  13.653  0.1637 -1.3232  0.2962
14803TIP3   OH265823   4.310   6.165   4.743  0.0120 -0.2124  0.4079
14803TIP3    H165824   4.344   6.162   4.654  1.1028  3.0807  0.5459
14803TIP3    H265825   4.216   6.181   4.733  0.3412  1.5077 -0.2435
14804TIP3   OH265826   3.611   1.787   2.962  0.1797 -0.9803  0.3446
14804TIP3    H165827   3.674   1.809   2.893  0.5073 -2.3184  0.2029
14804TIP3    H265828   3.594   1.871   3.005  0.4928 -0.2392 -0.9183
14805TIP3   OH265829   2.951   3.943  14.487 -0.5984 -0.3551  0.6535
14805TIP3    H165830   2.958   3.852  14.456 -0.6161 -0.6689  1.5608
14805TIP3    H265831   2.862   3.950  14.520 -0.9098  0.2824 -0.2847
14806TIP3   OH265832   0.428   6.704  11.723 -0.5253 -0.2824  0.5719
14806TIP3    H165833   0.468   6.750  11.797  0.3379 -1.0419  0.6090
14806TIP3    H265834   0.503   6.678  11.669 -1.1373  0.0964 -0.4732
14807TIP3   OH265835   3.427   4.931  12.852  0.1244 -0.0428  0.0975
14807TIP3    H165836   3.504   4.903  12.802  0.3277 -0.8121  0.8051
14807TIP3    H265837   3.372   4.853  12.856 -0.8573  0.5912 -0.6735
14808TIP3   OH265838   5.653   2.098   2.261 -0.0022  0.1188 -0.2345
14808TIP3    H165839   5.642   2.056   2.176  0.2674  0.2395 -0.3298
14808TIP3    H265840   5.616   2.036   2.324  0.7640 -0.4541 -0.3278
14809TIP3   OH265841   0.290   2.843  11.470 -0.1746  0.2837 -0.4119
14809TIP3    H165842   0.384   2.840  11.452 -0.3843 -0.6140 -1.5311
14809TIP3    H265843   0.279   2.790  11.549  0.2272  0.0843 -0.4870
14810TIP3   OH265844   2.830   0.344  13.666  0.4148  0.6920 -0.1574
14810TIP3    H165845   2.757   0.318  13.610  0.7702  0.3968 -0.4952
14810TIP3    H265846   2.813   0.301  13.749  1.0417 -0.7271 -0.7351
14811TIP3   OH265847   1.719   1.579  15.580 -0.4230 -0.2657 -0.6108
14811TIP3    H165848   1.695   1.642  15.512 -1.2091 -0.7022 -0.7485
14811TIP3    H265849   1.815   1.583  15.583 -0.3876 -0.0463 -1.5555
14812TIP3   OH265850   3.646   3.890   0.514  0.0313 -0.3189 -0.7561
14812TIP3    H165851   3.571   3.947   0.494 -0.2883 -0.4068  0.1175
14812TIP3    H265852   3.723   3.941   0.490 -0.2637  0.3695 -0.2568
14813TIP3   OH265853   1.923   4.092   2.441  0.7536 -0.1694 -0.0343
14813TIP3    H165854   1.856   4.026   2.422  1.3112 -0.6679 -0.2903
14813TIP3    H265855   1.929   4.144   2.361  1.2115 -0.6064 -0.2905
14814TIP3   OH265856   0.492   0.532   2.884  0.4105  0.4203  0.1609
14814TIP3    H165857   0.437   0.610   2.890 -1.3537 -0.8302  1.2237
14814TIP3    H265858   0.535   0.526   2.969 -1.1705 -0.8992  0.9250
14815TIP3   OH265859   4.684   3.229  11.597 -0.0210  0.8017 -0.1690
14815TIP3    H165860   4.657   3.251  11.508  0.4682 -0.7624 -0.7459
14815TIP3    H265861   4.742   3.153  11.586  0.0959  0.6202  1.4828
14816TIP3   OH265862   1.754   1.489  13.784 -0.0663  0.6252 -0.3786
14816TIP3    H165863   1.747   1.450  13.696  0.4826  0.5739 -0.4036
14816TIP3    H265864   1.765   1.583  13.768 -1.9917  0.9102 -0.3053
14817TIP3   OH265865   5.509   3.403   3.009  0.0999  0.0657 -0.1322
14817TIP3    H165866   5.499   3.313   3.042 -0.3861 -0.5366 -1.7652
14817TIP3    H265867   5.487   3.459   3.083  0.4617 -1.1601  0.9439
14818TIP3   OH265868   1.942   4.108  12.729  0.2408 -0.0679 -0.4183
14818TIP3    H165869   1.973   4.017  12.732 -0.2443 -0.2108  0.2836
14818TIP3    H265870   1.915   4.128  12.818 -0.8443  0.3537 -0.8267
14819TIP3   OH265871   0.176   0.424   0.295  0.2975 -0.1828  0.3947
14819TIP3    H165872   0.220   0.508   0.311 -0.9398  0.5914 -0.0835
14819TIP3    H265873   0.243   0.358   0.314  1.4787  0.9159  0.2602
14820TIP3   OH265874   0.474   3.300  13.253 -0.5114 -0.5419 -0.0444
14820TIP3    H165875   0.514   3.381  13.222  2.0790 -2.2963 -1.6382
14820TIP3    H265876   0.500   3.295  13.345  0.3951 -0.1561 -0.2663
14821TIP3   OH265877   1.679   1.297  13.503 -0.2683 -0.0907 -0.1451
14821TIP3    H165878   1.623   1.301  13.425 -1.1908  2.0432  0.5566
14821TIP3    H265879   1.627   1.251  13.568 -0.8106  0.9151  0.1581
14822TIP3   OH265880   1.804   5.399   0.760  0.3443  0.2116  0.0421
14822TIP3    H165881   1.881   5.448   0.730 -0.5082  1.4145 -0.2743
14822TIP3    H265882   1.757   5.461   0.816  0.9707 -1.3874  2.4636
14823TIP3   OH265883   1.549   0.295  12.979  0.3167 -0.5222 -1.0396
14823TIP3    H165884   1.620   0.319  12.919  0.4164 -2.5406 -1.7858
14823TIP3    H265885   1.470   0.301  12.926  0.3808 -2.0716 -1.3635
14824TIP3   OH265886   1.509   2.036  12.464  0.2840 -0.0134 -0.3048
14824TIP3    H165887   1.480   1.945  12.472 -0.2228  0.0932 -0.8423
14824TIP3    H265888   1.509   2.053  12.370  1.2673  0.2663 -0.2590
14825TIP3   OH265889   2.038   5.783  12.887 -0.0013  0.0465 -0.6206
14825TIP3    H165890   2.018   5.689  12.890  0.1594  0.0387  0.5896
14825TIP3    H265891   2.082   5.801  12.970  2.2263  0.6927 -1.8506
14826TIP3   OH265892   6.562   2.168  15.964 -0.7572  0.7669 -0.1173
14826TIP3    H165893   6.537   2.076  15.962 -1.3775  0.8731  1.3639
14826TIP3    H265894   6.494   2.213  15.915 -1.1488  0.5753  0.2526
14827TIP3   OH265895   2.201   2.641  15.463  0.3470  0.6090 -0.8234
14827TIP3    H165896   2.242   2.559  15.490 -0.0799  0.5384 -0.3750
14827TIP3    H265897   2.274   2.703  15.457  0.6143  0.3054 -0.7409
14828TIP3   OH265898   5.207   3.983  16.472 -0.2851  0.4608 -0.6165
14828TIP3    H165899   5.114   3.959  16.480  0.2825 -1.5461  0.6817
14828TIP3    H265900   5.207   4.079  16.473 -2.2167  0.5335  1.6185
14829TIP3   OH265901   4.018   0.063  16.717  0.9696 -0.3937  0.4681
14829TIP3    H165902   3.981  -0.012  16.669  3.9826 -0.5043 -2.0191
14829TIP3    H265903   4.065   0.023  16.790 -0.1002 -0.5832  1.0857
14830TIP3   OH265904   3.403   1.464  16.515  0.5280  0.5209  0.0695
14830TIP3    H165905   3.458   1.442  16.440  1.4576  0.6992  0.6923
14830TIP3    H265906   3.444   1.420  16.590  0.4152  1.4924  0.7243
14831TIP3   OH265907   6.073   3.154   2.125 -0.3963 -0.1193  0.0226
14831TIP3    H165908   6.090   3.115   2.039 -0.6986  2.5780 -1.3742
14831TIP3    H265909   5.980   3.177   2.122 -0.1533  0.9987  0.6020
14832TIP3   OH265910   5.466   2.613  14.272 -0.3593  0.0160  0.4640
14832TIP3    H165911   5.489   2.630  14.364  0.5623  0.2186  0.2060
14832TIP3    H265912   5.508   2.530  14.251  1.6038  1.1823 -0.4911
14833TIP3   OH265913   4.196   2.764  12.544 -0.0982  0.0827  0.4699
14833TIP3    H165914   4.143   2.803  12.614  0.9306  0.8041  0.8753
14833TIP3    H265915   4.217   2.837  12.486 -0.7579 -0.4699 -0.4924
14834TIP3   OH265916   0.289   1.257  15.233  0.3576 -0.0911 -0.2563
14834TIP3    H165917   0.212   1.296  15.193  0.5635  1.0210  0.4110
14834TIP3    H265918   0.268   1.163  15.238 -1.5161  0.3486  1.1442
14835TIP3   OH265919   4.715   2.883   0.800  0.2199 -0.1388 -0.5275
14835TIP3    H165920   4.645   2.848   0.855 -0.8672  2.3862 -0.1327
14835TIP3    H265921   4.704   2.839   0.716 -2.9163  1.1945 -0.9641
14836TIP3   OH265922   3.598   5.978  17.369 -0.0564 -0.1326  0.7962
14836TIP3    H165923   3.617   5.964  17.276 -0.6643  0.0755  0.6381
14836TIP3    H265924   3.681   5.959  17.413  0.5267  0.7379  0.1231
14837TIP3   OH265925   3.363   2.513   3.509 -0.6307 -0.3102  0.2807
14837TIP3    H165926   3.357   2.440   3.448 -1.2776  0.1690 -0.2521
14837TIP3    H265927   3.429   2.571   3.472  0.3333 -0.9022  1.0256
14838TIP3   OH265928   2.745   6.664  14.570  0.2064  0.5595 -0.4153
14838TIP3    H165929   2.664   6.659  14.620  0.4139  1.4256  0.0242
14838TIP3    H265930   2.737   6.744  14.519 -0.4738 -0.8140 -2.6534
14839TIP3   OH265931   2.297   5.402   0.548  0.5248 -0.0345 -0.3053
14839TIP3    H165932   2.327   5.331   0.605  0.6661  0.2560 -0.0130
14839TIP3    H265933   2.283   5.476   0.608  0.3791  0.1831 -0.6068
14840TIP3   OH265934   4.151   2.340  16.726 -0.0702  0.5297  0.1659
14840TIP3    H165935   4.216   2.374  16.789 -1.0575  1.8542  0.5172
14840TIP3    H265936   4.067   2.363  16.764 -0.7124  0.4529 -1.1692
14841TIP3   OH265937   1.936   4.891   4.416  0.1380 -0.4547 -0.5273
14841TIP3    H165938   1.851   4.934   4.426  0.3994 -0.1983  0.8713
14841TIP3    H265939   1.985   4.917   4.494  1.1536 -1.3924 -0.8269
14842TIP3   OH265940   4.834   1.267   4.458 -0.2095 -0.5682  0.0105
14842TIP3    H165941   4.812   1.266   4.552 -0.9730 -1.1553 -0.1632
14842TIP3    H265942   4.874   1.181   4.442 -1.1550 -0.9457 -0.4289
14843TIP3   OH265943   4.871   3.983   5.195  0.0673  1.0791 -0.1287
14843TIP3    H165944   4.925   4.054   5.231 -0.5847  1.8374 -0.6172
14843TIP3    H265945   4.931   3.933   5.139  0.8972  0.3580  1.3372
14844TIP3   OH265946   6.430   6.660  15.705 -0.1291 -0.2652  0.9642
14844TIP3    H165947   6.444   6.741  15.754  0.2568 -0.2083  0.7614
14844TIP3    H265948   6.425   6.687  15.614  0.5951 -0.5385  0.8398
14845TIP3   OH265949   1.370   6.639   3.959 -0.1191 -0.5799  0.1079
14845TIP3    H165950   1.345   6.689   4.037  1.4221  3.7337 -1.8797
14845TIP3    H265951   1.286   6.606   3.925 -1.5222  1.8771  0.8874
14846TIP3   OH265952   0.092   0.397  12.355 -0.7013 -0.2422  0.2967
14846TIP3    H165953   0.083   0.324  12.417 -2.5671  1.0024  1.6034
14846TIP3    H265954   0.073   0.358  12.269  1.3827 -1.8801  0.4936
14847TIP3   OH265955   0.773   2.165   6.592  0.3349 -0.4402 -0.3146
14847TIP3    H165956   0.854   2.210   6.616 -0.8629  1.4499  0.4536
14847TIP3    H265957   0.797   2.073   6.588  2.0082 -0.2508  2.4109
14848TIP3   OH265958   4.208   3.771   2.249  0.1240 -0.6812  0.2452
14848TIP3    H165959   4.298   3.781   2.218  0.2998 -1.1763  0.5849
14848TIP3    H265960   4.211   3.697   2.309 -0.5131 -0.7045  0.2600
14849TIP3   OH265961   5.622   6.026  12.448 -0.1358 -0.2617  0.5411
14849TIP3    H165962   5.632   6.118  12.473 -1.6256  0.3274 -0.8536
14849TIP3    H265963   5.539   6.023  12.400  1.0782 -1.8343 -1.6293
14850TIP3   OH265964   3.362   3.296   4.901  0.2391  0.4533 -0.2046
14850TIP3    H165965   3.355   3.217   4.955  0.4125  0.5508 -0.0395
14850TIP3    H265966   3.275   3.335   4.905  0.1914  0.3459 -0.1731
14851TIP3   OH265967   2.243   2.070  15.493  0.0143  0.5895  0.4533
14851TIP3    H165968   2.171   2.082  15.430  0.6207  0.4755 -0.2781
14851TIP3    H265969   2.261   1.976  15.490 -0.7471  0.3706  1.7156
14852TIP3   OH265970   5.936   2.749  15.855  0.3112 -0.5303 -0.1781
14852TIP3    H165971   5.936   2.672  15.912  2.1049  0.1779  0.8655
14852TIP3    H265972   5.955   2.822  15.913 -0.3910  0.5770 -1.3037
14853TIP3   OH265973   4.131   1.203   0.755  0.0176 -0.5851  0.1655
14853TIP3    H165974   4.180   1.141   0.810  2.3788  1.1864  0.2207
14853TIP3    H265975   4.180   1.206   0.673  0.0198  1.1994  0.1883
14854TIP3   OH265976   2.121   3.912  16.278  0.6703  0.2884 -0.0694
14854TIP3    H165977   2.182   3.879  16.344 -1.0291  1.0304  1.9986
14854TIP3    H265978   2.050   3.849  16.278 -0.3125  1.3526  0.3721
14855TIP3   OH265979   6.440   0.032   6.556 -0.4323 -0.2330  0.4077
14855TIP3    H165980   6.516   0.083   6.583 -1.5392  1.5298  0.3224
14855TIP3    H265981   6.411  -0.013   6.636  0.8051 -1.1253  0.3844
14856TIP3   OH265982   2.722   0.683  15.737  0.1677  0.1175  0.2059
14856TIP3    H165983   2.696   0.601  15.697 -2.2524 -0.0664  1.9215
14856TIP3    H265984   2.674   0.750  15.688  0.9921  0.3740 -0.2593
14857TIP3   OH265985   6.719   4.948  15.462  0.2502  0.1163 -0.2790
14857TIP3    H165986   6.659   4.974  15.392 -1.4606 -2.6803  0.0203
14857TIP3    H265987   6.758   5.031  15.492 -1.2463  1.7196 -2.4406
14858TIP3   OH265988   4.651   5.767   3.782 -0.7640  0.5263  0.1666
14858TIP3    H165989   4.661   5.733   3.693  1.4726 -1.5348  1.1154
14858TIP3    H265990   4.573   5.723   3.816 -0.6286  0.0055 -0.1954
14859TIP3   OH265991   4.033   5.872  12.494  0.2681  0.1769  0.1942
14859TIP3    H165992   3.999   5.856  12.582 -0.6947 -2.2786 -0.5313
14859TIP3    H265993   3.991   5.955  12.467  0.0759  0.6268  1.7732
14860TIP3   OH265994   2.989   0.622   5.631 -0.4624  0.2913  0.0067
14860TIP3    H165995   2.999   0.613   5.726  0.4848  1.6571  0.0739
14860TIP3    H265996   2.956   0.711   5.619  2.0248  1.1863 -1.0273
14861TIP3   OH265997   3.855   0.534  14.487 -0.1386 -0.4709 -0.3589
14861TIP3    H165998   3.917   0.546  14.415 -0.3083  1.7008 -0.2149
14861TIP3    H265999   3.906   0.491  14.555  0.9174  0.2863 -0.6492
14862TIP3   OH266000   0.292   2.946   1.092  1.0007  0.4797 -0.2135
14862TIP3    H166001   0.305   2.871   1.151 -5.3230 -0.8882  0.1179
14862TIP3    H266002   0.309   2.910   1.005 -0.1973 -0.9081  0.0765
14863TIP3   OH266003   5.539   2.531   0.121 -0.2399 -0.2092  0.4125
14863TIP3    H166004   5.567   2.619   0.144  2.1998 -0.8360  0.0930
14863TIP3    H266005   5.602   2.502   0.055 -0.1874 -2.6643  1.4311
14864TIP3   OH266006   4.384   2.042   4.781  0.1365 -0.3725 -0.0736
14864TIP3    H166007   4.332   1.990   4.719 -0.8828 -0.0680  0.4916
14864TIP3    H266008   4.394   2.127   4.738 -2.0620  0.4305  0.8292
14865TIP3   OH266009   3.402   5.594  14.605  0.3520  0.3302 -0.4620
14865TIP3    H166010   3.447   5.650  14.542  0.7573  0.7218  0.1660
14865TIP3    H266011   3.316   5.634  14.615  0.2125  0.1493 -0.9146
14866TIP3   OH266012   5.987   5.098   4.196  0.0405  1.0470 -0.7012
14866TIP3    H166013   6.012   5.047   4.274 -1.6794  1.5098  0.1908
14866TIP3    H266014   5.910   5.147   4.223  0.4921  2.6491 -2.1585
14867TIP3   OH266015   3.347   4.924  12.526 -0.3520  0.2594 -0.2182
14867TIP3    H166016   3.431   4.907  12.568 -1.1688 -0.6030  1.1641
14867TIP3    H266017   3.313   5.001  12.571 -0.0879  0.9238 -1.1339
14868TIP3   OH266018   2.486   2.456   5.351 -0.1955  0.3504 -0.2229
14868TIP3    H166019   2.546   2.382   5.343 -0.2048  0.3563 -0.3507
14868TIP3    H266020   2.440   2.459   5.267 -0.8506 -0.0652  0.1113
14869TIP3   OH266021   2.187   1.689   5.699  0.0528 -0.6071  0.3368
14869TIP3    H166022   2.238   1.763   5.733 -2.6886  0.2831  2.8901
14869TIP3    H266023   2.159   1.641   5.777 -2.7590 -1.1483 -0.8782
14870TIP3   OH266024   2.842   0.579  15.968 -0.1048  0.0910  0.1302
14870TIP3    H166025   2.797   0.597  15.885  0.9547 -0.3427 -0.5485
14870TIP3    H266026   2.922   0.631  15.964 -0.4110  0.6887  1.2400
14871TIP3   OH266027   4.211   2.128   1.668  0.2125  0.2512  0.2035
14871TIP3    H166028   4.164   2.202   1.630  0.7065  0.4369 -0.0575
14871TIP3    H266029   4.158   2.102   1.743 -0.6894 -0.0319 -0.5264
14872TIP3   OH266030   4.161   3.886  14.402 -0.4105 -0.5488  0.5302
14872TIP3    H166031   4.191   3.952  14.340  2.1939  0.8741  3.0402
14872TIP3    H266032   4.115   3.821  14.349  1.4944  0.6137 -2.7993
14873TIP3   OH266033   6.647   4.854  12.806 -0.0679  0.0819  0.2195
14873TIP3    H166034   6.681   4.894  12.886 -0.4075 -0.7461  0.7953
14873TIP3    H266035   6.723   4.811  12.767  0.3873  1.5480 -0.6070
14874TIP3   OH266036   6.285   2.584   3.539 -0.1571 -0.5635  0.5773
14874TIP3    H166037   6.365   2.562   3.491 -1.2000 -2.8533 -0.2947
14874TIP3    H266038   6.218   2.594   3.470 -1.5175 -3.1357  1.3914
14875TIP3   OH266039   2.444   4.393   4.711 -0.4859 -0.0288 -0.8181
14875TIP3    H166040   2.500   4.354   4.643 -0.9371 -0.0459 -1.1880
14875TIP3    H266041   2.464   4.343   4.790 -0.0222 -0.0741 -0.9605
14876TIP3   OH266042   2.484   4.445   2.006 -0.0255  0.6765  0.1242
14876TIP3    H166043   2.523   4.416   2.089 -0.7323 -0.2086  0.1637
14876TIP3    H266044   2.522   4.388   1.940 -0.0725  0.8497 -0.0549
14877TIP3   OH266045   1.950   5.496  14.543 -0.1538  0.0296 -0.6029
14877TIP3    H166046   2.042   5.473  14.560 -0.1256  0.6643  0.1565
14877TIP3    H266047   1.905   5.476  14.625 -0.5188  0.6251 -0.6523
14878TIP3   OH266048   4.330   2.973   1.533 -0.3301  0.1785  0.4768
14878TIP3    H166049   4.288   2.891   1.559 -0.2885  0.0218  0.0448
14878TIP3    H266050   4.317   3.031   1.608  1.8291 -0.9954  1.8660
14879TIP3   OH266051   1.910   1.155  15.992 -0.1163 -0.2090  0.1497
14879TIP3    H166052   1.927   1.249  15.989 -0.7217 -0.0573  1.0728
14879TIP3    H266053   1.996   1.115  16.001  0.5907 -0.0115 -3.8236
14880TIP3   OH266054   5.036   2.781  15.524 -0.4054 -0.1195  0.6271
14880TIP3    H166055   5.028   2.856  15.465 -1.1127  0.9336  2.0320
14880TIP3    H266056   5.092   2.720  15.476 -2.8140 -0.3586 -2.2034
14881TIP3   OH266057   6.664   2.873  15.485 -0.4463  0.0330  0.3676
14881TIP3    H166058   6.688   2.827  15.565 -1.1413 -0.2666  0.4097
14881TIP3    H266059   6.633   2.959  15.515  1.3195  0.7522  0.2548
14882TIP3   OH266060   2.844   2.948   5.713  0.2903 -0.5059 -0.7680
14882TIP3    H166061   2.853   2.987   5.800 -0.6583  0.8095 -1.2228
14882TIP3    H266062   2.802   2.863   5.729 -2.3261  0.7831 -0.0626
14883TIP3   OH266063   5.117   5.787   2.605  0.2463 -0.2336  0.1091
14883TIP3    H166064   5.149   5.703   2.637 -1.8580 -1.1602 -0.0947
14883TIP3    H266065   5.023   5.786   2.624 -0.0256  1.6008 -0.9350
14884TIP3   OH266066   1.690   2.132  11.981  0.6934  0.1840 -0.1057
14884TIP3    H166067   1.638   2.189  11.924  1.8574  2.3802  0.9045
14884TIP3    H266068   1.749   2.086  11.921  0.4726  0.8918 -0.8965
14885TIP3   OH266069   4.667   5.872  16.598  0.1096 -0.0907 -0.1495
14885TIP3    H166070   4.582   5.858  16.641  0.3509 -0.2843  0.2706
14885TIP3    H266071   4.727   5.891  16.671 -0.1267  2.8632 -0.5934
14886TIP3   OH266072   2.146   2.919  15.041 -0.2394 -0.7902  0.2638
14886TIP3    H166073   2.211   2.968  14.991 -0.4647 -0.3786  0.3691
14886TIP3    H266074   2.146   2.832  15.001  1.2621 -1.1864  1.0632
14887TIP3   OH266075   1.825   0.735   5.426  0.3446 -0.3060 -0.9216
14887TIP3    H166076   1.774   0.804   5.470  0.8801 -0.7114  0.3969
14887TIP3    H266077   1.788   0.654   5.460 -0.3147 -0.7056 -2.5086
14888TIP3   OH266078   4.290   5.697   5.380 -0.4992  0.6215  0.3281
14888TIP3    H166079   4.215   5.755   5.365 -0.6265  0.9525  2.0644
14888TIP3    H266080   4.282   5.671   5.471  1.9813  1.3672  0.8294
14889TIP3   OH266081   3.342   0.391  11.572  0.4050  0.2085  0.4517
14889TIP3    H166082   3.348   0.486  11.576  0.8928  0.2584 -1.0312
14889TIP3    H266083   3.291   0.373  11.493 -1.2541 -0.7428  1.6544
14890TIP3   OH266084   5.926   2.796   2.565  0.1947 -0.2726  0.2911
14890TIP3    H166085   5.946   2.740   2.640  0.6029 -1.4888 -0.6925
14890TIP3    H266086   6.006   2.847   2.551  0.4946 -0.7932  0.0626
14891TIP3   OH266087   6.519   5.882   3.511  0.1577 -0.4352 -0.2187
14891TIP3    H166088   6.563   5.827   3.576  1.7342  0.2115 -0.6935
14891TIP3    H266089   6.450   5.927   3.560 -0.4621 -1.9822  0.3998
14892TIP3   OH266090   3.388   2.625  16.624 -0.0005 -0.2662 -0.5259
14892TIP3    H166091   3.393   2.537  16.586 -0.5024  0.4618 -2.3947
14892TIP3    H266092   3.451   2.676  16.574 -0.1947  0.5949  0.0999
14893TIP3   OH266093   5.718   3.065   0.540  0.3663  0.0689  0.2499
14893TIP3    H166094   5.762   3.125   0.480 -0.8701 -0.5353 -1.3437
14893TIP3    H266095   5.761   3.078   0.624  2.5139  0.5831 -0.8750
14894TIP3   OH266096   5.987   6.553  13.779  0.1222  0.6549  0.0430
14894TIP3    H166097   6.032   6.545  13.695  0.4060  2.6838 -0.0408
14894TIP3    H266098   6.057   6.553  13.844  0.1418  2.0113  0.0428
14895TIP3   OH266099   4.417   2.050   4.119  0.2273 -0.3735  0.0008
14895TIP3    H166100   4.506   2.086   4.118  0.0099  0.2461  1.2601
14895TIP3    H266101   4.427   1.963   4.158  0.1021  0.3232  1.6944
14896TIP3   OH266102   5.692   6.084   1.731 -0.0574  0.0518  0.2379
14896TIP3    H166103   5.700   6.150   1.800 -1.4062 -0.7134  1.1653
14896TIP3    H266104   5.760   6.107   1.668  1.5280  0.5394  2.0153
14897TIP3   OH266105   4.312   0.542   4.635 -0.9266  0.1980 -0.6078
14897TIP3    H166106   4.284   0.625   4.672 -1.3752  0.5856 -1.7773
14897TIP3    H266107   4.340   0.563   4.546  0.8328 -0.5784 -0.2932
14898TIP3   OH266108   6.538   0.890  16.836 -0.2996 -0.2275 -0.4971
14898TIP3    H166109   6.563   0.851  16.753 -1.3199  0.0575 -0.9490
14898TIP3    H266110   6.582   0.835  16.902  1.9021  0.5378 -1.2224
14899TIP3   OH266111   2.317   0.460  14.510 -0.0718 -0.0599 -0.3518
14899TIP3    H166112   2.304   0.443  14.604  0.7888  2.5911  0.3254
14899TIP3    H266113   2.396   0.410  14.488  0.9890  0.9879  0.9140
14900TIP3   OH266114   4.196   3.215   2.214 -0.4033 -0.5586  0.1729
14900TIP3    H166115   4.120   3.254   2.171 -0.0129  0.8195  0.6850
14900TIP3    H266116   4.270   3.268   2.185  0.1998 -1.1379  0.6199
14901TIP3   OH266117   6.273   2.207  16.335  0.4205 -0.9469  0.3941
14901TIP3    H166118   6.189   2.161  16.327  1.0431 -2.4420  1.8520
14901TIP3    H266119   6.291   2.239  16.246 -2.0008  0.0642  0.1839
14902TIP3   OH266120   3.674   0.106  14.149  0.1464  0.1556 -0.3983
14902TIP3    H166121   3.699   0.059  14.228  1.0512 -1.8259 -1.7783
14902TIP3    H266122   3.745   0.169  14.135 -0.3014  0.9153  0.6299
14903TIP3   OH266123   1.861   0.750  16.169 -0.0430  0.2534  0.2078
14903TIP3    H166124   1.888   0.661  16.191  1.7986  0.8030  0.3267
14903TIP3    H266125   1.942   0.796  16.149 -1.0872  1.4636 -1.5595
14904TIP3   OH266126   0.406   6.277   0.745 -0.5728  0.2076  0.1742
14904TIP3    H166127   0.360   6.245   0.822 -1.5058  0.1900 -0.3753
14904TIP3    H266128   0.484   6.320   0.779 -0.6099 -0.4239  1.0778
14905TIP3   OH266129   5.518   6.300  13.390 -0.7173 -0.3792  0.7536
14905TIP3    H166130   5.603   6.280  13.352 -0.0888  1.1454  1.2456
14905TIP3    H266131   5.536   6.373  13.450 -2.3602 -0.0704  0.9131
14906TIP3   OH266132   1.497   2.634  17.316 -0.5220 -0.2483 -0.3870
14906TIP3    H166133   1.495   2.546  17.279 -2.0709 -0.4545  0.1423
14906TIP3    H266134   1.405   2.657  17.330 -0.1547  1.5000 -0.6111
14907TIP3   OH266135   0.908   2.533  10.627  0.9833 -0.2046  0.0656
14907TIP3    H166136   0.920   2.456  10.571 -0.8831 -0.1646 -0.4677
14907TIP3    H266137   0.916   2.607  10.567 -2.0822 -0.1925 -0.4624
14908TIP3   OH266138   4.757   6.583   1.734  0.1465 -0.6137  0.0389
14908TIP3    H166139   4.682   6.637   1.711 -0.2589 -1.2807 -0.2355
14908TIP3    H266140   4.819   6.644   1.774 -0.3797  0.0125 -0.0814
14909TIP3   OH266141   2.038   2.454   2.309 -0.1710 -0.3380  0.6586
14909TIP3    H166142   2.000   2.367   2.318 -0.3857 -0.7346 -2.8130
14909TIP3    H266143   2.060   2.462   2.216  2.8970  2.1118  1.4226
14910TIP3   OH266144   6.513   0.208  15.122 -0.1765 -0.1768 -0.1898
14910TIP3    H166145   6.534   0.138  15.184 -2.5823 -1.6182 -0.8562
14910TIP3    H266146   6.421   0.229  15.140 -0.0446  1.4827 -1.2905
14911TIP3   OH266147   5.498   3.767  14.718  0.3033  0.0794 -0.3344
14911TIP3    H166148   5.434   3.826  14.678 -0.6931 -0.9467 -0.2749
14911TIP3    H266149   5.562   3.752  14.648 -0.9106 -0.9301 -1.2808
14912TIP3   OH266150   2.483   2.703  11.733  0.5370 -0.3291  0.4781
14912TIP3    H166151   2.535   2.629  11.701  1.3390  0.3074  0.2595
14912TIP3    H266152   2.396   2.667  11.746  0.8114 -1.2176 -0.0131
14913TIP3   OH266153   1.707   3.098   1.972 -0.3290 -0.0139  0.4231
14913TIP3    H166154   1.646   3.039   2.016 -0.7634 -0.7762 -1.1119
14913TIP3    H266155   1.658   3.130   1.896  1.4020 -1.3515 -1.3788
14914TIP3   OH266156   6.696   6.750   1.737  0.3929  0.4292 -0.0861
14914TIP3    H166157   6.784   6.730   1.704  0.4226  0.3807  0.0228
14914TIP3    H266158   6.659   6.809   1.671  0.2101 -0.1698 -0.5295
14915TIP3   OH266159   2.028   0.604  11.749 -0.3513  0.2145  0.6559
14915TIP3    H166160   2.018   0.693  11.784 -2.2506 -0.4763  2.1254
14915TIP3    H266161   2.077   0.614  11.668  0.2959  2.4813  1.2697
14916TIP3   OH266162   6.673   5.538  17.059 -0.5117 -0.1071 -0.3439
14916TIP3    H166163   6.635   5.473  17.117 -0.1935  0.1105  0.1154
14916TIP3    H266164   6.711   5.604  17.117 -0.7700  0.4559 -0.7982
14917TIP3   OH266165   0.810   3.575  12.420 -0.1613  0.1129  0.7221
14917TIP3    H166166   0.805   3.669  12.401  1.0322  0.1294  0.4222
14917TIP3    H266167   0.904   3.558  12.431 -0.1473 -1.4058 -1.2393
14918TIP3   OH266168   6.005   5.710   5.889  0.0855 -0.3318 -0.1078
14918TIP3    H166169   5.971   5.772   5.954  0.5989  0.5158 -0.6125
14918TIP3    H266170   5.959   5.629   5.906 -0.9117  0.3047  0.3327
14919TIP3   OH266171   4.272   0.517  13.631  0.1848 -0.5965  0.1405
14919TIP3    H166172   4.265   0.528  13.537 -1.1671  0.8118  0.3584
14919TIP3    H266173   4.329   0.441  13.643  2.3357  0.6157 -1.7631
14920TIP3   OH266174   5.689   4.513  14.347  0.1888 -0.3532  0.3120
14920TIP3    H166175   5.774   4.553  14.368  0.0314  0.2409 -0.1509
14920TIP3    H266176   5.629   4.548  14.412  0.0350  0.2231 -0.1398
14921TIP3   OH266177   4.357   4.495  16.778 -0.7903 -0.3915  0.6057
14921TIP3    H166178   4.294   4.508  16.848 -0.8444  0.5122  0.4014
14921TIP3    H266179   4.439   4.474  16.822  0.1012  3.5277  1.2386
14922TIP3   OH266180   3.457   2.974  10.735 -0.1854 -0.3588 -0.2295
14922TIP3    H166181   3.380   3.031  10.726  0.6391  0.4648 -3.0806
14922TIP3    H266182   3.433   2.895  10.686  0.6191 -0.2483 -0.8161
14923TIP3   OH266183   6.146   5.792   1.980  0.3169 -0.3188  0.1030
14923TIP3    H166184   6.061   5.825   2.010  0.6105 -0.4589  1.1008
14923TIP3    H266185   6.131   5.699   1.962  0.1403 -0.2323 -0.2232
14924TIP3   OH266186   5.625   6.289  15.480  0.8357 -0.6585  0.7612
14924TIP3    H166187   5.685   6.334  15.539  1.8514  0.4248 -1.0022
14924TIP3    H266188   5.681   6.257  15.409 -0.7238  1.6009 -1.6873
14925TIP3   OH266189   3.151   0.867  17.199 -0.2489  0.5506 -0.2394
14925TIP3    H166190   3.060   0.851  17.176 -0.1505  1.3134 -1.2348
14925TIP3    H266191   3.153   0.958  17.229  0.4054  1.0069 -1.5789
14926TIP3   OH266192   0.003   2.872   6.531  0.2649 -0.1226  0.2887
14926TIP3    H166193   0.052   2.904   6.456  0.0742 -0.2651  0.1040
14926TIP3    H266194   0.070   2.842   6.593  0.4013 -1.9233 -0.6654
14927TIP3   OH266195   6.501   3.885   4.929  0.3074  0.0055 -0.2843
14927TIP3    H166196   6.484   3.871   4.836  1.8632 -0.2944 -0.5553
14927TIP3    H266197   6.430   3.838   4.973  1.6302 -3.2228 -1.2972
14928TIP3   OH266198   6.737   4.097   0.878  0.3283  0.2990  0.1983
14928TIP3    H166199   6.762   4.019   0.829  1.1225 -0.2795  1.4614
14928TIP3    H266200   6.764   4.078   0.968 -1.2691  1.2199  0.9170
14929TIP3   OH266201   4.894   0.232   1.982  0.5107 -0.3405 -0.2549
14929TIP3    H166202   4.807   0.197   1.963  0.0257 -0.3714  1.7314
14929TIP3    H266203   4.951   0.193   1.915 -0.9298 -0.5866 -1.3886
14930TIP3   OH266204   5.611   6.001   4.390  0.0270  0.0547  0.2379
14930TIP3    H166205   5.687   6.055   4.366  0.1643  0.7214  2.0353
14930TIP3    H266206   5.544   6.065   4.417 -0.4151 -0.6033  0.7205
14931TIP3   OH266207   6.417   5.482  15.043  0.0894 -0.0149  0.1865
14931TIP3    H166208   6.366   5.536  15.105 -2.9404  0.9438 -2.8276
14931TIP3    H266209   6.502   5.526  15.037 -0.2358  0.9946  2.1370
14932TIP3   OH266210   5.653   2.709   1.361  1.0336 -0.7464  0.5824
14932TIP3    H166211   5.611   2.624   1.347 -2.5960  1.0543 -0.5458
14932TIP3    H266212   5.681   2.736   1.274 -1.5482  0.8782  0.1673
14933TIP3   OH266213   2.218   0.746   4.390 -0.4328  0.5140  0.2534
14933TIP3    H166214   2.248   0.774   4.476 -3.9463  0.9959  1.4798
14933TIP3    H266215   2.243   0.654   4.384  1.8203  1.0153  0.7245
14934TIP3   OH266216   1.370   0.429   2.951  0.4265 -0.5034 -0.3850
14934TIP3    H166217   1.334   0.505   2.995 -0.0797 -1.7419  1.4663
14934TIP3    H266218   1.448   0.407   3.002  0.2795 -1.5162 -0.5746
14935TIP3   OH266219   3.109   6.470  13.250  0.1912  0.4381  0.5863
14935TIP3    H166220   3.124   6.564  13.261 -2.3704  0.8554  1.1597
14935TIP3    H266221   3.149   6.430  13.327 -0.4531  1.3013  1.3857
14936TIP3   OH266222   4.458   4.923  12.029  0.0798 -0.3112 -0.0804
14936TIP3    H166223   4.402   4.893  11.958 -0.2723  2.0590 -0.8888
14936TIP3    H266224   4.547   4.900  12.001 -0.1638 -0.5700 -0.6536
14937TIP3   OH266225   3.152   4.350   3.878 -0.8552  0.1586 -0.4682
14937TIP3    H166226   3.091   4.281   3.904  0.0745  0.0721  1.6183
14937TIP3    H266227   3.234   4.304   3.860 -0.6527  0.5640 -0.5872
14938TIP3   OH266228   3.673   3.136  14.351 -0.0356  0.0184  0.5065
14938TIP3    H166229   3.711   3.117  14.265 -0.2744  1.9616 -0.0618
14938TIP3    H266230   3.663   3.050  14.391  1.0781 -0.8634 -0.9740
14939TIP3   OH266231   3.363   4.013  14.646 -0.5553  0.1358 -0.6439
14939TIP3    H166232   3.423   4.064  14.590 -2.0376  1.2595 -1.2903
14939TIP3    H266233   3.420   3.962  14.703  1.0668  2.7909  0.2834
14940TIP3   OH266234   6.001   1.308   2.319  0.1560  0.8220  0.1787
14940TIP3    H166235   6.029   1.257   2.394 -1.9048 -1.3715 -0.4145
14940TIP3    H266236   6.074   1.367   2.301  1.9754 -0.7419  1.9703
14941TIP3   OH266237   4.106   6.430   3.755  0.0523  0.3239 -0.0094
14941TIP3    H166238   4.193   6.416   3.792 -0.2174  0.7870  0.8121
14941TIP3    H266239   4.102   6.369   3.681  1.2693  0.6697 -0.3887
14942TIP3   OH266240   1.901   6.477   5.809  0.6006 -0.0915 -0.4569
14942TIP3    H166241   1.945   6.539   5.868  1.5016 -0.2496 -0.9425
14942TIP3    H266242   1.971   6.421   5.776 -0.0850 -0.8576 -0.6551
14943TIP3   OH266243   5.853   1.163  16.451  0.4056  0.5861  0.2141
14943TIP3    H166244   5.838   1.145  16.358 -0.0633  0.0970  0.3813
14943TIP3    H266245   5.901   1.246  16.451  0.4195  0.5897 -0.4643
14944TIP3   OH266246   5.153   0.619  14.888 -0.0022  0.4311 -0.7754
14944TIP3    H166247   5.177   0.657  14.804 -2.3775  1.3161 -1.1338
14944TIP3    H266248   5.088   0.680  14.924 -0.4496 -0.9106  0.8181
14945TIP3   OH266249   3.203   2.104   2.008 -0.2857  0.5891 -0.2634
14945TIP3    H166250   3.165   2.050   1.938 -0.6762 -1.0752  1.1473
14945TIP3    H266251   3.193   2.050   2.087  0.4763  2.2424  1.0144
14946TIP3   OH266252   0.637   1.810  15.046 -0.8988 -0.2460  0.0358
14946TIP3    H166253   0.547   1.780  15.059 -0.3423 -1.7840  0.6857
14946TIP3    H266254   0.689   1.729  15.049  0.4822  0.5822 -0.5711
14947TIP3   OH266255   0.140   3.543   4.854 -0.1454 -0.2775 -0.4941
14947TIP3    H166256   0.118   3.472   4.794 -1.4743 -0.5110  0.2257
14947TIP3    H266257   0.061   3.554   4.908  1.0494 -0.1661  1.2962
14948TIP3   OH266258   5.177   4.983  14.184 -0.3693 -0.3450 -0.3876
14948TIP3    H166259   5.166   5.061  14.238 -2.7920 -0.9431  0.1246
14948TIP3    H266260   5.088   4.964  14.152  0.5146 -1.6442 -2.2838
14949TIP3   OH266261   5.479   2.266   4.284 -0.6253  0.0206 -0.2043
14949TIP3    H166262   5.416   2.223   4.341 -0.3299  1.1075  0.9842
14949TIP3    H266263   5.461   2.231   4.197 -1.2033 -1.5423  0.5146
14950TIP3   OH266264   0.703   1.513   1.851 -0.3327 -1.0012  0.3246
14950TIP3    H166265   0.769   1.563   1.898  1.6298 -0.1237 -3.0584
14950TIP3    H266266   0.749   1.437   1.817 -1.1457 -0.6725 -1.6392
14951TIP3   OH266267   4.660   1.842  15.357  0.3181  0.2352  0.8154
14951TIP3    H166268   4.678   1.894  15.279  0.0124 -0.7247  0.0999
14951TIP3    H266269   4.729   1.776  15.360 -0.3515 -0.4872  0.6764
14952TIP3   OH266270   1.110   2.831  16.976 -0.3874 -0.1242 -0.4572
14952TIP3    H166271   1.102   2.779  16.897 -0.0569 -0.0630 -0.5318
14952TIP3    H266272   1.156   2.910  16.949 -0.9287  0.2356 -0.3543
14953TIP3   OH266273   4.263   2.374   3.775  0.4360  0.5140 -0.0290
14953TIP3    H166274   4.219   2.439   3.829 -0.9722  1.1401 -1.8350
14953TIP3    H266275   4.355   2.403   3.773 -0.4717  3.7452 -2.3908
14954TIP3   OH266276   0.630   6.521   4.100  0.2986  0.4627 -0.7743
14954TIP3    H166277   0.560   6.571   4.143 -1.1139 -0.2383 -2.1820
14954TIP3    H266278   0.618   6.431   4.130  1.1349  0.4603 -0.3977
14955TIP3   OH266279   0.151   3.548  11.513 -0.2019 -0.1884 -0.2137
14955TIP3    H166280   0.110   3.576  11.595  2.2113  1.3729  0.5605
14955TIP3    H266281   0.148   3.452  11.516 -1.9791 -0.1386  0.6955
14956TIP3   OH266282   3.215   1.237  16.492  0.0286  0.0195 -0.2463
14956TIP3    H166283   3.293   1.293  16.489  0.6413 -0.7813  0.4208
14956TIP3    H266284   3.151   1.287  16.543  0.1831  0.5724 -0.5874
14957TIP3   OH266285   4.137   3.607   4.331  0.6686  0.0703  0.3066
14957TIP3    H166286   4.156   3.579   4.421  1.5130 -0.4594 -0.0331
14957TIP3    H266287   4.190   3.550   4.276 -0.8171 -0.4773 -0.6113
14958TIP3   OH266288   5.899   2.022  15.759  0.3534 -0.4680 -0.2500
14958TIP3    H166289   5.830   2.036  15.824  0.5623  1.4449 -0.3853
14958TIP3    H266290   5.931   2.109  15.739  0.2559 -0.9634 -3.0013
14959TIP3   OH266291   0.014   5.606   2.000  0.4288 -0.4208 -0.0770
14959TIP3    H166292   0.059   5.610   1.916  1.2717 -1.2863  0.3155
14959TIP3    H266293   0.059   5.537   2.049  2.0345  2.0358  2.2556
14960TIP3   OH266294   2.438   2.364  16.941  0.1909  0.2421  0.5061
14960TIP3    H166295   2.453   2.284  16.992  1.6831  0.1611  0.0140
14960TIP3    H266296   2.370   2.411  16.989 -2.7842 -2.5403 -0.6078
14961TIP3   OH266297   3.868   3.858  12.520  0.5210  0.1473 -0.7382
14961TIP3    H166298   3.959   3.827  12.517  0.1340 -1.4647  1.6581
14961TIP3    H266299   3.852   3.876  12.612 -2.2617 -1.7885 -0.7406
14962TIP3   OH266300   3.061   6.298  10.690 -0.2096  0.7733 -0.1903
14962TIP3    H166301   3.132   6.253  10.735 -0.0583  1.2406  0.0442
14962TIP3    H266302   3.014   6.229  10.644  1.1399  0.6254 -1.3809
14963TIP3   OH266303   4.363   5.533  17.163  0.2093 -0.3637 -0.1170
14963TIP3    H166304   4.332   5.498  17.079  0.2775  0.5906 -0.5542
14963TIP3    H266305   4.284   5.543  17.216 -0.0735  0.6793 -0.7029
14964TIP3   OH266306   5.458   5.166   6.251 -0.0372  0.0323 -0.6253
14964TIP3    H166307   5.467   5.123   6.166 -0.4904  0.9474 -1.1479
14964TIP3    H266308   5.547   5.190   6.276 -0.1219  2.5291 -2.3342
14965TIP3   OH266309   3.044   4.884   4.467  0.1664 -0.0237 -0.2401
14965TIP3    H166310   3.128   4.924   4.492 -0.6603  0.8220  1.3164
14965TIP3    H266311   3.062   4.841   4.383  2.7898 -1.8473  1.1068
14966TIP3   OH266312   6.745   3.478  15.558 -0.0802  0.0586 -0.0824
14966TIP3    H166313   6.702   3.542  15.615 -0.1041  0.7738 -0.8936
14966TIP3    H266314   6.803   3.530  15.502 -0.7340 -0.5145 -1.3343
14967TIP3   OH266315   4.126   0.698   2.703  0.5066  0.1624  0.0598
14967TIP3    H166316   4.185   0.627   2.678  0.0627 -0.5320  0.9225
14967TIP3    H266317   4.137   0.707   2.797 -1.3093 -0.5224  0.3842
14968TIP3   OH266318   5.404   3.939   0.603 -0.6698 -0.2372 -0.4065
14968TIP3    H166319   5.427   4.027   0.573 -0.0751 -0.4940 -0.7049
14968TIP3    H266320   5.474   3.915   0.663 -1.1010 -0.3074  0.0794
14969TIP3   OH266321   4.046   4.683   3.484  0.2222  0.1594  0.5696
14969TIP3    H166322   4.139   4.673   3.499  0.7873 -0.2532 -2.4778
14969TIP3    H266323   4.029   4.777   3.493  1.2580  0.4329 -0.1468
14970TIP3   OH266324   2.027   5.331   2.617  0.3713 -0.4033 -0.4070
14970TIP3    H166325   2.079   5.384   2.678 -0.9171  1.1595 -0.6137
14970TIP3    H266326   2.055   5.359   2.530  1.2209 -1.6471 -0.5595
14971TIP3   OH266327   5.423   4.632  16.677  0.7016  0.4179  0.0896
14971TIP3    H166328   5.496   4.570  16.668  1.7984  1.8451 -1.3631
14971TIP3    H266329   5.354   4.581  16.720  2.2628 -1.2077  0.8190
14972TIP3   OH266330   5.146   1.197   0.988 -0.4664  0.7742  0.4697
14972TIP3    H166331   5.057   1.228   1.003 -0.8818 -0.0795 -0.1373
14972TIP3    H266332   5.193   1.274   0.955 -1.2281  1.0092 -0.1092
14973TIP3   OH266333   0.337   4.291  13.873  0.5342  0.0875 -0.2284
14973TIP3    H166334   0.280   4.356  13.914  0.1028  0.1410 -0.8874
14973TIP3    H266335   0.410   4.341  13.837  1.6841 -0.1120  1.7026
14974TIP3   OH266336   0.700   2.662  12.858  0.0419 -0.0936  0.0909
14974TIP3    H166337   0.743   2.693  12.778 -0.0727  0.4551  0.2374
14974TIP3    H266338   0.617   2.624  12.827 -0.5444  1.1780  0.0512
14975TIP3   OH266339   6.630   0.033   0.056  0.1429  0.1440  0.2250
14975TIP3    H166340   6.580  -0.044   0.029 -0.8226  1.0276 -0.5604
14975TIP3    H266341   6.707   0.032  -0.001  0.6106 -0.7417  0.8526
14976TIP3   OH266342   2.414   4.044  12.032  0.2496 -0.2723 -0.5590
14976TIP3    H166343   2.403   4.016  11.941  1.4801  1.0531 -1.1611
14976TIP3    H266344   2.495   4.095  12.032 -0.8190  1.5756  0.8415
14977TIP3   OH266345   6.760   5.313  17.246 -0.4192 -0.3720 -0.4906
14977TIP3    H166346   6.745   5.345  17.335 -0.0019 -0.8186 -0.2521
14977TIP3    H266347   6.854   5.322  17.233 -0.7374  1.8718 -1.7530
14978TIP3   OH266348   5.054   6.614  13.984  0.2256  0.7434  0.1203
14978TIP3    H166349   5.053   6.649  14.074 -0.7730  3.9129 -0.9625
14978TIP3    H266350   5.043   6.520  13.994 -1.1061  1.1173  3.2976
14979TIP3   OH266351   2.525   5.791   5.769  0.6066 -0.0434 -0.0866
14979TIP3    H166352   2.433   5.814   5.757  0.6685  2.2278  2.5673
14979TIP3    H266353   2.524   5.704   5.808 -0.4552  0.0096  0.0270
14980TIP3   OH266354   4.627   2.705  13.868 -0.1675 -0.1318 -0.2166
14980TIP3    H166355   4.572   2.783  13.859 -0.8362 -0.6598 -0.9302
14980TIP3    H266356   4.698   2.718  13.805 -0.3264 -0.1408 -0.3979
14981TIP3   OH266357   2.031   2.993   3.386 -0.0350 -0.5067 -0.4149
14981TIP3    H166358   1.988   3.078   3.394  0.0435 -0.4764 -0.2992
14981TIP3    H266359   2.122   3.011   3.412 -0.1753 -0.7660  0.2695
14982TIP3   OH266360   5.089   0.505   6.254  0.3056  0.4942  0.0264
14982TIP3    H166361   5.097   0.421   6.210  0.0699  0.6921 -0.3987
14982TIP3    H266362   4.997   0.510   6.279  0.7741 -0.4371  2.2105
14983TIP3   OH266363   0.044   2.307   3.798 -0.0382  0.7361 -0.4604
14983TIP3    H166364  -0.028   2.255   3.833  1.6981 -1.1846  0.4452
14983TIP3    H266365   0.059   2.375   3.863 -0.1673  0.3129  0.0184
14984TIP3   OH266366   1.609   0.538   1.650  0.7756  0.2638 -0.2174
14984TIP3    H166367   1.698   0.517   1.676  0.1776  1.5621  3.5883
14984TIP3    H266368   1.561   0.455   1.657  1.1594  0.1034  0.7106
14985TIP3   OH266369   2.508   6.706  13.022 -0.1577  1.4267 -0.4427
14985TIP3    H166370   2.595   6.669  13.036  0.0889  1.9059 -0.7123
14985TIP3    H266371   2.464   6.642  12.966 -1.0727 -0.4072  2.1708
14986TIP3   OH266372   1.064   4.650  12.525  0.0210  0.3797 -0.5482
14986TIP3    H166373   1.118   4.571  12.528  0.0146  0.2381 -2.6770
14986TIP3    H266374   1.069   4.686  12.614  2.4015 -0.4324 -0.2765
14987TIP3   OH266375   1.005   5.342  16.103  0.2520  0.5853  0.0802
14987TIP3    H166376   0.920   5.362  16.142 -0.3435 -0.2570 -0.7395
14987TIP3    H266377   1.048   5.285  16.166  1.1115  2.6668  1.4739
14988TIP3   OH266378   6.499   2.629  14.992 -0.1799  0.5222  0.5291
14988TIP3    H166379   6.525   2.699  14.933  1.3329 -1.0935 -0.8471
14988TIP3    H266380   6.418   2.594  14.955 -1.4971  2.0802  1.7712
14989TIP3   OH266381   6.693   5.065  15.758  0.9663 -0.3354 -0.3813
14989TIP3    H166382   6.692   5.134  15.824 -1.1295 -0.1388 -0.5781
14989TIP3    H266383   6.743   5.102  15.685 -1.1690  1.5463 -1.0008
14990TIP3   OH266384   2.936   5.016   1.419 -0.3824  0.1223 -0.1344
14990TIP3    H166385   2.872   4.945   1.431 -0.7638  0.4020 -0.4786
14990TIP3    H266386   2.893   5.093   1.457  0.1841  0.0931  0.5751
14991TIP3   OH266387   0.238   4.019   5.152 -0.3129 -0.1786 -0.7580
14991TIP3    H166388   0.169   4.062   5.102 -0.3968  1.6000  0.7635
14991TIP3    H266389   0.316   4.071   5.135 -0.2353  0.1593  0.4953
14992TIP3   OH266390   1.503   5.378   3.487  0.3640 -0.0445 -0.1446
14992TIP3    H166391   1.465   5.458   3.452  2.1921  0.4821 -1.0443
14992TIP3    H266392   1.462   5.368   3.573  1.5168  2.9422  0.8754
14993TIP3   OH266393   6.107   3.476  11.021  0.2112 -0.2212  0.1435
14993TIP3    H166394   6.132   3.524  11.100  1.2423 -0.6540  0.0943
14993TIP3    H266395   6.114   3.540  10.950  0.9200 -0.2572  0.1745
14994TIP3   OH266396   4.995   3.997  12.283  0.0737 -0.3725 -0.5464
14994TIP3    H166397   5.054   4.042  12.222  0.5394 -0.9354 -0.5184
14994TIP3    H266398   5.031   4.016  12.370 -1.0143  1.0510 -0.3727
14995TIP3   OH266399   4.934   2.159  14.359  0.1544 -0.1715  0.2049
14995TIP3    H166400   4.880   2.234  14.387  1.2920  0.7464  0.0092
14995TIP3    H266401   4.941   2.168  14.264  0.3090 -0.5157  0.1830
14996TIP3   OH266402   4.038   6.011  15.493 -0.3765  0.4583  0.5472
14996TIP3    H166403   4.101   5.968  15.551 -0.4760  0.2223  0.4851
14996TIP3    H266404   4.015   6.092  15.538 -0.5422  0.2209  0.8938
14997TIP3   OH266405   1.616   3.525   5.282 -0.1614  0.3937 -0.1507
14997TIP3    H166406   1.624   3.454   5.219 -0.6028  0.3532 -0.1645
14997TIP3    H266407   1.522   3.531   5.300  0.0434 -0.2455  1.2385
14998TIP3   OH266408   5.438   6.745  16.943  0.0802  0.3880  0.4303
14998TIP3    H166409   5.468   6.829  16.906 -0.2298  0.7527  0.9853
14998TIP3    H266410   5.513   6.687  16.933 -0.4079  0.0822 -1.9187
14999TIP3   OH266411   2.285   4.233  13.676  0.0082 -0.7192  0.6052
14999TIP3    H166412   2.345   4.307  13.686 -0.0314 -0.5910 -0.0398
14999TIP3    H266413   2.219   4.265  13.615  0.8036 -1.7605 -0.8636
15000TIP3   OH266414   2.226   1.990  14.567 -0.0478  0.3862 -0.4258
15000TIP3    H166415   2.164   1.952  14.505  0.2187  0.1787 -0.5665
15000TIP3    H266416   2.281   2.047  14.513 -1.7495  2.6479  0.0789
15001TIP3   OH266417   0.620   0.006   5.913 -0.2215 -0.6003  0.5805
15001TIP3    H166418   0.651  -0.082   5.935 -0.1265 -0.5787  0.5357
15001TIP3    H266419   0.674   0.064   5.967  1.7101 -0.3857 -1.4195
15002TIP3   OH266420   6.586   5.481   0.887  0.2225 -0.5579  0.3790
15002TIP3    H166421   6.661   5.443   0.841  1.1839  0.8504  0.6903
15002TIP3    H266422   6.622   5.510   0.971 -1.0748 -1.3749  1.2495
15003TIP3   OH266423   6.319   3.704   4.274  0.2734  0.0098  0.2051
15003TIP3    H166424   6.285   3.790   4.248 -1.0054 -0.6306 -0.3413
15003TIP3    H266425   6.319   3.705   4.369  0.8766  0.8303  0.2090
15004TIP3   OH266426   2.082   5.838   4.792 -0.1648 -0.5879 -0.8726
15004TIP3    H166427   2.152   5.855   4.855 -1.2013  2.8733 -0.4063
15004TIP3    H266428   2.024   5.776   4.836  1.1964 -1.3506 -0.1250
15005TIP3   OH266429   4.380   4.208   1.071  0.0451 -0.4067  0.9233
15005TIP3    H166430   4.453   4.251   1.114  0.0941  0.5698 -0.0973
15005TIP3    H266431   4.406   4.204   0.979 -0.3693 -1.7817  0.8388
15006TIP3   OH266432   1.975   4.633   1.653  0.5071 -0.2389 -0.5392
15006TIP3    H166433   1.896   4.579   1.647 -0.0183  0.2125  1.5849
15006TIP3    H266434   1.998   4.651   1.562 -0.4094 -2.3916 -1.2701
15007TIP3   OH266435   3.583   0.984   2.595  0.0883  0.7629  0.2541
15007TIP3    H166436   3.523   0.928   2.645 -0.7437  0.0961 -1.4356
15007TIP3    H266437   3.664   0.983   2.646  0.7658 -3.5016 -0.5188
15008TIP3   OH266438   3.625   2.020  15.977  0.0032  0.1198 -0.2451
15008TIP3    H166439   3.655   1.929  15.975  0.2010  0.1361  0.9762
15008TIP3    H266440   3.580   2.029  16.061 -1.2365  0.7847 -0.9532
15009TIP3   OH266441   0.480   3.930  11.309 -0.8276  0.4835 -0.5222
15009TIP3    H166442   0.453   4.015  11.343  1.1338  0.7578  0.5398
15009TIP3    H266443   0.424   3.867  11.354 -0.6602  1.0807  0.5563
15010TIP3   OH266444   4.083   6.722  14.043  0.0949  0.1341 -0.3033
15010TIP3    H166445   4.035   6.805  14.047 -3.5801 -1.7655 -0.0255
15010TIP3    H266446   4.015   6.655  14.053  3.0207 -2.9252  1.1954
15011TIP3   OH266447   0.612   5.132  12.446 -0.4648  0.0950 -0.2000
15011TIP3    H166448   0.631   5.220  12.414  1.4732  0.0804  0.7909
15011TIP3    H266449   0.551   5.145  12.519 -0.2491  0.6102 -0.1095
15012TIP3   OH266450   4.813   1.676   4.730 -0.5549  0.1548 -0.6955
15012TIP3    H166451   4.757   1.614   4.775  1.8502 -1.5830  0.1355
15012TIP3    H266452   4.860   1.722   4.800 -1.0465  1.7282 -1.3421
15013TIP3   OH266453   5.749   5.710  13.724  0.3926  0.8183 -0.4880
15013TIP3    H166454   5.768   5.803  13.721  0.0301  0.8773 -1.4387
15013TIP3    H266455   5.654   5.705  13.740  0.7308  0.5644  1.7599
15014TIP3   OH266456   4.706   5.105   0.089 -0.5711 -0.4283  0.3831
15014TIP3    H166457   4.655   5.031   0.056 -0.2098 -2.4362  3.8843
15014TIP3    H266458   4.795   5.091   0.055 -1.0474 -0.0116 -1.1395
15015TIP3   OH266459   4.610   4.262   6.005 -0.0083  0.0012  0.5115
15015TIP3    H166460   4.662   4.333   6.042  0.6955 -0.5184  0.5223
15015TIP3    H266461   4.549   4.238   6.075 -0.2065  0.5421  0.5297
15016TIP3   OH266462   3.251   2.446   0.653 -0.2268 -0.0991  0.7137
15016TIP3    H166463   3.322   2.417   0.711  1.1630 -0.6692 -1.1689
15016TIP3    H266464   3.296   2.494   0.583 -1.7747  0.0053 -0.2531
15017TIP3   OH266465   0.118   0.891  12.681  0.0250  0.5896  0.3335
15017TIP3    H166466   0.192   0.836  12.655 -0.7257 -1.4073  2.1546
15017TIP3    H266467   0.136   0.913  12.772 -1.8000 -0.3509  0.9617
15018TIP3   OH266468   1.696   2.133  14.720 -0.1447 -0.7169  0.3484
15018TIP3    H166469   1.764   2.118  14.785  1.5137  1.4157 -0.7533
15018TIP3    H266470   1.622   2.167  14.770  0.9211  0.4328  1.2178
15019TIP3   OH266471   4.856   1.259   2.974  0.6682  0.1763  0.0725
15019TIP3    H166472   4.857   1.168   2.944  0.5570  0.4335 -0.7380
15019TIP3    H266473   4.777   1.265   3.028  0.4918 -0.1214 -0.1491
15020TIP3   OH266474   4.110   6.260   3.523 -0.1257  0.1856 -0.3951
15020TIP3    H166475   4.172   6.298   3.461  0.3992 -0.1131 -0.0649
15020TIP3    H266476   4.084   6.177   3.484  0.9573 -0.4704  0.2157
15021TIP3   OH266477   6.050   1.236   3.455 -0.4734 -0.0613  0.1508
15021TIP3    H166478   5.992   1.252   3.380 -1.5785  0.6360  1.1155
15021TIP3    H266479   6.008   1.281   3.528  0.1587 -1.4010  1.3944
15022TIP3   OH266480   5.816   3.402  12.706 -0.5727  0.0559 -0.0545
15022TIP3    H166481   5.826   3.374  12.797 -0.1929  1.5841  0.4139
15022TIP3    H266482   5.901   3.438  12.682 -0.9336  0.5098 -0.7013
15023TIP3   OH266483   4.836   4.706   3.231  0.2639 -0.1560 -0.2049
15023TIP3    H166484   4.845   4.788   3.183 -2.1383  0.9954  1.1828
15023TIP3    H266485   4.920   4.661   3.216  0.8665  1.5785 -2.6863
15024TIP3   OH266486   3.512   4.616   5.314  0.5556  0.6110  0.2767
15024TIP3    H166487   3.478   4.541   5.363  0.4920  0.1423 -0.4685
15024TIP3    H266488   3.528   4.682   5.380 -0.5265  0.3649  0.8133
15025TIP3   OH266489   4.400   3.341  16.721 -0.2432  0.3197 -0.3105
15025TIP3    H166490   4.390   3.255  16.682  0.1523  0.0216  0.2286
15025TIP3    H266491   4.331   3.394  16.681 -4.0910 -1.5414  3.0818
15026TIP3   OH266492   4.223   5.413   6.405  0.2185 -0.3063 -0.6057
15026TIP3    H166493   4.141   5.430   6.452 -1.7335 -1.3131 -3.3313
15026TIP3    H266494   4.265   5.498   6.397 -0.5008  0.2245  0.9374
15027TIP3   OH266495   0.054   5.129   1.451 -0.1328 -0.0359  0.5960
15027TIP3    H166496   0.035   5.043   1.488  1.5300 -0.5980  0.2318
15027TIP3    H266497   0.019   5.125   1.362  0.9799 -0.8173  0.1581
15028TIP3   OH266498   3.140   6.249  12.118 -0.7093  1.0170 -0.4245
15028TIP3    H166499   3.159   6.276  12.028  0.0514  2.3006  0.0930
15028TIP3    H266500   3.074   6.311  12.148 -3.0326 -1.0420 -0.9156
15029TIP3   OH266501   3.696   6.145   1.995 -0.1582 -0.1529  0.0215
15029TIP3    H166502   3.641   6.154   1.917  0.1628 -1.7942 -0.4420
15029TIP3    H266503   3.715   6.051   2.000  1.2048  0.1429  1.1358
15030TIP3   OH266504   4.246   1.129  11.860  0.0176  0.1941  0.1674
15030TIP3    H166505   4.249   1.035  11.843 -0.2794  0.0479  0.8861
15030TIP3    H266506   4.222   1.168  11.776 -0.0452 -0.3850 -0.0870
15031TIP3   OH266507   2.398   2.164   1.277  0.4005  0.1587 -0.2645
15031TIP3    H166508   2.377   2.135   1.366  0.4968  0.3334 -0.1856
15031TIP3    H266509   2.374   2.089   1.222  2.9048 -1.0479  0.1627
15032TIP3   OH266510   3.291   3.237   3.857 -0.1455 -0.2268 -0.0686
15032TIP3    H166511   3.358   3.211   3.920 -0.2880  0.9138  0.5892
15032TIP3    H266512   3.239   3.158   3.843 -0.6313 -0.3148  1.9301
15033TIP3   OH266513   5.919   0.837  13.909 -0.5924  0.2353 -0.1537
15033TIP3    H166514   5.879   0.818  13.994  0.6360 -0.2550  0.3377
15033TIP3    H266515   5.915   0.933  13.902 -2.2391  0.1811 -0.3360
15034TIP3   OH266516   2.468   6.068  11.781 -0.5012 -0.3363 -0.1992
15034TIP3    H166517   2.445   5.990  11.730  0.4183 -1.7760  1.4789
15034TIP3    H266518   2.499   6.130  11.715  0.3823 -2.0168 -1.4811
15035TIP3   OH266519   3.566   3.374   0.401  0.2041  0.5998 -0.0782
15035TIP3    H166520   3.637   3.427   0.439 -0.7325  3.1605 -1.6332
15035TIP3    H266521   3.505   3.361   0.474  0.9258  0.7645  0.5816
15036TIP3   OH266522   6.484   2.961   2.171 -0.0997  0.0024  0.0750
15036TIP3    H166523   6.544   2.925   2.105 -0.9154  0.3348 -0.8753
15036TIP3    H266524   6.541   2.987   2.243  0.6618 -1.9893  0.2815
15037TIP3   OH266525   0.613   3.081  15.625  0.0701  0.3248 -0.2444
15037TIP3    H166526   0.547   3.026  15.584  1.9066 -1.4620 -0.9667
15037TIP3    H266527   0.653   3.024  15.691  1.9612  0.7982 -0.9394
15038TIP3   OH266528   5.600   3.386   0.783  0.3873  0.0213 -0.4498
15038TIP3    H166529   5.685   3.344   0.773  0.2682 -1.8480  4.0113
15038TIP3    H266530   5.618   3.464   0.836 -0.5812 -0.2292  0.2845
15039TIP3   OH266531   4.654   4.327   2.947  0.1968  0.0161  0.5507
15039TIP3    H166532   4.648   4.333   2.852  1.3689 -0.4886  0.4317
15039TIP3    H266533   4.748   4.318   2.965 -0.1753 -3.1840  1.5261
15040TIP3   OH266534   1.495   4.082  13.572 -0.4338 -0.2139 -0.0971
15040TIP3    H166535   1.570   4.028  13.546  2.8941  3.0264  1.8633
15040TIP3    H266536   1.438   4.022  13.620  2.2317 -2.3656  0.6351
15041TIP3   OH266537   6.612   1.157  16.987 -0.2637  1.3543 -0.1600
15041TIP3    H166538   6.637   1.073  17.026 -0.3618  0.1225 -2.5711
15041TIP3    H266539   6.657   1.223  17.040  0.1076 -0.2233  1.5731
15042TIP3   OH266540   0.888   6.652   0.104 -0.2026 -0.1517 -0.4165
15042TIP3    H166541   0.845   6.637   0.188  3.3109  0.7544  1.7827
15042TIP3    H266542   0.943   6.575   0.091 -1.2567 -0.6463 -2.4001
15043TIP3   OH266543   0.572   0.575   1.755 -0.4163 -0.1021 -0.1963
15043TIP3    H166544   0.551   0.536   1.840 -1.8127  0.2546 -0.3463
15043TIP3    H266545   0.641   0.638   1.774  0.4340 -1.1803  0.3834
15044TIP3   OH266546   5.526   4.394  13.128 -0.3752 -0.4103 -0.5855
15044TIP3    H166547   5.491   4.436  13.049  0.0574  1.0979 -0.0047
15044TIP3    H266548   5.485   4.307  13.129 -2.6973  0.6137 -0.8853
15045TIP3   OH266549   4.234   5.311   4.977 -0.0916  0.3396 -0.3887
15045TIP3    H166550   4.305   5.351   4.927  1.0855 -1.2933 -0.0790
15045TIP3    H266551   4.167   5.291   4.912  0.5792  0.0768 -1.0086
15046TIP3   OH266552   3.331   3.684  16.378 -0.1757  0.2104 -0.1066
15046TIP3    H166553   3.295   3.618  16.319 -0.0434 -0.3434  0.4190
15046TIP3    H266554   3.272   3.683  16.454 -0.4975  1.1053 -0.3386
15047TIP3   OH266555   2.559   3.145  15.354  0.0725  0.4642  0.5372
15047TIP3    H166556   2.634   3.182  15.308  0.1734 -1.8281 -1.2830
15047TIP3    H266557   2.597   3.097  15.427  0.0690  2.1125  1.6864
15048TIP3   OH266558   2.942   6.064  10.555 -0.0001  0.1750  0.3286
15048TIP3    H166559   2.953   6.058  10.460  0.6787  2.5723  0.1985
15048TIP3    H266560   2.998   5.994  10.589  0.7673  0.1039 -0.9956
15049TIP3   OH266561   5.043   6.092  12.162  0.0127  0.0156  0.5778
15049TIP3    H166562   5.119   6.119  12.110  0.7357 -1.9452  0.5036
15049TIP3    H266563   4.973   6.081  12.098  0.3314 -0.4204  0.2986
15050TIP3   OH266564   1.937   2.780  16.524 -0.1322 -0.4087  0.4216
15050TIP3    H166565   1.955   2.761  16.432  2.0994  1.1121  0.4663
15050TIP3    H266566   1.918   2.874  16.525 -2.9607 -0.8835  1.2190
15051TIP3   OH266567   3.652   0.764  14.288  0.3673  0.5006  0.6645
15051TIP3    H166568   3.731   0.724  14.251 -0.3433 -0.4335  0.0859
15051TIP3    H266569   3.613   0.694  14.341 -0.7410  0.4962 -0.1146
15052TIP3   OH266570   0.800   2.262  12.139 -0.0357 -0.2144 -0.4902
15052TIP3    H166571   0.754   2.305  12.067 -1.1393  0.6040  0.6742
15052TIP3    H266572   0.806   2.170  12.112 -1.9777 -0.2610 -0.8754
15053TIP3   OH266573   5.640   5.737   4.317 -0.1194  0.6432  0.5135
15053TIP3    H166574   5.618   5.743   4.224 -0.5701 -0.3648  0.5498
15053TIP3    H266575   5.637   5.828   4.347 -3.1790  0.7184  0.2639
15054TIP3   OH266576   2.783   3.804  14.685  0.6937  0.0128  0.7172
15054TIP3    H166577   2.853   3.834  14.742  1.9578 -0.6135 -0.4443
15054TIP3    H266578   2.724   3.879  14.676 -0.2676 -0.2300  3.8093
15055TIP3   OH266579   0.671   4.017  12.167  0.0055  0.4627 -0.7021
15055TIP3    H166580   0.583   4.051  12.184  0.7252  1.6294  0.8381
15055TIP3    H266581   0.675   4.011  12.071 -2.0367 -0.4616 -0.7904
15056TIP3   OH266582   0.899   6.412   0.508  0.1765 -0.2871 -0.0532
15056TIP3    H166583   0.878   6.393   0.599  0.0892 -1.8526 -0.3644
15056TIP3    H266584   0.839   6.357   0.457 -0.3010  1.1280 -1.0846
15057TIP3   OH266585   1.457   0.228   1.194  1.0846  0.1300  0.2625
15057TIP3    H166586   1.391   0.281   1.238  0.8976 -0.2775  0.4794
15057TIP3    H266587   1.538   0.248   1.240  1.2520  1.1476 -0.4378
15058TIP3   OH266588   6.259   4.996  12.445 -0.3148  0.0144  0.2391
15058TIP3    H166589   6.300   5.054  12.381 -1.4531 -1.3232 -1.7837
15058TIP3    H266590   6.320   4.996  12.519  1.4229  1.0661 -1.1086
15059TIP3   OH266591   0.916   2.749   0.834 -0.1912  0.3511 -0.5578
15059TIP3    H166592   0.913   2.656   0.854  0.8806  0.0799 -1.5038
15059TIP3    H266593   1.009   2.767   0.818 -0.4015  1.5405 -0.5472
15060TIP3   OH266594   1.131   3.459   3.001  0.2751  0.0668  0.1313
15060TIP3    H166595   1.107   3.551   2.995  1.3358  0.3549 -0.0599
15060TIP3    H266596   1.140   3.430   2.910  2.5948  0.5528  0.1300
15061TIP3   OH266597   1.593   5.939   6.481  0.0716  0.6531  0.3644
15061TIP3    H166598   1.516   5.899   6.441  0.9283 -1.2438  0.5140
15061TIP3    H266599   1.613   5.884   6.556  0.9317  1.7605  0.9904
15062TIP3   OH266600   5.033   4.615   2.832 -0.3018  0.0485 -0.2857
15062TIP3    H166601   5.059   4.687   2.889  3.6608 -0.2581 -1.4514
15062TIP3    H266602   5.065   4.639   2.746 -0.3453 -2.3767 -1.0617
15063TIP3   OH266603   1.353   3.367  15.865  0.3171  0.2361 -0.0409
15063TIP3    H166604   1.353   3.339  15.774 -0.2509  3.3910 -1.1456
15063TIP3    H266605   1.261   3.369  15.890  0.3842  0.6080  0.1801
15064TIP3   OH266606   5.769   6.148   3.164 -0.7207 -0.2478 -0.4506
15064TIP3    H166607   5.750   6.066   3.119 -0.0744  0.5467 -2.2757
15064TIP3    H266608   5.685   6.193   3.169 -1.0311 -0.8810  0.3445
15065TIP3   OH266609   4.543   2.543   4.561  0.6182 -0.0142 -0.3173
15065TIP3    H166610   4.511   2.472   4.617 -0.0710 -0.4425 -1.2269
15065TIP3    H266611   4.530   2.511   4.472 -0.0198  1.3738 -0.7634
15066TIP3   OH266612   0.391   3.915   1.184 -0.0392  0.6695 -0.1501
15066TIP3    H166613   0.374   3.821   1.173  0.7492  0.5392 -0.3677
15066TIP3    H266614   0.482   3.919   1.213 -0.2776  1.3373  0.5369
15067TIP3   OH266615   0.540   4.811  12.037  0.2004  0.1333  0.0344
15067TIP3    H166616   0.599   4.765  11.977  0.8678  0.5415  0.3658
15067TIP3    H266617   0.580   4.799  12.123 -0.9159 -0.7084  0.4551
15068TIP3   OH266618   0.192   6.293  12.054  0.4244 -0.7014 -0.3448
15068TIP3    H166619   0.184   6.279  12.149 -4.0085  0.1083 -0.3797
15068TIP3    H266620   0.170   6.209  12.015 -0.5940 -0.3163 -0.6174
15069TIP3   OH266621   6.236   4.145   3.966 -0.2565  0.0097 -0.3525
15069TIP3    H166622   6.167   4.211   3.959 -0.0804  0.1391 -0.9641
15069TIP3    H266623   6.202   4.070   3.917  0.2376  0.2519 -1.0743
15070TIP3   OH266624   0.090   0.181  15.498  0.1664  0.1070 -0.2582
15070TIP3    H166625   0.172   0.155  15.541 -0.3995  0.3600  1.0139
15070TIP3    H266626   0.043   0.098  15.486 -0.9761  0.2686  2.4204
15071TIP3   OH266627   1.777   3.573   2.113 -0.0118 -0.4414 -0.3950
15071TIP3    H166628   1.848   3.578   2.177 -0.0391 -2.1015 -0.1732
15071TIP3    H266629   1.790   3.489   2.069 -2.3579 -1.2723  0.3130
15072TIP3   OH266630   5.604   4.700  13.384  0.3149 -0.0040  0.1256
15072TIP3    H166631   5.612   4.610  13.414  2.7992  0.1279  0.0614
15072TIP3    H266632   5.622   4.695  13.290 -0.8989  0.4131 -0.1450
15073TIP3   OH266633   4.596   5.200  16.732 -0.3033  0.1938  0.6658
15073TIP3    H166634   4.681   5.197  16.689 -0.8298 -0.6160 -0.3625
15073TIP3    H266635   4.559   5.112  16.719 -1.9622  0.9802 -0.3420
15074TIP3   OH266636   5.031   2.521  14.977 -0.1495 -0.8485  0.6860
15074TIP3    H166637   4.992   2.606  14.960 -0.6829 -0.9053  1.5501
15074TIP3    H266638   5.074   2.531  15.062  1.0423 -1.0243  0.1172
15075TIP3   OH266639   4.275   4.609   5.128 -0.3090 -0.1650  0.5303
15075TIP3    H166640   4.181   4.628   5.132 -0.1563  0.6380  0.4065
15075TIP3    H266641   4.317   4.695   5.130  0.4102 -0.5002  0.1227
15076TIP3   OH266642   1.606   4.418   2.915  0.2401  0.4990 -0.4200
15076TIP3    H166643   1.671   4.349   2.902  1.5775  1.5389  0.4866
15076TIP3    H266644   1.611   4.472   2.836 -1.1415 -0.6462 -1.3431
15077TIP3   OH266645   2.766   3.989  15.557  0.2616 -0.2999  0.0839
15077TIP3    H166646   2.784   3.897  15.575 -1.6356 -0.8729 -0.7846
15077TIP3    H266647   2.674   4.001  15.579  0.4636  1.3994  0.1614
15078TIP3   OH266648   4.472   3.686   2.816 -0.2219  0.2685 -0.2831
15078TIP3    H166649   4.431   3.754   2.763 -0.6597 -0.0606 -0.3684
15078TIP3    H266650   4.492   3.615   2.755 -0.4202  0.0271 -0.0730
15079TIP3   OH266651   5.688   1.807  10.606 -0.2016  0.7234 -0.3448
15079TIP3    H166652   5.721   1.829  10.693 -1.7888 -0.0489  0.5007
15079TIP3    H266653   5.616   1.869  10.592  0.1559  0.9620 -1.1973
15080TIP3   OH266654   2.679   4.002  15.083  0.3915  0.0079 -0.0907
15080TIP3    H166655   2.645   4.086  15.051 -1.1893 -0.3679  0.5323
15080TIP3    H266656   2.681   3.946  15.005  0.1556  0.2219 -0.2543
15081TIP3   OH266657   3.793   2.801  13.604 -0.0212 -0.1547 -0.5322
15081TIP3    H166658   3.877   2.805  13.558 -0.1272 -0.1896 -0.7342
15081TIP3    H266659   3.784   2.710  13.631  0.5478  0.0970  0.5287
15082TIP3   OH266660   3.431   1.277   2.245 -0.3726 -0.1672 -0.0998
15082TIP3    H166661   3.426   1.289   2.150 -2.4978  0.4573  0.0345
15082TIP3    H266662   3.469   1.190   2.257  2.1883  0.6643 -1.4366
15083TIP3   OH266663   4.507   3.578  11.123 -0.6660  0.0334  0.5263
15083TIP3    H166664   4.487   3.491  11.089  0.7991  0.7490 -2.4094
15083TIP3    H266665   4.555   3.621  11.053 -0.6426  2.9638  2.1999
15084TIP3   OH266666   0.563   0.008   2.944  0.2194  0.5081  0.1089
15084TIP3    H166667   0.563  -0.074   2.894 -2.5451  0.0079  0.7311
15084TIP3    H266668   0.544   0.075   2.878  0.0845  0.3087 -0.0583
15085TIP3   OH266669   1.855   3.992   3.542  0.3259 -0.2554  0.9048
15085TIP3    H166670   1.925   3.927   3.535 -0.3828 -1.1441  1.7505
15085TIP3    H266671   1.881   4.062   3.483  0.3173 -2.0132 -1.3098
15086TIP3   OH266672   4.975   2.985  13.088  0.5688 -0.2510  0.5348
15086TIP3    H166673   4.951   2.932  13.164  1.4597 -0.7287  0.4938
15086TIP3    H266674   5.011   2.923  13.026  0.2940  0.2122 -0.0962
15087TIP3   OH266675   1.976   1.790   4.210 -0.1691  0.2993  0.3064
15087TIP3    H166676   2.029   1.755   4.138  0.9699 -0.6281  1.5461
15087TIP3    H266677   1.993   1.884   4.208  0.5750  0.1659 -0.0830
15088TIP3   OH266678   0.124   2.838  14.354 -1.1288  0.9116  0.1387
15088TIP3    H166679   0.214   2.811  14.376 -1.8639 -0.9365  1.1231
15088TIP3    H266680   0.120   2.930  14.379  0.4483  0.9971  0.2023
15089TIP3   OH266681   5.620   2.057  14.653 -0.1950  0.0733  0.2060
15089TIP3    H166682   5.681   2.100  14.592  0.7909 -0.9197  0.4648
15089TIP3    H266683   5.579   1.989  14.600 -0.1836 -0.0456  0.3511
15090TIP3   OH266684   2.556   3.797   5.193  0.1298 -0.2311 -0.3381
15090TIP3    H166685   2.582   3.822   5.281  0.0703  0.9516 -0.6467
15090TIP3    H266686   2.476   3.745   5.205  0.6307 -0.8616  0.3506
15091TIP3   OH266687   6.168   3.792  16.024 -0.2585 -0.0186  0.0728
15091TIP3    H166688   6.232   3.726  16.049 -0.1182  0.8362  2.2194
15091TIP3    H266689   6.210   3.841  15.953  0.7101 -0.5925  0.2368
15092TIP3   OH266690   5.661   1.846  17.031 -0.7903  0.0844  0.3034
15092TIP3    H166691   5.569   1.822  17.040 -0.6077 -0.4311  0.8505
15092TIP3    H266692   5.684   1.817  16.942 -1.3404  0.8859 -0.1106
15093TIP3   OH266693   0.046   0.820   4.936 -0.1730 -0.4412 -0.4147
15093TIP3    H166694  -0.036   0.854   4.900 -0.5891 -0.7330  0.2220
15093TIP3    H266695   0.033   0.824   5.031  1.0565  0.7185 -0.2595
15094TIP3   OH266696   2.634   3.064  13.202 -0.1379  0.6313 -0.4025
15094TIP3    H166697   2.627   3.159  13.211  0.9404  0.9719 -2.5333
15094TIP3    H266698   2.633   3.049  13.108 -1.8135 -1.6444 -0.1170
15095TIP3   OH266699   3.329   5.867   5.183  0.1953  0.2181  0.0883
15095TIP3    H166700   3.280   5.788   5.204 -0.1947  0.3110 -0.4455
15095TIP3    H266701   3.269   5.919   5.130  1.1140 -0.0131 -1.2461
15096TIP3   OH266702   3.278   6.667   6.473 -0.6089 -0.5507 -0.3095
15096TIP3    H166703   3.306   6.641   6.385 -0.7798  2.5689 -1.4102
15096TIP3    H266704   3.190   6.630   6.482 -0.8029 -0.4902 -1.7001
15097TIP3   OH266705   6.267   4.580  17.267 -0.5218  0.4521 -0.6280
15097TIP3    H166706   6.300   4.503  17.313 -1.8223  0.5754  0.5608
15097TIP3    H266707   6.314   4.579  17.183  0.6088 -0.7569 -0.0242
15098TIP3   OH266708   6.025   5.940   2.706  0.0709 -0.0178 -0.1282
15098TIP3    H166709   6.053   5.863   2.755  0.7007  0.4123  0.2125
15098TIP3    H266710   5.961   5.983   2.762 -0.1109 -0.1727 -0.2179
15099TIP3   OH266711   5.220   1.247  14.004 -0.0951 -0.2054 -0.5546
15099TIP3    H166712   5.223   1.241  13.908  1.5435  2.5520 -0.7798
15099TIP3    H266713   5.141   1.296  14.023  0.7675  1.3283 -0.7345
15100TIP3   OH266714   4.922   1.893  13.148 -0.7193 -0.5819 -0.2292
15100TIP3    H166715   4.848   1.943  13.115  1.2773  1.7687 -1.4551
15100TIP3    H266716   4.958   1.849  13.071  0.7232  0.5142 -0.2261
15101TIP3   OH266717   1.670   4.630  16.711 -0.3083 -0.2983 -0.6391
15101TIP3    H166718   1.615   4.648  16.788  0.0913  1.0443 -0.6377
15101TIP3    H266719   1.652   4.704  16.652  0.3072 -0.6817 -1.3153
15102TIP3   OH266720   0.033   5.517  13.667 -0.3172 -0.0707  0.1921
15102TIP3    H166721  -0.007   5.430  13.658  1.2344 -0.8192  0.2365
15102TIP3    H266722   0.121   5.500  13.700 -0.4439  1.6313  1.5281
15103TIP3   OH266723   1.753   6.267  13.182  0.0117 -0.2309  0.1146
15103TIP3    H166724   1.830   6.287  13.234 -1.0480  0.5332  1.4589
15103TIP3    H266725   1.725   6.180  13.213 -0.5737  0.1901  0.8020
15104TIP3   OH266726   4.299   4.359  13.670 -0.2967 -0.2233 -0.2593
15104TIP3    H166727   4.212   4.380  13.705  0.3644  0.6607  0.8941
15104TIP3    H266728   4.348   4.324  13.744  0.8912  0.9633 -0.4420
15105TIP3   OH266729   5.445   2.423  15.130  0.2610  0.2116 -0.6102
15105TIP3    H166730   5.526   2.399  15.176 -0.4349 -0.5248  0.2904
15105TIP3    H266731   5.426   2.512  15.159  0.8093  0.4293 -0.9165
15106TIP3   OH266732   6.746   5.460  15.513 -0.1096 -0.0480  0.4767
15106TIP3    H166733   6.724   5.552  15.500  1.7115  0.3933  0.3111
15106TIP3    H266734   6.673   5.412  15.474  0.3400  1.2974 -2.2337
15107TIP3   OH266735   3.822   0.419   2.231 -0.7513 -0.3974  0.4653
15107TIP3    H166736   3.741   0.397   2.186 -0.1882 -2.0984  0.1944
15107TIP3    H266737   3.890   0.377   2.179  0.4079  1.5534  0.3012
15108TIP3   OH266738   0.083   0.404   2.810  0.2394  0.1854  0.1613
15108TIP3    H166739   0.164   0.355   2.821  0.1747 -0.3635 -1.5003
15108TIP3    H266740   0.036   0.357   2.740 -1.4609  0.5477  0.9924
15109TIP3   OH266741   4.080   0.447  16.265 -0.1828 -0.1254 -0.6654
15109TIP3    H166742   4.147   0.500  16.223 -0.7304  2.0690  1.0226
15109TIP3    H266743   4.128   0.375  16.306  0.8727  0.2737 -1.1892
15110TIP3   OH266744   5.722   5.777   2.844 -0.2270 -0.0385 -0.1624
15110TIP3    H166745   5.699   5.743   2.757 -2.4405 -0.5841  0.5491
15110TIP3    H266746   5.697   5.706   2.904 -0.7867  1.1515  1.0552
15111TIP3   OH266747   4.970   3.072  11.315  0.3731  0.0950  0.0079
15111TIP3    H166748   4.927   3.033  11.238  0.7661  1.7762 -1.1210
15111TIP3    H266749   5.057   3.098  11.284  1.3509 -1.1025  1.6235
15112TIP3   OH266750   2.938   3.641   4.961  0.5227 -0.2847 -0.1366
15112TIP3    H166751   2.914   3.637   5.053 -1.4931 -1.3797 -0.6544
15112TIP3    H266752   2.942   3.735   4.942 -1.1937 -0.0259  0.5803
15113TIP3   OH266753   4.803   4.012   4.533 -0.0477 -0.4907 -0.0614
15113TIP3    H166754   4.842   3.925   4.535  0.0543 -0.4444  1.3968
15113TIP3    H266755   4.720   4.000   4.486 -1.0696 -1.8779  1.9242
15114TIP3   OH266756   2.428   5.951  13.794 -0.4872 -0.2280 -0.3643
15114TIP3    H166757   2.342   5.910  13.791 -0.5074 -0.2385  0.2713
15114TIP3    H266758   2.415   6.037  13.753 -0.6469 -0.4915 -0.8719
15115TIP3   OH266759   6.146   6.345   5.836 -0.4239 -0.1885 -0.0967
15115TIP3    H166760   6.218   6.397   5.872  0.9628 -1.8864 -0.2234
15115TIP3    H266761   6.114   6.395   5.761  0.2624  0.8656  0.3035
15116TIP3   OH266762   6.319   1.018  16.506  0.0533 -0.8985  0.2229
15116TIP3    H166763   6.230   1.009  16.471  0.3294  0.6771 -0.9943
15116TIP3    H266764   6.311   0.996  16.599 -1.1039 -3.2725 -0.3619
15117TIP3   OH266765   2.267   3.928   6.369 -0.4143  0.0252 -0.0649
15117TIP3    H166766   2.205   3.930   6.296 -0.7038 -2.0386  0.0460
15117TIP3    H266767   2.227   3.981   6.437 -1.1048  0.3302 -0.7019
15118TIP3   OH266768   1.905   3.529  10.890 -0.0961 -0.8497  0.1495
15118TIP3    H166769   1.946   3.613  10.909  0.7318 -1.1412 -0.2886
15118TIP3    H266770   1.864   3.541  10.805  2.0479 -1.5533 -1.0647
15119TIP3   OH266771   2.116   5.672   2.968  0.3792  0.3933  0.5413
15119TIP3    H166772   2.130   5.760   2.935 -1.3058  0.4851 -0.0300
15119TIP3    H266773   2.035   5.677   3.019 -0.0403 -0.9009  0.0685
15120TIP3   OH266774   6.417   4.706  12.609  0.3895 -0.2477  0.1219
15120TIP3    H166775   6.469   4.670  12.537  1.3472 -0.3938  0.8601
15120TIP3    H266776   6.430   4.801  12.602  0.1578 -0.2347 -0.1355
15121TIP3   OH266777   4.019   4.166  16.016 -0.1885  0.7591 -0.3035
15121TIP3    H166778   3.966   4.245  16.004 -0.3029  0.3988 -2.8304
15121TIP3    H266779   3.957   4.099  16.044 -1.0899  0.4475 -2.8208
15122TIP3   OH266780   2.786   3.341  10.932 -0.4317 -0.1836  0.0364
15122TIP3    H166781   2.868   3.386  10.910 -0.0357 -0.7057  0.4195
15122TIP3    H266782   2.762   3.295  10.852 -0.2385 -0.2013 -0.0124
15123TIP3   OH266783   2.105   4.060  15.508  0.0769  0.5278  0.1385
15123TIP3    H166784   2.168   4.089  15.574 -0.3861 -0.0259  0.8465
15123TIP3    H266785   2.109   3.964  15.513 -1.2692  0.4756  0.6531
15124TIP3   OH266786   1.430   0.498  12.411 -0.1818 -0.3671 -0.2778
15124TIP3    H166787   1.423   0.594  12.409 -0.7899 -0.3786  0.4844
15124TIP3    H266788   1.484   0.476  12.336 -1.7358  0.4310 -1.6885
15125TIP3   OH266789   1.995   0.662  17.001 -0.5452  0.1954 -0.2263
15125TIP3    H166790   2.004   0.751  16.966  0.4014  0.1068 -0.2486
15125TIP3    H266791   1.905   0.637  16.980 -0.2152  0.3754 -2.1037
15126TIP3   OH266792   3.619   6.144  16.128  0.2155  0.4579  0.0038
15126TIP3    H166793   3.571   6.221  16.159 -0.0862 -0.1041  0.9732
15126TIP3    H266794   3.614   6.149  16.032 -0.5778  1.1497  0.0743
15127TIP3   OH266795   0.193   1.165   5.956  0.2630  0.2714  0.4856
15127TIP3    H166796   0.158   1.131   5.873  1.5348  3.3176 -1.4930
15127TIP3    H266797   0.117   1.170   6.014 -0.9801 -0.6453 -0.9719
15128TIP3   OH266798   3.104   3.327   6.063  0.0193 -0.0930 -0.3152
15128TIP3    H166799   3.062   3.242   6.076 -1.2469  0.5357 -0.1690
15128TIP3    H266800   3.161   3.337   6.139 -0.1453 -0.6229 -0.1169
15129TIP3   OH266801   4.581   1.668  16.328 -0.1602 -0.7552 -0.1150
15129TIP3    H166802   4.651   1.683  16.392 -1.8210  0.3127  1.5648
15129TIP3    H266803   4.592   1.577  16.301  1.5610 -0.7582  0.4532
15130TIP3   OH266804   0.789   5.299   0.932  0.1168 -0.1545 -0.0089
15130TIP3    H166805   0.824   5.257   1.011 -1.1538 -0.9602  0.1459
15130TIP3    H266806   0.867   5.322   0.881  0.9230 -0.4348  1.0551
15131TIP3   OH266807   3.241   5.246   5.544  0.3458  0.4988  0.6011
15131TIP3    H166808   3.229   5.234   5.639 -1.6167  0.1781  0.3615
15131TIP3    H266809   3.273   5.162   5.512  0.8308  0.5486  0.9470
15132TIP3   OH266810   4.983   6.148  14.173  0.5682 -0.4331 -0.0185
15132TIP3    H166811   5.067   6.189  14.191  0.4683 -0.3810  0.3403
15132TIP3    H266812   5.003   6.078  14.110  0.5978  0.7587 -1.3911
15133TIP3   OH266813   4.905   6.152  12.530  0.1956  0.0908 -0.0882
15133TIP3    H166814   4.990   6.178  12.493  0.8647 -1.6079  0.1537
15133TIP3    H266815   4.908   6.182  12.620  0.4139  0.3129 -0.1694
15134TIP3   OH266816   5.395   3.779   2.080 -0.0789 -0.2410 -0.2804
15134TIP3    H166817   5.400   3.862   2.127  1.1719 -0.9953  0.9891
15134TIP3    H266818   5.409   3.713   2.147 -1.1138 -1.5109 -1.2555
15135TIP3   OH266819   6.595   3.078   1.204 -0.4460 -0.2168 -0.3129
15135TIP3    H166820   6.516   3.124   1.178  0.4605  2.5208  1.3203
15135TIP3    H266821   6.571   3.030   1.283 -0.7961 -0.5039 -0.5934
15136TIP3   OH266822   4.174   0.941   0.930  0.2079 -0.3088 -0.5226
15136TIP3    H166823   4.090   0.906   0.959 -0.3129  1.0981 -0.2640
15136TIP3    H266824   4.226   0.946   1.010 -0.1616  0.6631 -0.3258
15137TIP3   OH266825   4.021   6.075  15.198 -0.1138 -0.2790  0.4609
15137TIP3    H166826   4.017   6.058  15.292  0.2625  0.0734  0.5456
15137TIP3    H266827   4.054   5.994  15.160 -0.3481 -0.4492  0.6239
15138TIP3   OH266828   2.671   0.238   2.784  0.0178 -0.4712 -0.9842
15138TIP3    H166829   2.766   0.230   2.782  0.2652  1.3147  0.6753
15138TIP3    H266830   2.646   0.212   2.873 -0.5488  2.6157 -0.1066
15139TIP3   OH266831   4.032   3.320   2.523 -0.1233 -0.3751  0.2532
15139TIP3    H166832   3.984   3.247   2.561  0.3104 -1.5948 -1.4697
15139TIP3    H266833   4.089   3.281   2.458  0.7350  1.4196 -0.1426
15140TIP3   OH266834   0.006   5.430  14.640  0.1550 -0.2116 -0.6756
15140TIP3    H166835   0.074   5.379  14.684  1.2346  1.2756 -0.5480
15140TIP3    H266836   0.028   5.521  14.660 -1.5463  0.3294 -1.1377
15141TIP3   OH266837   1.896   1.640   5.561 -0.8373 -0.2381 -0.2522
15141TIP3    H166838   1.911   1.726   5.602  1.2829 -1.2390  1.2762
15141TIP3    H266839   1.892   1.659   5.468 -0.0222  1.4997  0.0121
15142TIP3   OH266840   4.428   1.771  14.861 -0.2218 -0.3645 -0.4047
15142TIP3    H166841   4.436   1.810  14.774  1.2680  0.1584 -0.0729
15142TIP3    H266842   4.503   1.712  14.868 -0.3475 -0.4334  0.4963
15143TIP3   OH266843   3.813   5.261   1.719  0.3729 -0.3920  0.2154
15143TIP3    H166844   3.748   5.304   1.776  1.2266  0.0656  0.8736
15143TIP3    H266845   3.849   5.332   1.667 -0.7349 -0.8784 -1.2856
15144TIP3   OH266846   0.311   5.364   5.610 -0.0431 -0.4474  0.0552
15144TIP3    H166847   0.405   5.366   5.628  0.1604 -0.5477 -0.9616
15144TIP3    H266848   0.286   5.456   5.599  0.1053 -0.4713 -0.5033
15145TIP3   OH266849   0.363   5.658  12.462  0.0287  0.2148 -0.5633
15145TIP3    H166850   0.383   5.747  12.436  1.5866 -0.1904 -0.8288
15145TIP3    H266851   0.366   5.659  12.558 -0.0675  0.4634 -0.5624
15146TIP3   OH266852   6.134   1.986   1.232  0.0946  0.0127 -0.1899
15146TIP3    H166853   6.057   1.952   1.186  0.5582  0.2677 -1.1925
15146TIP3    H266854   6.127   1.951   1.320  0.2066 -2.1535 -0.9872
15147TIP3   OH266855   2.505   4.308  13.187 -0.0941  0.5457  0.7730
15147TIP3    H166856   2.501   4.292  13.092 -0.3477 -0.2079  0.8988
15147TIP3    H266857   2.479   4.399  13.198  0.5602  0.8279  0.0627
15148TIP3   OH266858   5.348   6.549   0.522 -0.1874  0.2202 -0.1840
15148TIP3    H166859   5.368   6.491   0.595  1.0199  1.9780  0.9802
15148TIP3    H266860   5.267   6.515   0.485  0.0183 -1.6513  0.9798
15149TIP3   OH266861   0.410   6.707   1.451  0.0020 -0.1044 -0.4774
15149TIP3    H166862   0.493   6.746   1.480 -0.4598 -0.3945  1.4246
15149TIP3    H266863   0.430   6.614   1.440 -0.0552 -0.1696 -0.0467
15150TIP3   OH266864   6.032   6.509  11.129  0.0939  0.5527 -0.0502
15150TIP3    H166865   5.960   6.448  11.139  1.4420 -0.7574  2.5849
15150TIP3    H266866   6.054   6.505  11.036 -1.5774 -0.9447 -0.4280
15151TIP3   OH266867   0.826   6.735   1.754 -0.0327 -0.4496  0.2181
15151TIP3    H166868   0.890   6.751   1.684 -0.7364  1.3188 -0.0869
15151TIP3    H266869   0.857   6.656   1.798  2.8674  0.7976  0.6455
15152TIP3   OH266870   3.427   4.025  13.538 -0.3561 -0.1649  0.3270
15152TIP3    H166871   3.413   3.936  13.572 -2.3524  0.4905  1.4118
15152TIP3    H266872   3.448   4.012  13.445  2.9415 -1.9019  1.1483
15153TIP3   OH266873   2.883   5.101  12.187 -0.4439 -0.1278 -0.3134
15153TIP3    H166874   2.851   5.011  12.198  1.1178 -0.5997  0.7420
15153TIP3    H266875   2.975   5.090  12.161 -0.3113  1.1813 -0.4474
15154TIP3   OH266876   3.699   4.753  15.003 -0.2918 -0.3582  0.3408
15154TIP3    H166877   3.682   4.731  15.095 -0.9318 -0.0998  0.2892
15154TIP3    H266878   3.637   4.824  14.984  0.4456  0.1863 -0.0409
15155TIP3   OH266879   0.623   1.872  10.806 -0.0835  0.1950  0.1040
15155TIP3    H166880   0.561   1.825  10.861  0.7298 -0.3394  0.5783
15155TIP3    H266881   0.568   1.932  10.755 -1.1988 -1.5376 -0.8341
15156TIP3   OH266882   0.321   0.008   5.347  0.2564  0.3596 -0.0247
15156TIP3    H166883   0.361  -0.062   5.296  0.8037  0.7197 -0.1109
15156TIP3    H266884   0.382   0.082   5.338 -0.6093  1.0470 -0.4537
15157TIP3   OH266885   4.762   5.333   4.302 -0.1027 -0.7411 -0.0287
15157TIP3    H166886   4.726   5.343   4.390 -1.5832 -0.8129 -0.5907
15157TIP3    H266887   4.779   5.240   4.293  1.7230 -0.5129  0.7787
15158TIP3   OH266888   3.795   4.639  12.858  0.3203  0.4488 -0.1331
15158TIP3    H166889   3.849   4.691  12.799  1.6103  0.8844  1.3509
15158TIP3    H266890   3.858   4.595  12.915 -0.8551 -0.2129  0.6952
15159TIP3   OH266891   1.707   1.681  12.982  0.2194  0.0681  0.0032
15159TIP3    H166892   1.617   1.711  12.994 -0.0135 -0.5066 -0.2806
15159TIP3    H266893   1.715   1.606  13.042  0.5030  0.1050  0.0130
15160TIP3   OH266894   5.967   4.991   3.452  0.0733 -0.3137  1.0911
15160TIP3    H166895   5.896   4.979   3.388  0.3016  1.4732  0.4313
15160TIP3    H266896   6.042   4.946   3.414  0.0067  0.1191  0.4243
15161TIP3   OH266897   0.296   1.642  16.261 -0.0093 -0.4520 -0.0613
15161TIP3    H166898   0.317   1.728  16.296  0.2865 -0.9558  1.0349
15161TIP3    H266899   0.202   1.631  16.277 -0.0719 -0.2828 -0.3148
15162TIP3   OH266900   3.540   5.698  16.391  0.2714 -0.2013 -0.4766
15162TIP3    H166901   3.613   5.722  16.446  0.6140 -1.2123 -0.4657
15162TIP3    H266902   3.502   5.621  16.433  1.7478 -2.2377 -2.6283
15163TIP3   OH266903   4.888   1.600  12.933  0.3546 -0.0153 -0.2350
15163TIP3    H166904   4.924   1.605  12.845  0.2807  0.4008 -0.2416
15163TIP3    H266905   4.936   1.528  12.974  0.7134  0.0934 -0.4634
15164TIP3   OH266906   6.182   3.748  15.135 -0.2711 -0.5066 -0.1613
15164TIP3    H166907   6.114   3.779  15.194  1.0746  1.5546  0.4248
15164TIP3    H266908   6.163   3.791  15.052  0.9957  1.1738  0.3641
15165TIP3   OH266909   2.351   1.217  13.729  0.1753  0.1226 -0.1415
15165TIP3    H166910   2.440   1.185  13.713 -0.0949 -0.3843 -0.6214
15165TIP3    H266911   2.359   1.266  13.812  0.8498 -0.1076 -0.0603
15166TIP3   OH266912   0.164   4.350   0.453 -0.1202  0.1104  0.2428
15166TIP3    H166913   0.087   4.355   0.511 -0.2432  0.3148  0.0644
15166TIP3    H266914   0.230   4.405   0.495  0.4065 -1.1560  1.1097
15167TIP3   OH266915   1.290   3.811   4.644 -0.7508  0.5322 -0.0734
15167TIP3    H166916   1.223   3.876   4.625 -4.7109 -3.8382 -3.5259
15167TIP3    H266917   1.357   3.825   4.577 -2.1068  0.4979 -1.5013
15168TIP3   OH266918   3.036   0.876  14.868 -0.0136 -0.1801 -0.0203
15168TIP3    H166919   2.967   0.942  14.871  0.1261 -0.0679  0.9832
15168TIP3    H266920   3.024   0.833  14.783 -0.3558  0.8559 -0.5051
15169TIP3   OH266921   3.606   4.063   5.699 -0.2756  0.6193  0.1733
15169TIP3    H166922   3.514   4.075   5.719 -0.7556  0.2510 -1.5957
15169TIP3    H266923   3.629   4.141   5.648  0.2148  0.4249  0.0922
15170TIP3   OH266924   4.993   4.244   1.398  0.3510 -0.4566  0.3723
15170TIP3    H166925   4.978   4.166   1.345  0.6815 -0.2382 -0.0397
15170TIP3    H266926   5.087   4.261   1.391  0.2013  0.2775  0.0496
15171TIP3   OH266927   3.764   3.965  16.355  0.1830 -0.5581  0.1389
15171TIP3    H166928   3.738   3.875  16.370  1.1248 -1.0540 -1.0984
15171TIP3    H266929   3.799   3.966  16.266 -0.3086  1.1413 -0.0725
15172TIP3   OH266930   0.228   0.161  15.970 -0.3252  0.2900 -0.4024
15172TIP3    H166931   0.163   0.166  16.040  0.8200  1.7006  0.6311
15172TIP3    H266932   0.259   0.252  15.960  1.0841 -0.2489 -1.2358
15173TIP3   OH266933   2.728   0.593  14.840  0.1913 -0.6972  0.5270
15173TIP3    H166934   2.720   0.591  14.935 -0.5166 -1.1584  0.4639
15173TIP3    H266935   2.639   0.579  14.808  0.5249 -1.1924 -0.2022
15174TIP3   OH266936   1.079   1.584  15.504  0.1793  0.5053 -0.1124
15174TIP3    H166937   1.020   1.509  15.495 -0.2542  0.7211  0.9030
15174TIP3    H266938   1.022   1.661  15.498  0.4972  0.7381 -0.1794
15175TIP3   OH266939   0.112   6.343  14.902  0.1760 -0.3183 -0.3276
15175TIP3    H166940   0.141   6.414  14.845  1.7663  0.6170  1.5184
15175TIP3    H266941   0.165   6.268  14.875  1.5759  0.3564  0.4702
15176TIP3   OH266942   0.700   3.269  12.464 -0.3556  0.6118  0.1127
15176TIP3    H166943   0.687   3.304  12.552 -1.2821 -1.2001  0.7437
15176TIP3    H266944   0.688   3.345  12.406 -0.3695  1.7041  1.4847
15177TIP3   OH266945   6.716   5.776   2.216 -0.4758  0.1519 -0.1534
15177TIP3    H166946   6.622   5.763   2.225 -0.3232 -0.0404  1.5812
15177TIP3    H266947   6.744   5.709   2.153 -1.3315 -0.5821  0.2291
15178TIP3   OH266948   6.121   4.521   3.173 -0.0023  0.9057 -0.0632
15178TIP3    H166949   6.157   4.472   3.248  0.5400  0.8407 -0.3602
15178TIP3    H266950   6.198   4.551   3.125 -0.2862 -1.8443 -2.4686
15179TIP3   OH266951   6.672   5.638  14.184  0.2945  0.1229  0.6003
15179TIP3    H166952   6.667   5.661  14.091  0.5569 -1.9690  0.0081
15179TIP3    H266953   6.742   5.573  14.189  0.7547  0.6912  2.4056
15180TIP3   OH266954   2.249   6.096   1.736 -0.5397 -0.2102  0.0220
15180TIP3    H166955   2.311   6.035   1.777 -0.5071  0.0431  0.3580
15180TIP3    H266956   2.304   6.168   1.704 -0.7544  0.5720  1.3321
15181TIP3   OH266957   4.213   5.847  11.205 -0.4920 -0.1382 -0.1757
15181TIP3    H166958   4.221   5.752  11.218  0.7507  0.0541  0.6315
15181TIP3    H266959   4.139   5.872  11.259 -0.6317 -0.6058 -0.1446
15182TIP3   OH266960   2.018   4.108  14.020  0.1859 -0.3302  0.0662
15182TIP3    H166961   2.084   4.042  13.998 -0.4724 -1.2609  0.7974
15182TIP3    H266962   2.040   4.183  13.965  1.3007 -0.9501 -0.3668
15183TIP3   OH266963   5.646   4.781   0.237  0.0136 -0.3715 -0.4641
15183TIP3    H166964   5.692   4.852   0.281 -1.1645  0.0691  0.0961
15183TIP3    H266965   5.560   4.818   0.215 -0.3378 -1.3832 -0.8525
15184TIP3   OH266966   4.616   5.572   5.333 -0.5830  0.5146 -0.1511
15184TIP3    H166967   4.590   5.491   5.376  2.0067  0.7459  2.1084
15184TIP3    H266968   4.701   5.552   5.294 -0.9988  1.5274 -1.6882
15185TIP3   OH266969   4.991   5.126  16.734 -0.2392 -0.0938  0.2858
15185TIP3    H166970   5.049   5.077  16.674  0.8747  1.9649 -0.4304
15185TIP3    H266971   4.906   5.126  16.691  0.4370  0.9521 -1.1437
15186TIP3   OH266972   5.409   6.104   3.308  0.4232  0.2151 -0.2773
15186TIP3    H166973   5.469   6.161   3.260  1.3580  0.8904  1.5899
15186TIP3    H266974   5.366   6.051   3.240  0.9713  1.7606 -1.9017
15187TIP3   OH266975   3.407   2.459   4.373 -0.9180  0.0474  0.0126
15187TIP3    H166976   3.339   2.400   4.404 -1.1251  0.3795  0.1975
15187TIP3    H266977   3.464   2.404   4.319  0.2130 -0.8829  2.0124
15188TIP3   OH266978   1.389   3.279   3.764 -0.5783  0.0667 -0.2589
15188TIP3    H166979   1.404   3.305   3.855  1.0568 -0.3867 -0.3641
15188TIP3    H266980   1.377   3.362   3.717 -2.2736  0.2716  0.4705
15189TIP3   OH266981   0.263   3.126  12.346  0.0262 -0.3030  0.1177
15189TIP3    H166982   0.180   3.107  12.390  1.3868 -0.3502  2.8780
15189TIP3    H266983   0.330   3.108  12.412  2.0728  3.6698 -0.5684
15190TIP3   OH266984   4.995   0.064  15.675  0.1191 -0.2458  0.1054
15190TIP3    H166985   4.916   0.116  15.687  0.0415 -0.3208 -0.0840
15190TIP3    H266986   5.050   0.087  15.750 -1.2309 -2.2878  1.8692
15191TIP3   OH266987   6.580   2.397   6.755 -0.4812 -0.3881  0.1312
15191TIP3    H166988   6.492   2.390   6.790  0.1030  0.0670  1.8105
15191TIP3    H266989   6.598   2.491   6.753 -0.4054 -0.4209 -1.1989
15192TIP3   OH266990   0.179   5.214   0.169  0.5216 -0.4345 -0.4606
15192TIP3    H166991   0.191   5.271   0.092 -0.5596 -0.8336 -0.9517
15192TIP3    H266992   0.092   5.238   0.202  0.9297 -0.3563  0.5802
15193TIP3   OH266993   6.481   4.018   4.070 -0.2765 -0.5393 -0.2613
15193TIP3    H166994   6.389   4.028   4.047 -0.3584  0.2382  0.3795
15193TIP3    H266995   6.527   4.031   3.987 -0.5843  2.0598 -0.1134
15194TIP3   OH266996   5.951   3.536  13.823  0.2918 -0.1649  0.2347
15194TIP3    H166997   5.989   3.487  13.895  0.6071  0.6338  0.6300
15194TIP3    H266998   5.857   3.536  13.842  0.5394  1.9748  1.9648
15195TIP3   OH266999   5.077   6.625  15.108 -0.6834  0.3467 -0.2266
15195TIP3    H167000   5.100   6.683  15.181 -0.1560 -0.5233  0.3126
15195TIP3    H267001   5.114   6.540  15.132  0.3990  0.2851 -1.9837
15196TIP3   OH267002   3.047   2.510   3.009  0.4349 -0.1023 -0.1309
15196TIP3    H167003   3.002   2.566   3.072 -0.3030  0.3288 -1.0198
15196TIP3    H267004   3.140   2.519   3.030  0.2997  1.2034 -0.0470
15197TIP3   OH267005   2.633   2.024  16.074 -0.2027  0.2864 -0.0883
15197TIP3    H167006   2.679   1.951  16.032 -2.3841 -0.4466 -1.3736
15197TIP3    H267007   2.702   2.073  16.119  2.3470  0.9688 -4.2300
15198TIP3   OH267008   2.447   1.484  15.089 -0.2470  0.3714 -0.7733
15198TIP3    H167009   2.486   1.411  15.040  0.2174 -0.5552  0.8719
15198TIP3    H267010   2.510   1.502  15.158 -1.2739  1.0182  0.0211
15199TIP3   OH267011   4.119   6.174  14.850  0.2902  0.0505  0.0128
15199TIP3    H167012   4.035   6.129  14.842 -0.2416  1.0532 -0.2048
15199TIP3    H267013   4.184   6.104  14.842 -0.5233 -0.8635  1.0249
15200TIP3   OH267014   3.966   1.980   0.121 -0.7728  0.4126  0.4667
15200TIP3    H167015   3.945   1.935   0.203  0.9893 -1.8690 -0.2192
15200TIP3    H267016   4.049   2.023   0.137  0.1371 -0.9470 -0.3666
15201TIP3   OH267017   5.953   3.815   5.308 -0.2612  0.2767 -0.1935
15201TIP3    H167018   5.984   3.726   5.328 -1.3107 -1.0882 -3.7647
15201TIP3    H267019   6.018   3.849   5.246  0.2068  2.1359  1.2422
15202TIP3   OH267020   0.528   0.019   2.553  0.0379 -0.1305 -0.0412
15202TIP3    H167021   0.616   0.057   2.549 -0.0145 -0.0956 -1.0119
15202TIP3    H267022   0.490   0.036   2.467 -0.9692 -0.0466  0.4040
15203TIP3   OH267023   2.993   2.149   5.875 -0.5670  0.3916  0.7231
15203TIP3    H167024   2.929   2.207   5.833 -0.1342 -1.1330 -2.4078
15203TIP3    H267025   3.061   2.207   5.908 -0.7054  1.7964 -1.2699
15204TIP3   OH267026   3.161   1.513   6.486 -0.0041 -0.3868  0.0969
15204TIP3    H167027   3.246   1.498   6.444  0.2661 -0.1286  0.5381
15204TIP3    H267028   3.177   1.586   6.546 -0.2400 -1.1090  1.0589
15205TIP3   OH267029   3.461   5.896   1.396  0.3124 -0.3585  0.1992
15205TIP3    H167030   3.507   5.812   1.388 -1.0003 -1.1870  0.9492
15205TIP3    H267031   3.519   5.959   1.355  0.8430 -1.8135 -1.3985
15206TIP3   OH267032   5.807   3.459   2.995  0.0236 -0.4085 -0.2427
15206TIP3    H167033   5.715   3.433   2.986 -0.3333  0.0140  1.7553
15206TIP3    H267034   5.816   3.485   3.086  2.0363  0.0105 -0.5110
15207TIP3   OH267035   6.165   0.089  16.296 -0.0909  0.2137 -0.1267
15207TIP3    H167036   6.093   0.111  16.355  1.4422 -0.6549  2.2418
15207TIP3    H267037   6.159  -0.006  16.285  0.8855  0.0826  0.3966
15208TIP3   OH267038   4.168   3.589   2.479 -1.0675 -0.3487 -0.4848
15208TIP3    H167039   4.216   3.661   2.520 -0.1548 -0.8628 -0.6387
15208TIP3    H267040   4.081   3.592   2.520 -0.2842 -0.6510  1.2849
15209TIP3   OH267041   4.976   3.910   4.282  0.1271  0.6046 -0.3925
15209TIP3    H167042   5.040   3.852   4.323 -1.5974 -0.6652  0.6504
15209TIP3    H267043   4.993   3.996   4.321 -0.3746 -0.2239  1.8277
15210TIP3   OH267044   5.465   5.577   6.030  1.0058  0.0004 -0.0206
15210TIP3    H167045   5.425   5.656   6.068  0.5984  0.0833 -0.6054
15210TIP3    H267046   5.484   5.521   6.106  1.3208  0.6677  0.3990
15211TIP3   OH267047   2.038   4.106   1.565  0.2192  0.0840 -0.3067
15211TIP3    H167048   2.025   4.055   1.645  1.2398 -1.6255 -1.1852
15211TIP3    H267049   1.950   4.119   1.530 -0.3986  2.0677  1.7461
15212TIP3   OH267050   3.057   3.421  15.408 -0.0100 -0.5086  0.0243
15212TIP3    H167051   3.058   3.442  15.314 -1.0945 -1.8159 -0.3118
15212TIP3    H267052   2.966   3.433  15.434 -0.0934 -1.9560  0.4653
15213TIP3   OH267053   3.791   3.371  11.312  0.6205  0.2797 -0.8417
15213TIP3    H167054   3.786   3.276  11.297  1.4294  0.4190 -2.2184
15213TIP3    H267055   3.828   3.406  11.230  0.4203  1.7748 -0.3227
15214TIP3   OH267056   0.737   6.004  12.005 -0.5949  0.4350 -0.5253
15214TIP3    H167057   0.743   6.099  12.011  0.4180  0.3155  0.7606
15214TIP3    H267058   0.712   5.987  11.914  0.6863  1.8667 -1.1941
15215TIP3   OH267059   5.046   5.529   1.242 -0.4251 -0.3098 -0.1704
15215TIP3    H167060   4.997   5.449   1.263 -0.7955 -0.2523 -0.7957
15215TIP3    H267061   5.134   5.512   1.275 -0.9486 -0.2675  1.3099
15216TIP3   OH267062   5.872   4.852  13.942  0.0741  0.5053 -0.0863
15216TIP3    H167063   5.802   4.788  13.933 -0.2392  0.9817 -1.1857
15216TIP3    H267064   5.903   4.840  14.032 -1.6369  0.5048  0.5538
15217TIP3   OH267065   2.859   2.529  13.860 -0.5814  0.1116 -0.2820
15217TIP3    H167066   2.896   2.611  13.827  1.1632 -0.5338 -0.0509
15217TIP3    H267067   2.786   2.510  13.801 -1.3596  2.0674 -0.0252
15218TIP3   OH267068   2.842   5.282  10.816  0.3703 -0.5379 -0.0881
15218TIP3    H167069   2.821   5.189  10.803 -1.9827 -0.2038  0.7288
15218TIP3    H267070   2.782   5.310  10.884  0.8033  1.6796 -0.5483
15219TIP3   OH267071   5.020   3.111   4.073 -0.3090 -0.0084 -1.0218
15219TIP3    H167072   4.972   3.171   4.131 -0.3610 -0.8859 -0.1231
15219TIP3    H267073   4.962   3.035   4.065  1.1000 -1.3298  0.5451
15220TIP3   OH267074   5.881   2.883  15.061 -0.3090  0.2197 -0.2690
15220TIP3    H167075   5.787   2.870  15.067 -0.1408 -0.8217  0.5061
15220TIP3    H267076   5.898   2.896  14.968 -1.2361  0.6320 -0.3897
15221TIP3   OH267077   4.310   2.600  13.144 -0.2566  0.2189 -0.4692
15221TIP3    H167078   4.317   2.536  13.214  0.8630  0.7354 -0.0889
15221TIP3    H267079   4.362   2.563  13.072 -0.9651 -0.0614 -0.8457
15222TIP3   OH267080   0.685   0.110   1.244  0.6438 -0.2041  0.2296
15222TIP3    H167081   0.774   0.075   1.236  0.7731 -0.3591  1.9527
15222TIP3    H267082   0.630   0.046   1.199  1.1108 -1.6565  1.6244
15223TIP3   OH267083   5.234   2.876   2.577  0.6764 -0.3303 -0.0807
15223TIP3    H167084   5.207   2.785   2.564  0.5535 -0.5854  1.7655
15223TIP3    H267085   5.330   2.874   2.568  0.6334 -0.5295 -0.5514
15224TIP3   OH267086   0.802   3.711   0.288  0.8317  0.7046  0.4615
15224TIP3    H167087   0.745   3.785   0.266 -0.0595  0.0119  0.3400
15224TIP3    H267088   0.842   3.686   0.205  0.3921  0.4594  0.3198
15225TIP3   OH267089   2.268   1.570  12.796  0.0426 -0.4720  0.2398
15225TIP3    H167090   2.278   1.507  12.867 -1.2485  0.0222  0.9020
15225TIP3    H267091   2.209   1.527  12.734  0.4785 -0.5582 -0.1214
15226TIP3   OH267092   2.290   0.629  15.882 -0.3800  0.1015 -0.6588
15226TIP3    H167093   2.369   0.589  15.845 -0.2154 -1.3652  1.0993
15226TIP3    H267094   2.224   0.619  15.813  0.5203 -0.2347 -1.5003
15227TIP3   OH267095   4.108   4.167   3.128 -0.3199 -0.6786 -0.2501
15227TIP3    H167096   4.157   4.209   3.058  1.2066 -1.2245  0.4654
15227TIP3    H267097   4.145   4.080   3.136  0.3100 -0.2770  1.9266
15228TIP3   OH267098   6.166   3.857  14.585 -0.1072 -0.0998 -0.5211
15228TIP3    H167099   6.208   3.800  14.521  0.7421 -1.3842  1.1201
15228TIP3    H267100   6.073   3.857  14.561  0.2038 -0.4519 -1.7931
15229TIP3   OH267101   0.142   3.373   4.425 -0.2737 -0.1291  0.6251
15229TIP3    H167102   0.126   3.299   4.366  1.5852  0.5513 -0.8427
15229TIP3    H267103   0.215   3.421   4.384 -1.3511  2.4918  1.5394
15230TIP3   OH267104   3.828   4.742   1.173  0.5649 -0.6445 -0.3153
15230TIP3    H167105   3.814   4.741   1.078 -0.9598 -0.6690 -0.1107
15230TIP3    H267106   3.904   4.686   1.187  3.2402  2.2586 -1.8519
15231TIP3   OH267107   5.048   0.625   0.243  0.8597 -0.2883 -0.1022
15231TIP3    H167108   4.969   0.639   0.191  2.7610  1.2860 -2.7773
15231TIP3    H267109   5.064   0.531   0.237 -0.0246 -0.4113 -0.7145
15232TIP3   OH267110   4.376   5.581  15.575 -0.4067  0.1543  0.6205
15232TIP3    H167111   4.339   5.505  15.621  0.5028 -1.3022 -0.9188
15232TIP3    H267112   4.309   5.603  15.510  0.0070 -0.3714  0.0101
15233TIP3   OH267113   4.028   3.582   4.060 -0.2822  0.6854  0.0079
15233TIP3    H167114   4.122   3.564   4.052 -0.0510  2.2596 -1.2476
15233TIP3    H267115   4.006   3.549   4.147  0.8177 -2.1422 -0.6759
15234TIP3   OH267116   0.248   4.003   4.435  0.2461 -0.3139 -0.5101
15234TIP3    H167117   0.207   4.069   4.380 -0.1728 -0.6313 -0.5865
15234TIP3    H267118   0.341   4.007   4.412  0.3549  0.7970  0.0697
15235TIP3   OH267119   4.825   0.679   2.725 -0.2339  0.4231  0.1162
15235TIP3    H167120   4.884   0.713   2.659  1.2345 -0.6224  0.8404
15235TIP3    H267121   4.784   0.602   2.685 -0.7382  0.8520 -0.2040
15236TIP3   OH267122   2.853   2.985   2.031  0.5324 -0.0102  0.2496
15236TIP3    H167123   2.859   3.003   1.937  0.2632  0.0129  0.2368
15236TIP3    H267124   2.771   3.027   2.058  1.4625  1.5228  0.8299
15237TIP3   OH267125   4.634   6.695   2.117  0.3221  0.1501  0.2439
15237TIP3    H167126   4.580   6.666   2.190  1.5583 -0.7993  0.8338
15237TIP3    H267127   4.671   6.614   2.082  2.6384  0.8358  0.9119
15238TIP3   OH267128   5.796   1.673   4.473 -0.0382 -0.2350  0.8350
15238TIP3    H167129   5.856   1.725   4.421  0.2168 -0.2421  1.1191
15238TIP3    H267130   5.774   1.729   4.548  0.8114 -0.7987  1.5279
15239TIP3   OH267131   2.947   3.060   4.706 -0.4855  0.1465 -0.3007
15239TIP3    H167132   2.922   3.090   4.793  1.4737  1.0900 -0.0004
15239TIP3    H267133   2.999   3.133   4.670  0.0098 -0.8283 -1.6397
15240TIP3   OH267134   0.958   0.512   4.952  0.7728 -0.5556 -0.2869
15240TIP3    H167135   0.896   0.535   5.021 -0.0227 -0.2948 -1.0656
15240TIP3    H267136   1.042   0.503   4.997  0.7375  1.8377  0.3948
15241TIP3   OH267137   0.675   1.721  15.327 -0.4358  0.3373  0.2444
15241TIP3    H167138   0.749   1.660  15.327 -0.8301 -0.1549  0.6219
15241TIP3    H267139   0.613   1.683  15.265  0.2393  1.5293 -1.1937
15242TIP3   OH267140   1.482   2.898  16.044 -0.2485  0.5711 -0.6191
15242TIP3    H167141   1.458   2.979  16.089 -0.6333  0.9130 -1.4161
15242TIP3    H267142   1.531   2.928  15.967 -0.7223  0.0661 -1.1179
15243TIP3   OH267143   4.467   0.920   4.979 -0.3689 -0.0543 -0.0664
15243TIP3    H167144   4.544   0.903   5.032 -0.4549 -0.4000 -0.0482
15243TIP3    H267145   4.444   0.835   4.941  0.7081  0.4643 -2.0456
15244TIP3   OH267146   5.511   4.465  11.019 -0.3122  0.4213 -0.7420
15244TIP3    H167147   5.431   4.513  11.037 -0.1984  0.1749  0.4919
15244TIP3    H267148   5.567   4.482  11.094 -0.3346 -1.7544 -0.1591
15245TIP3   OH267149   1.464   0.514   0.919  0.2437 -0.5425  1.1925
15245TIP3    H167150   1.436   0.423   0.931  0.6638 -0.9491 -0.5999
15245TIP3    H267151   1.549   0.519   0.962  0.2807 -1.0386  1.1865
15246TIP3   OH267152   1.140   1.072  15.813  0.0156  0.2246 -0.0277
15246TIP3    H167153   1.206   1.079  15.881  0.9034  0.5854 -0.9088
15246TIP3    H267154   1.175   1.009  15.751 -0.8701 -0.2423 -0.0825
15247TIP3   OH267155   6.389   5.317  13.925 -0.4483  0.1063 -0.3232
15247TIP3    H167156   6.344   5.252  13.978  0.1245  0.7951  1.0464
15247TIP3    H267157   6.479   5.316  13.957  0.1888 -0.1774 -1.9891
15248TIP3   OH267158   0.002   5.990  12.330  0.6552 -0.2047  0.4328
15248TIP3    H167159   0.022   5.988  12.424 -3.0520 -1.4476  1.3719
15248TIP3    H267160  -0.036   6.077  12.315  1.8807  0.2580 -0.1458
15249TIP3   OH267161   6.482   4.819  15.572 -0.5429  0.9284  0.0434
15249TIP3    H167162   6.567   4.862  15.560  0.6548 -1.4236 -0.3310
15249TIP3    H267163   6.429   4.851  15.499  0.6206  1.0185 -0.7811
15250TIP3   OH267164   3.227   4.257   6.089 -0.6047  0.4276  0.1524
15250TIP3    H167165   3.174   4.185   6.123 -0.1999 -0.1188 -0.3636
15250TIP3    H267166   3.187   4.335   6.127 -1.4524 -0.0108  0.2007
15251TIP3   OH267167   5.957   4.693  15.495 -0.4243  0.1619  0.0492
15251TIP3    H167168   6.042   4.704  15.537  0.4359 -1.1552 -1.2689
15251TIP3    H267169   5.899   4.753  15.543  0.1574 -2.0245  3.8964
15252TIP3   OH267170   2.230   1.869   5.022  0.1572 -0.5080 -0.3304
15252TIP3    H167171   2.167   1.805   4.990 -0.8972  0.5030 -0.3139
15252TIP3    H267172   2.202   1.888   5.111  1.2877 -1.0255  0.1668
15253TIP3   OH267173   5.598   4.457  14.055  0.2232 -0.2202  0.2080
15253TIP3    H167174   5.565   4.547  14.048  1.0167  0.1213  0.7127
15253TIP3    H267175   5.661   4.460  14.127  1.4632 -0.7987 -0.8064
15254TIP3   OH267176   2.256   0.163   5.663  0.4393  0.0746  0.2144
15254TIP3    H167177   2.203   0.083   5.666 -1.4895  1.2174 -1.0629
15254TIP3    H267178   2.347   0.132   5.669 -0.2655 -2.1509  0.2538
15255TIP3   OH267179   0.988   2.672   4.946  0.2138  0.3694 -0.3885
15255TIP3    H167180   1.024   2.601   4.892  0.3988 -1.0762  1.5365
15255TIP3    H267181   1.030   2.751   4.911  1.5579 -0.6870 -1.3134
15256TIP3   OH267182   4.077   0.275   5.655  0.2970  0.1308  0.4211
15256TIP3    H167183   4.017   0.200   5.659  2.6067 -1.9576 -1.2385
15256TIP3    H267184   4.025   0.348   5.687 -2.6533 -1.8187  0.5150
15257TIP3   OH267185   1.416   3.299   2.431 -0.0918  0.0390  0.7007
15257TIP3    H167186   1.455   3.213   2.412 -0.0736 -0.2736  2.0781
15257TIP3    H267187   1.430   3.350   2.351  1.8188 -0.5390  0.6293
15258TIP3   OH267188   5.390   0.205   0.973  0.0780 -0.1349 -0.3852
15258TIP3    H167189   5.431   0.204   0.887 -0.2742 -0.2456 -0.5524
15258TIP3    H267190   5.448   0.259   1.027  0.1163  0.2195 -0.7815
15259TIP3   OH267191   1.579   4.737  12.051  0.7527  0.6628  0.0162
15259TIP3    H167192   1.517   4.787  12.104  0.4394  0.7224 -0.4075
15259TIP3    H267193   1.571   4.774  11.963  0.5625 -0.0940 -0.2928
15260TIP3   OH267194   3.854   0.877   2.650 -0.2524  0.3935 -0.6421
15260TIP3    H167195   3.840   0.808   2.715 -0.2331 -0.8663 -1.9365
15260TIP3    H267196   3.861   0.957   2.702  1.1304 -0.7282  1.0404
15261TIP3   OH267197   6.037   4.904  14.414  0.3010  0.2247 -0.0475
15261TIP3    H167198   6.041   4.899  14.510  1.6610  0.6990 -0.0616
15261TIP3    H267199   6.007   4.993  14.396  2.6447  1.0868 -0.0482
15262TIP3   OH267200   4.256   3.659   0.369  0.5908 -0.1299 -0.2371
15262TIP3    H167201   4.167   3.684   0.343  1.0294 -0.9632 -2.8078
15262TIP3    H267202   4.265   3.569   0.339  2.4173  0.0421 -0.3019
15263TIP3   OH267203   3.913   5.055  13.120  0.4038 -0.0621  0.8810
15263TIP3    H167204   3.914   5.051  13.025  0.5220 -0.6409  0.9071
15263TIP3    H267205   4.004   5.075  13.144  0.3872  0.0181  0.8784
15264TIP3   OH267206   2.803   2.889  12.897  0.7636  0.1187  0.8004
15264TIP3    H167207   2.708   2.898  12.893  0.8369  1.1263  1.1407
15264TIP3    H267208   2.818   2.794  12.897 -0.1464 -0.0643 -1.1743
15265TIP3   OH267209   6.703   0.808   1.546 -0.0888 -0.1245  0.1018
15265TIP3    H167210   6.724   0.719   1.575 -0.4298  0.1848  1.3627
15265TIP3    H267211   6.615   0.824   1.579 -0.7635  0.0369 -1.7006
15266TIP3   OH267212   4.232   4.569   3.119 -0.0372 -0.2252  0.2437
15266TIP3    H167213   4.283   4.540   3.194  0.0919 -0.5743  0.0222
15266TIP3    H267214   4.223   4.491   3.064 -1.4357 -0.3536  0.6325
15267TIP3   OH267215   3.256   2.656  14.822  0.0681 -0.3663  0.2987
15267TIP3    H167216   3.285   2.719  14.888  0.4108 -0.2229  0.0159
15267TIP3    H267217   3.165   2.636  14.846 -0.1375  0.4427  0.2424
15268TIP3   OH267218   1.641   5.176  10.885  0.1312  0.0072 -0.1218
15268TIP3    H167219   1.710   5.147  10.826  0.1326 -0.1587 -0.0413
15268TIP3    H267220   1.664   5.266  10.908  0.8492 -0.3539  0.6576
15269TIP3   OH267221   4.599   2.323   1.731 -0.1368  0.1176 -0.4570
15269TIP3    H167222   4.579   2.302   1.640 -2.0016  1.3155 -0.3761
15269TIP3    H267223   4.593   2.239   1.777 -3.3792  0.0656 -0.7812
15270TIP3   OH267224   2.491   4.178  12.954 -0.1547 -0.6360 -0.0075
15270TIP3    H167225   2.471   4.167  12.861 -0.9266 -0.4019  0.1162
15270TIP3    H267226   2.521   4.092  12.983  2.8732 -0.0391 -1.0886
15271TIP3   OH267227   1.848   4.468  16.552  0.0852  0.4304  0.3929
15271TIP3    H167228   1.855   4.493  16.460  1.1601  1.1905  0.6572
15271TIP3    H267229   1.793   4.536  16.591 -0.2474  0.1888  0.3561
15272TIP3   OH267230   1.923   1.640  15.124  0.4057 -0.6532  0.1670
15272TIP3    H167231   1.997   1.582  15.143 -0.2750 -0.6427  3.3673
15272TIP3    H267232   1.963   1.726  15.108  1.1875 -1.1322 -0.5230
15273TIP3   OH267233   0.242   1.971  13.350 -0.2290 -0.1380 -0.0235
15273TIP3    H167234   0.277   1.888  13.381 -1.4795 -0.8450 -0.4379
15273TIP3    H267235   0.190   2.004  13.423 -2.2196 -1.2350 -0.8811
15274TIP3   OH267236   6.633   1.921  10.483  0.2409 -0.3619 -0.7925
15274TIP3    H167237   6.647   1.910  10.389  1.0494  0.8473 -0.8427
15274TIP3    H267238   6.576   1.848  10.507  0.8739 -1.3034 -2.0064
15275TIP3   OH267239   4.602   6.313   5.182  0.1604 -0.1858  0.1720
15275TIP3    H167240   4.643   6.377   5.241  1.7649 -0.8423 -0.2082
15275TIP3    H267241   4.656   6.235   5.189 -1.7144 -1.5347  0.5636
15276TIP3   OH267242   2.536   5.686  14.313 -0.1942 -0.0338 -0.2497
15276TIP3    H167243   2.558   5.627  14.385  0.3799  0.2869 -0.1582
15276TIP3    H267244   2.569   5.772  14.341  0.7753 -0.0607 -1.2344
15277TIP3   OH267245   4.665   4.494  12.668  0.4801 -0.0404 -0.2562
15277TIP3    H167246   4.665   4.571  12.725  1.3638  1.0740 -1.6834
15277TIP3    H267247   4.576   4.460  12.674  0.2468  0.7250  0.8833
15278TIP3   OH267248   6.433   1.314  15.417  0.2810  0.2812 -0.0668
15278TIP3    H167249   6.345   1.292  15.448  0.4144  0.7290  0.6369
15278TIP3    H267250   6.418   1.352  15.330  0.0732 -3.2508 -1.7944
15279TIP3   OH267251   3.757   2.850   0.517 -0.2452  0.1911 -0.4964
15279TIP3    H167252   3.721   2.829   0.603 -0.7029 -0.4775 -0.8330
15279TIP3    H267253   3.772   2.944   0.519 -0.8953  0.2906  0.0762
15280TIP3   OH267254   0.472   6.527  11.129 -0.5438  0.2030  0.0416
15280TIP3    H167255   0.497   6.510  11.220  0.7467 -1.0625 -0.5146
15280TIP3    H267256   0.544   6.579  11.094 -0.6423 -0.0197 -0.4886
15281TIP3   OH267257   5.883   2.216   2.571  0.4089 -0.1927  0.1114
15281TIP3    H167258   5.827   2.156   2.620  1.5004 -0.5310  0.9945
15281TIP3    H267259   5.915   2.165   2.497  1.3567 -0.7366  0.8760
15282TIP3   OH267260   2.037   1.894  15.671  0.1559  0.3744  0.4252
15282TIP3    H167261   2.118   1.939  15.695 -0.9057  1.6226  1.8369
15282TIP3    H267262   2.058   1.801  15.676  1.4583  0.6834  0.8987
15283TIP3   OH267263   3.123   1.501   4.517  0.1823 -0.3309 -0.1232
15283TIP3    H167264   3.154   1.464   4.599 -3.5806 -1.0037  1.1818
15283TIP3    H267265   3.076   1.429   4.474 -0.1284  0.7121 -1.6217
15284TIP3   OH267266   2.761   0.202  12.123  0.0201 -0.5906 -0.1102
15284TIP3    H167267   2.849   0.206  12.085 -0.6537 -1.5521 -1.8963
15284TIP3    H267268   2.745   0.290  12.156  1.4709 -0.2704 -0.1987
15285TIP3   OH267269   2.912   1.205   3.928 -0.0243 -0.4973  0.0187
15285TIP3    H167270   2.826   1.233   3.895  0.1083  0.8405  0.7465
15285TIP3    H267271   2.906   1.217   4.023  0.6760 -1.2518  0.1609
15286TIP3   OH267272   4.340   0.748   5.632 -0.4525  0.1927 -0.0046
15286TIP3    H167273   4.412   0.765   5.694 -0.2720 -1.1246  0.1804
15286TIP3    H267274   4.384   0.729   5.549 -0.5507 -1.0782  0.2211
15287TIP3   OH267275   5.194   2.375   0.739  0.3469 -0.0325  0.0517
15287TIP3    H167276   5.251   2.425   0.681  0.6205 -1.3615 -0.8734
15287TIP3    H267277   5.186   2.429   0.818 -0.1468  1.8919 -1.2481
15288TIP3   OH267278   1.468   6.300  15.579  1.0355  0.1958  0.6755
15288TIP3    H167279   1.426   6.332  15.659  0.7795 -0.2157  0.7093
15288TIP3    H267280   1.396   6.264  15.527  1.0724  1.2443 -0.1326
15289TIP3   OH267281   2.770   6.183  12.149  0.1136  0.1095 -0.5422
15289TIP3    H167282   2.810   6.265  12.118 -0.1116  0.8122  0.9324
15289TIP3    H267283   2.677   6.195  12.132  0.1638 -0.1612 -1.0118
15290TIP3   OH267284   0.374   3.727   1.513  0.5561 -0.4194  0.2389
15290TIP3    H167285   0.452   3.781   1.525  0.0929  0.3730 -0.2132
15290TIP3    H267286   0.406   3.646   1.474  1.0852  0.1917 -0.6386
15291TIP3   OH267287   5.088   0.069  13.554 -0.4902  0.3554  0.1575
15291TIP3    H167288   5.012   0.022  13.588  0.2549 -0.4114  0.8006
15291TIP3    H267289   5.145   0.080  13.630 -0.7112  2.4918  0.0863
15292TIP3   OH267290   5.560   0.937  12.822  0.2246  0.6203  0.2948
15292TIP3    H167291   5.473   0.975  12.832  0.3559  0.8910  0.4366
15292TIP3    H267292   5.598   0.943  12.910 -1.3677 -3.9578  1.5637
15293TIP3   OH267293   4.627   1.343   5.968 -0.0716  0.1286 -0.5473
15293TIP3    H167294   4.634   1.397   6.048 -0.3326 -0.2527 -0.2650
15293TIP3    H267295   4.533   1.331   5.956 -0.0233 -2.4624  0.9022
15294TIP3   OH267296   3.013   4.789  14.617 -0.0628 -0.1532 -0.0384
15294TIP3    H167297   2.951   4.838  14.563 -0.0376 -0.2696 -0.1721
15294TIP3    H267298   3.067   4.856  14.658  1.1480 -0.1277 -1.6118
15295TIP3   OH267299   5.397   1.859  17.028  0.2727 -0.1314  0.3031
15295TIP3    H167300   5.355   1.789  16.978  0.2560  1.0623 -1.4470
15295TIP3    H267301   5.325   1.912  17.060  0.3292 -0.0971  0.3716
15296TIP3   OH267302   4.643   1.470  13.319 -0.1578  0.5370 -0.0900
15296TIP3    H167303   4.570   1.455  13.259  0.2464  0.9272 -0.6839
15296TIP3    H267304   4.653   1.565  13.320 -0.6807  0.5983  1.2266
15297TIP3   OH267305   1.653   3.672  12.402  0.1942 -0.0710  0.2099
15297TIP3    H167306   1.718   3.652  12.335 -0.5741  0.7957 -0.8266
15297TIP3    H267307   1.694   3.645  12.484  1.4041 -0.5727 -0.5342
15298TIP3   OH267308   0.078   5.326   2.085 -0.5437 -0.1148 -0.2967
15298TIP3    H167309   0.078   5.281   2.001 -0.1647 -0.8966  0.1202
15298TIP3    H267310   0.036   5.265   2.145  3.0488 -1.4719  1.0731
15299TIP3   OH267311   2.389   2.079   5.278 -0.1351  0.6528 -0.8539
15299TIP3    H167312   2.386   2.010   5.344  1.0826  1.2207 -0.1674
15299TIP3    H267313   2.298   2.109   5.271 -0.3014  0.6108  0.6259
15300TIP3   OH267314   0.455   3.645   0.219  0.3755 -0.1773 -0.1028
15300TIP3    H167315   0.470   3.621   0.310 -1.1379  0.9314  0.4866
15300TIP3    H267316   0.427   3.564   0.177  1.0721 -0.6945  0.4078
15301TIP3   OH267317   5.095   1.761  16.673  0.3387  0.1800 -0.0455
15301TIP3    H167318   5.021   1.705  16.695  0.4515 -0.4789 -1.2383
15301TIP3    H267319   5.066   1.808  16.595  0.3441  1.6139  0.7855
15302TIP3   OH267320   5.123   3.428   3.502  0.2760 -0.0492  0.1102
15302TIP3    H167321   5.157   3.346   3.467 -0.6329 -1.1239  1.5993
15302TIP3    H267322   5.156   3.432   3.592  0.8407  1.5640 -0.1274
15303TIP3   OH267323   5.345   5.210   1.882  0.3885 -0.0127  0.3532
15303TIP3    H167324   5.295   5.129   1.872 -0.8794  0.4903  2.1237
15303TIP3    H267325   5.303   5.272   1.822  0.8287 -0.3946 -0.3729
15304TIP3   OH267326   2.845   3.281  13.528 -0.2814 -0.4866 -0.7316
15304TIP3    H167327   2.878   3.245  13.445 -2.5826 -0.3196 -1.8152
15304TIP3    H267328   2.808   3.366  13.503 -0.6693 -0.2682  0.5484
15305TIP3   OH267329   3.586   0.724  11.790 -0.4359 -0.1797  0.1946
15305TIP3    H167330   3.551   0.751  11.705 -0.6506  0.1549  0.3892
15305TIP3    H267331   3.629   0.802  11.825 -2.4843  0.4356  1.5018
15306TIP3   OH267332   1.458   5.875  11.025 -0.1072 -0.2899 -0.4326
15306TIP3    H167333   1.473   5.967  11.047  0.1853 -0.6050  0.8198
15306TIP3    H267334   1.409   5.877  10.944 -3.6693  1.1217  1.5197
15307TIP3   OH267335   0.764   0.230   2.016 -0.5007  0.3481  0.7979
15307TIP3    H167336   0.764   0.200   2.107  1.4442 -0.2461  0.6446
15307TIP3    H267337   0.848   0.275   2.005  0.1582 -1.2248 -1.1857
15308TIP3   OH267338   0.567   6.488   1.727  0.2560 -0.2146  0.1666
15308TIP3    H167339   0.550   6.527   1.642 -1.3825 -0.7514  0.2185
15308TIP3    H267340   0.480   6.465   1.761  0.8174  0.4449  2.1975
15309TIP3   OH267341   1.480   4.915   2.836 -0.7528  0.4013 -0.1497
15309TIP3    H167342   1.452   4.824   2.846  1.5681 -0.6072 -1.7609
15309TIP3    H267343   1.400   4.967   2.846 -2.3139 -1.8881 -0.1393
15310TIP3   OH267344   2.722   5.702  16.406  0.2830 -0.6030  0.3666
15310TIP3    H167345   2.689   5.712  16.317 -1.5987 -1.0826  0.9491
15310TIP3    H267346   2.749   5.791  16.431 -1.6747  0.1053  0.1843
15311TIP3   OH267347   4.535   4.474   4.115 -0.3088  0.4658  0.2111
15311TIP3    H167348   4.462   4.422   4.083 -0.8701  0.1443  1.9288
15311TIP3    H267349   4.577   4.419   4.182  0.6027  1.2348  0.2957
15312TIP3   OH267350   2.974   5.492   1.456  0.4723 -0.5967  0.5949
15312TIP3    H167351   3.016   5.407   1.464  0.3017 -0.6946  0.4567
15312TIP3    H267352   3.021   5.548   1.517 -0.3752 -1.1631  1.8000
15313TIP3   OH267353   5.908   0.396  17.098  0.0360  0.0638  0.1057
15313TIP3    H167354   5.892   0.464  17.164  0.5418  0.1646  0.1289
15313TIP3    H267355   5.924   0.316  17.149  1.5805  0.3778  0.1642
15314TIP3   OH267356   3.504   4.707   4.195  0.2120 -0.7692 -0.0210
15314TIP3    H167357   3.528   4.700   4.287  0.1249 -1.2753 -0.0334
15314TIP3    H267358   3.507   4.617   4.162  0.5321 -0.5590 -0.5868
15315TIP3   OH267359   6.650   1.095   3.130  0.2101 -0.8494  0.1173
15315TIP3    H167360   6.628   1.003   3.114  1.4971 -1.2763  0.6965
15315TIP3    H267361   6.659   1.100   3.225  1.3831 -0.4215 -0.0072
15316TIP3   OH267362   5.739   1.974  13.892  0.4166 -0.4303  0.6685
15316TIP3    H167363   5.793   2.052  13.902  1.3073 -0.8602 -0.4792
15316TIP3    H267364   5.704   1.957  13.979  1.1660  0.5688  1.1801
15317TIP3   OH267365   4.523   3.263   4.524 -0.0195 -0.0672 -0.0119
15317TIP3    H167366   4.464   3.193   4.497  0.9521 -0.8086 -0.2215
15317TIP3    H267367   4.582   3.223   4.588  0.1322  0.7230  0.3636
15318TIP3   OH267368   6.053   2.495   6.020  0.1908 -0.1209 -0.0633
15318TIP3    H167369   6.137   2.475   5.978  0.7869 -0.0203  1.0590
15318TIP3    H267370   6.007   2.548   5.955  1.3116  0.4907 -0.4015
15319TIP3   OH267371   4.010   5.968  14.331  0.4759  0.0983 -0.1138
15319TIP3    H167372   4.090   5.976  14.279  1.5024  1.8175  1.6267
15319TIP3    H267373   4.016   6.038  14.395 -1.3696 -1.1511  1.5221
15320TIP3   OH267374   4.009   0.872  13.010 -0.5952  0.3089 -0.4142
15320TIP3    H167375   4.053   0.807  13.065 -1.6255 -0.0683 -0.0284
15320TIP3    H267376   4.007   0.951  13.063  0.7043  0.7116 -0.9025
15321TIP3   OH267377   0.800   4.109  16.942 -0.0244 -0.2529  0.2430
15321TIP3    H167378   0.725   4.098  17.000 -0.8467  2.5469 -0.1586
15321TIP3    H267379   0.788   4.041  16.875 -2.1813  0.0802  0.2252
15322TIP3   OH267380   4.765   5.726   0.579 -0.5319  0.3279  0.2999
15322TIP3    H167381   4.803   5.734   0.666 -0.9245 -1.2619  0.6507
15322TIP3    H267382   4.694   5.662   0.589  2.3543 -3.6549 -2.0077
15323TIP3   OH267383   6.313   4.159  13.373  0.2456  0.2717  0.1937
15323TIP3    H167384   6.354   4.245  13.381  0.0174  0.4069 -0.0614
15323TIP3    H267385   6.318   4.139  13.279  0.1220  0.0967  0.2243
15324TIP3   OH267386   6.513   5.472  14.529  0.1905  0.2012 -0.2726
15324TIP3    H167387   6.470   5.529  14.592  0.5467  0.8638 -0.6094
15324TIP3    H267388   6.596   5.448  14.570 -0.0600 -0.2581 -0.0363
15325TIP3   OH267389   3.747   4.082  12.433  0.4904  0.7022 -0.5612
15325TIP3    H167390   3.829   4.129  12.416  0.2320  1.4572  0.2275
15325TIP3    H267391   3.773   3.990  12.440  1.8273  1.2089  2.9093
15326TIP3   OH267392   3.780   4.019  14.899 -0.5271 -0.1953 -0.3679
15326TIP3    H167393   3.792   4.114  14.908  1.3452 -0.3343 -0.8088
15326TIP3    H267394   3.737   4.009  14.814  1.1823  0.2096 -1.3255
15327TIP3   OH267395   6.649   1.395  14.933  0.2879  0.2449 -0.4291
15327TIP3    H167396   6.582   1.330  14.915  0.5432 -0.7320  1.8490
15327TIP3    H267397   6.638   1.461  14.864 -0.4838 -1.7741 -2.3439
15328TIP3   OH267398   2.294   0.111  16.400  0.1780  0.1080 -0.6198
15328TIP3    H167399   2.346   0.173  16.452  2.2346 -0.4721 -1.8705
15328TIP3    H267400   2.251   0.056  16.466  0.6668  0.9992  0.4859
15329TIP3   OH267401   0.359   0.294  14.850 -0.0711 -0.2941  0.2980
15329TIP3    H167402   0.293   0.226  14.841 -1.1414  0.8610 -1.0495
15329TIP3    H267403   0.329   0.348  14.923  0.2277 -0.6384  0.6853
15330TIP3   OH267404   4.639   0.996  14.419 -0.2743 -0.3320  0.0821
15330TIP3    H167405   4.617   1.089  14.423 -1.9810 -0.6793 -0.1858
15330TIP3    H267406   4.712   0.991  14.357 -0.7945  0.7417 -0.6512
15331TIP3   OH267407   6.089   1.146   6.482 -0.1262  0.2246  0.6292
15331TIP3    H167408   6.106   1.138   6.388 -2.0991  1.6654  0.0720
15331TIP3    H267409   6.172   1.173   6.519  0.7720 -0.6399 -0.6521
15332TIP3   OH267410   4.937   4.674   5.801  0.0975 -0.1201 -0.3939
15332TIP3    H167411   4.892   4.753   5.769  0.8485  1.2919  1.8195
15332TIP3    H267412   4.887   4.646   5.877  0.9185 -0.6408 -0.0229
15333TIP3   OH267413   0.873   5.392  15.664 -0.6044 -0.6564 -0.1277
15333TIP3    H167414   0.950   5.421  15.714  0.2573 -0.1587 -1.6901
15333TIP3    H267415   0.802   5.448  15.697  0.1438  0.3072 -0.1140
15334TIP3   OH267416   4.827   3.457   3.806  0.1242  0.3823  0.2052
15334TIP3    H167417   4.821   3.521   3.877 -0.9667  0.6305 -0.0936
15334TIP3    H267418   4.903   3.403   3.829  0.8833  1.5822  0.6224
15335TIP3   OH267419   6.758   3.853   4.523 -0.2042 -0.4980  0.3969
15335TIP3    H167420   6.758   3.760   4.500 -0.5148 -0.6656  1.0488
15335TIP3    H267421   6.850   3.878   4.523 -0.0517 -1.0410  1.1551
15336TIP3   OH267422   3.729   5.155  15.305  0.5145 -0.0159 -0.5639
15336TIP3    H167423   3.784   5.099  15.360  1.6576  1.5416 -0.0483
15336TIP3    H267424   3.708   5.100  15.229 -0.2523 -1.8605  0.8994
15337TIP3   OH267425   4.856   3.247   5.281  0.0031 -0.3167 -0.4874
15337TIP3    H167426   4.826   3.302   5.208  1.3431 -0.1058 -0.9157
15337TIP3    H267427   4.872   3.309   5.352 -1.7748 -0.5788  0.1761
15338TIP3   OH267428   0.586   6.059   4.919 -0.4675 -0.6909  0.0434
15338TIP3    H167429   0.664   6.016   4.953  1.1065  0.0204 -2.4006
15338TIP3    H267430   0.513   6.016   4.964  1.2580 -2.0173  1.7295
15339TIP3   OH267431   5.154   0.507   3.439 -0.4922 -0.3358  0.8689
15339TIP3    H167432   5.068   0.491   3.401  0.4683  0.0094 -1.7211
15339TIP3    H267433   5.150   0.596   3.474 -1.0582 -0.1260  0.2855
15340TIP3   OH267434   6.272   3.092   3.215  0.8166 -0.0329 -0.1975
15340TIP3    H167435   6.189   3.130   3.244  1.4713  1.1744  0.1476
15340TIP3    H267436   6.280   3.010   3.264 -0.5274 -0.5559 -0.8088
15341TIP3   OH267437   0.272   2.404  16.897 -0.4215 -0.0665 -0.1658
15341TIP3    H167438   0.353   2.384  16.943 -0.6548 -2.5761 -0.6847
15341TIP3    H267439   0.289   2.382  16.805 -0.9303  1.8450 -0.7649
15342TIP3   OH267440   0.274   5.560   1.067 -0.8916  0.1819  0.6235
15342TIP3    H167441   0.231   5.633   1.022  1.3162  0.8328 -0.5689
15342TIP3    H267442   0.302   5.502   0.996  1.5905  0.6097  1.1847
15343TIP3   OH267443   2.140   2.232   5.110  0.6649 -0.5893 -0.0153
15343TIP3    H167444   2.128   2.198   5.021 -0.3341 -1.8761  0.5843
15343TIP3    H267445   2.121   2.158   5.167  0.4469  0.4482  1.3120
15344TIP3   OH267446   5.422   3.127   0.468 -0.2008  0.2200  0.1130
15344TIP3    H167447   5.516   3.147   0.473 -0.3421  0.5950  1.5245
15344TIP3    H267448   5.388   3.188   0.403  0.2845  1.0955  0.6670
15345TIP3   OH267449   3.284   4.495   5.155  0.1923 -0.7194 -0.2234
15345TIP3    H167450   3.285   4.406   5.122 -0.2027 -0.9311  0.3252
15345TIP3    H267451   3.363   4.502   5.208 -1.3075 -1.7606  2.3203
15346TIP3   OH267452   5.303   6.097   4.455  0.3064  0.0294  0.6137
15346TIP3    H167453   5.276   6.022   4.508  0.8133 -0.7063 -0.1200
15346TIP3    H267454   5.247   6.169   4.483 -1.4370 -1.0655  0.1364
15347TIP3   OH267455   0.482   1.811  16.383  0.7399 -0.5849  0.2271
15347TIP3    H167456   0.547   1.877  16.405  1.3229 -1.5009  1.3588
15347TIP3    H267457   0.523   1.757  16.316  1.1889 -1.2068  0.9936
15348TIP3   OH267458   3.998   0.349   5.964  0.1086 -0.5874  0.7897
15348TIP3    H167459   4.089   0.378   5.949 -0.2690  0.5224  0.5484
15348TIP3    H267460   3.952   0.429   5.990 -1.5554 -0.4141 -2.3182
15349TIP3   OH267461   6.135   0.356   2.397  0.2110 -0.1101  0.2057
15349TIP3    H167462   6.144   0.332   2.489 -1.2320  0.6069  0.5689
15349TIP3    H267463   6.107   0.448   2.400 -0.2247 -0.1948 -0.9293
15350TIP3   OH267464   2.331   2.042   3.057  0.3924 -0.3046  0.6624
15350TIP3    H167465   2.372   2.128   3.060  0.9206 -0.5007 -0.3886
15350TIP3    H267466   2.267   2.043   3.128  1.0868  0.5901  1.2982
15351TIP3   OH267467   6.139   4.317   2.797  0.1636 -0.0715 -0.0579
15351TIP3    H167468   6.150   4.412   2.789  0.3551 -0.1884 -1.5644
15351TIP3    H267469   6.175   4.282   2.715 -2.0709 -1.2512 -0.6195
15352TIP3   OH267470   0.995   1.569  11.366 -0.4909 -0.8078 -0.2467
15352TIP3    H167471   1.023   1.549  11.276 -1.6857 -0.1913 -0.7745
15352TIP3    H267472   1.071   1.548  11.419  0.5475 -0.3737 -1.4959
15353TIP3   OH267473   4.341   5.089   0.101  0.5070 -0.4325 -0.3015
15353TIP3    H167474   4.259   5.057   0.064  0.5886 -1.4408  0.3684
15353TIP3    H267475   4.353   5.039   0.181  1.1275  0.6188  0.2874
15354TIP3   OH267476   6.416   6.248  11.021  0.3141 -0.0627  0.5475
15354TIP3    H167477   6.462   6.328  10.997 -1.5563  1.6070  2.1057
15354TIP3    H267478   6.345   6.241  10.957 -1.6959  1.6521  2.4141
15355TIP3   OH267479   0.716   3.076  11.417  0.0003  0.2093  0.1952
15355TIP3    H167480   0.770   3.143  11.375 -1.1109  1.0366  0.0301
15355TIP3    H267481   0.647   3.126  11.461 -1.7590 -0.8867 -1.2142
15356TIP3   OH267482   5.738   1.543  17.334 -0.3362 -0.3149 -0.3199
15356TIP3    H167483   5.692   1.497  17.264 -0.0578  0.5208 -1.0673
15356TIP3    H267484   5.787   1.612  17.289  0.4297 -0.2280  0.6222
15357TIP3   OH267485   2.196   2.377   1.554  0.0377 -0.0274 -0.2244
15357TIP3    H167486   2.133   2.397   1.486  0.5755 -0.9303 -1.0102
15357TIP3    H267487   2.164   2.423   1.632 -0.5185  1.1041 -1.1090
15358TIP3   OH267488   3.148   5.009  12.265  0.3095  0.4087 -0.5774
15358TIP3    H167489   3.212   4.942  12.291 -1.0820 -0.2830  1.2675
15358TIP3    H267490   3.081   5.006  12.333  1.5979  5.7598  1.3937
15359TIP3   OH267491   3.162   0.068  14.541  0.0877  0.4437  0.4785
15359TIP3    H167492   3.117   0.139  14.494 -0.5910 -0.4113 -0.2106
15359TIP3    H267493   3.243   0.108  14.573  0.9285  0.9230 -2.0188
15360TIP3   OH267494   4.488   6.354  16.428  0.2897 -0.1232  0.4786
15360TIP3    H167495   4.581   6.344  16.409 -0.1218 -2.1053 -0.7898
15360TIP3    H267496   4.468   6.282  16.488 -0.1641  1.1773  1.9529
15361TIP3   OH267497   3.107   3.589   5.682 -0.2589  0.0679  0.2893
15361TIP3    H167498   3.161   3.554   5.611  0.7488 -0.0049  1.0701
15361TIP3    H267499   3.035   3.526   5.690  0.9535 -1.3161  0.9684
15362TIP3   OH267500   4.836   0.378   5.132 -0.1488  1.2393  0.3230
15362TIP3    H167501   4.917   0.426   5.114 -0.3040  1.7057  0.8322
15362TIP3    H267502   4.771   0.420   5.075  0.3876 -0.5521 -1.7550
15363TIP3   OH267503   1.089   3.279   3.912 -0.1369  0.3166  0.1043
15363TIP3    H167504   1.106   3.371   3.893 -0.7331  0.7177  1.3933
15363TIP3    H267505   0.994   3.270   3.909 -0.3230  0.4690  2.8387
15364TIP3   OH267506   2.846   0.686   2.204  0.2049 -0.2675 -0.4783
15364TIP3    H167507   2.773   0.696   2.264 -1.3408 -0.5663 -2.1988
15364TIP3    H267508   2.816   0.621   2.140  2.8099 -2.0078 -0.0911
15365TIP3   OH267509   5.983   6.355   1.163  0.2785 -0.0980  0.4958
15365TIP3    H167510   5.985   6.276   1.217 -0.2850 -0.7848 -0.4556
15365TIP3    H267511   5.895   6.356   1.125  0.7754  0.1749 -0.6843
15366TIP3   OH267512   3.826   4.844   5.015  0.1902  0.1752  0.2446
15366TIP3    H167513   3.787   4.913   5.069 -0.1513 -1.1402  1.7677
15366TIP3    H267514   3.774   4.844   4.935 -0.3155  1.1419  0.5484
15367TIP3   OH267515   3.002   5.255  11.139 -0.1593 -0.2421 -0.6851
15367TIP3    H167516   2.945   5.248  11.216  0.4812 -0.3614 -0.2226
15367TIP3    H267517   3.090   5.240  11.172  0.5673  3.1073 -0.7811
15368TIP3   OH267518   3.790   4.319  15.925  0.2448 -0.0505  0.3611
15368TIP3    H167519   3.711   4.327  15.979 -0.0997 -0.9113  0.0004
15368TIP3    H267520   3.770   4.248  15.864  1.6833 -0.9654  0.9180
15369TIP3   OH267521   5.860   4.168   0.591 -0.1504 -0.1776 -0.2328
15369TIP3    H167522   5.843   4.093   0.534  1.0506 -0.7818  0.1725
15369TIP3    H267523   5.867   4.243   0.532  0.4073 -0.6849 -0.8182
15370TIP3   OH267524   1.693   5.696   3.211 -0.0913  0.1412  0.4422
15370TIP3    H167525   1.613   5.656   3.177 -0.0323  1.2079 -1.0449
15370TIP3    H267526   1.676   5.790   3.208  0.7724  0.3446  1.3100
15371TIP3   OH267527   2.337   0.733  14.174 -0.4300  0.2186 -0.5341
15371TIP3    H167528   2.324   0.826  14.156 -0.4395 -0.1015 -2.3782
15371TIP3    H267529   2.256   0.691  14.145  0.7574 -0.6820 -2.8681
15372TIP3   OH267530   3.678   5.525   4.498 -0.3155  0.1457  0.3549
15372TIP3    H167531   3.759   5.510   4.450  0.0658  1.4982  0.5290
15372TIP3    H267532   3.614   5.470   4.455  0.9690 -2.0283  1.0696
15373TIP3   OH267533   1.678   4.232   0.744 -0.1758  0.2385 -0.7856
15373TIP3    H167534   1.613   4.211   0.810 -0.8976  1.9337 -0.9034
15373TIP3    H267535   1.664   4.167   0.675  1.0843 -2.0147  0.9710
15374TIP3   OH267536   2.367   3.142   6.212  0.1625 -0.0782 -0.1727
15374TIP3    H167537   2.457   3.156   6.184  0.6515 -3.2885 -0.5558
15374TIP3    H267538   2.320   3.116   6.132 -0.2118 -1.8628  0.5663
15375TIP3   OH267539   5.575   3.108   5.195 -0.6971 -0.3511 -0.2372
15375TIP3    H167540   5.480   3.123   5.192 -0.9500 -1.3538  1.5124
15375TIP3    H267541   5.604   3.121   5.105 -2.4313  0.3671 -0.7335
15376TIP3   OH267542   2.088   3.660   1.275 -0.3604  0.0894  0.5860
15376TIP3    H167543   2.037   3.619   1.345  0.6966 -0.7089  0.9175
15376TIP3    H267544   2.028   3.721   1.234 -2.2348 -2.2774 -0.3773
15377TIP3   OH267545   4.475   4.271   3.147 -0.5182 -0.5558 -0.1046
15377TIP3    H167546   4.537   4.253   3.218  0.4843  1.8536 -0.2741
15377TIP3    H267547   4.530   4.289   3.071 -1.3589  1.7074 -0.2434
15378TIP3   OH267548   0.459   2.292  14.307 -0.3556  0.2623 -0.1365
15378TIP3    H167549   0.505   2.220  14.265  0.3532 -0.4679  1.8015
15378TIP3    H267550   0.415   2.337  14.234  1.1504 -0.6474 -1.7024
15379TIP3   OH267551   3.168   0.032   4.410  0.2646 -0.2476  0.3481
15379TIP3    H167552   3.123  -0.047   4.382 -1.4644  0.7153  0.2638
15379TIP3    H267553   3.236   0.046   4.343 -0.4568 -0.7937 -0.5196
15380TIP3   OH267554   5.368   6.022  15.125 -0.1833 -0.4678 -0.1153
15380TIP3    H167555   5.411   6.101  15.156  0.5276 -1.0159  0.3265
15380TIP3    H267556   5.319   6.050  15.048  1.0194  0.1556 -0.6796
15381TIP3   OH267557   2.613   2.197   1.423  0.1586 -0.7355  0.0071
15381TIP3    H167558   2.680   2.129   1.417 -1.5147 -2.4589 -0.2546
15381TIP3    H267559   2.541   2.164   1.369 -0.6679  1.3339 -0.2314
15382TIP3   OH267560   0.950   0.864  11.242  0.4379 -0.0906 -0.9380
15382TIP3    H167561   1.012   0.846  11.313  1.5000 -0.8184 -2.0140
15382TIP3    H267562   1.005   0.871  11.164 -0.8413 -0.8103 -1.9366
15383TIP3   OH267563   3.724   2.013   1.192  0.1161 -0.3952 -0.8008
15383TIP3    H167564   3.724   2.106   1.214 -0.1137 -0.8004  1.1687
15383TIP3    H267565   3.632   1.993   1.172 -0.1590 -0.5107  0.4670
15384TIP3   OH267566   1.418   2.532  16.880 -0.6493 -0.2515  0.4014
15384TIP3    H167567   1.389   2.445  16.907  1.5163 -0.9550  0.6305
15384TIP3    H267568   1.511   2.521  16.861 -0.3510  2.0077  0.3539
15385TIP3   OH267569   1.878   2.217  13.025 -0.7905 -0.5716  0.1408
15385TIP3    H167570   1.800   2.179  13.066 -0.1511 -1.1223  0.8981
15385TIP3    H267571   1.889   2.167  12.944 -1.8785  0.3023 -0.5753
15386TIP3   OH267572   1.747   6.512   4.226 -0.1571  0.0316 -0.4317
15386TIP3    H167573   1.789   6.509   4.311 -0.0969 -1.1191 -0.4957
15386TIP3    H267574   1.659   6.545   4.244 -0.6924 -1.7015  0.3255
15387TIP3   OH267575   1.236   3.933   4.288  0.4203 -0.8942  0.4748
15387TIP3    H167576   1.322   3.898   4.312  0.2301 -0.9026  1.1710
15387TIP3    H267577   1.189   3.858   4.253  1.1497 -0.6011 -1.2015
15388TIP3   OH267578   2.433   1.529   4.893  0.1819  0.4654 -0.4520
15388TIP3    H167579   2.350   1.487   4.867  0.5904 -1.3211  0.9342
15388TIP3    H267580   2.412   1.576   4.974  0.4533  0.2083 -0.2289
15389TIP3   OH267581   2.287   1.868  15.823  0.4384 -0.0340  0.0172
15389TIP3    H167582   2.251   1.801  15.881 -0.5130  0.5721  0.1649
15389TIP3    H267583   2.345   1.920  15.879  2.4133 -1.6170 -0.4535
15390TIP3   OH267584   4.016   2.196   0.616  0.6312  0.0955 -0.5535
15390TIP3    H167585   4.022   2.290   0.633 -1.0570  0.0351  0.5786
15390TIP3    H267586   3.955   2.163   0.682  1.0302 -1.7716 -1.0552
15391TIP3   OH267587   6.615   5.917  16.673  0.0045  1.0079  0.0522
15391TIP3    H167588   6.596   5.875  16.757  0.9062 -1.2254 -0.7767
15391TIP3    H267589   6.672   5.990  16.696  0.2934  0.3950  1.4131
15392TIP3   OH267590   4.274   1.073  15.204 -0.3708 -0.1908  0.4811
15392TIP3    H167591   4.249   0.983  15.222 -2.7437  0.2100 -0.4358
15392TIP3    H267592   4.200   1.125  15.235 -0.0181  1.2490 -0.9336
15393TIP3   OH267593   2.866   5.075   5.672  0.7109 -0.8516  0.5316
15393TIP3    H167594   2.885   5.144   5.607  0.2635 -1.7818 -0.6226
15393TIP3    H267595   2.917   5.000   5.643  0.2948 -1.3718  1.1117
15394TIP3   OH267596   3.729   5.248  13.039 -0.6302 -0.3497 -0.3507
15394TIP3    H167597   3.751   5.183  13.105 -1.4420  0.8613  1.1670
15394TIP3    H267598   3.634   5.241  13.028 -0.3714 -1.3806 -2.3515
15395TIP3   OH267599   2.286   6.754  11.247 -0.0354  0.1212  0.2463
15395TIP3    H167600   2.243   6.749  11.162 -0.6513 -0.8897  0.6019
15395TIP3    H267601   2.342   6.677  11.251  3.1748  2.1589 -0.8519
15396TIP3   OH267602   0.930   6.100   0.210  0.1599 -0.3696 -0.2766
15396TIP3    H167603   0.931   6.013   0.250  0.2271 -0.7242 -1.0458
15396TIP3    H267604   0.846   6.104   0.164 -1.0551  0.9481  1.8428
15397TIP3   OH267605   4.874   4.429   4.915 -0.0805  0.5987  0.4931
15397TIP3    H167606   4.856   4.458   5.004 -1.7371  0.3931  0.2667
15397TIP3    H267607   4.845   4.337   4.913  0.2209  0.5081 -0.1668
15398TIP3   OH267608   5.075   1.120  16.808 -0.1296  0.1927 -0.0542
15398TIP3    H167609   5.013   1.067  16.758 -0.0663  0.4934 -0.4500
15398TIP3    H267610   5.161   1.092  16.777 -0.0786  0.1332  0.1388
15399TIP3   OH267611   4.561   3.417  16.074  0.0818  0.3326  0.3476
15399TIP3    H167612   4.468   3.435  16.081 -0.5444 -1.4284 -2.0878
15399TIP3    H267613   4.584   3.373  16.156 -1.4522 -0.0630  0.5807
15400TIP3   OH267614   4.654   3.574  16.447 -0.2131  0.0483 -0.1305
15400TIP3    H167615   4.677   3.496  16.396 -0.1197  0.0320 -0.0625
15400TIP3    H267616   4.571   3.603  16.409  0.8133  1.1971 -1.6256
15401TIP3   OH267617   4.024   6.109   2.321 -0.4631 -0.3193  0.1003
15401TIP3    H167618   3.965   6.078   2.389 -0.1524 -0.4832  0.3008
15401TIP3    H267619   4.042   6.032   2.267 -1.6604  0.0680 -0.9028
15402TIP3   OH267620   4.468   0.702  12.224 -0.2592 -0.6019  0.1542
15402TIP3    H167621   4.493   0.755  12.300  0.0575 -1.0584  0.3688
15402TIP3    H267622   4.374   0.686  12.236 -0.1541 -0.8959  0.5862
15403TIP3   OH267623   1.246   1.879  16.129  0.2398 -0.0970 -0.0920
15403TIP3    H167624   1.225   1.800  16.179  0.3643 -1.6578 -2.3445
15403TIP3    H267625   1.184   1.944  16.160 -2.3114 -2.1169 -0.6026
15404TIP3   OH267626   4.863   0.200  14.875  0.1854  0.3066 -0.2435
15404TIP3    H167627   4.933   0.177  14.815 -0.6922 -1.4402 -0.6644
15404TIP3    H267628   4.904   0.257  14.940  1.8863 -0.3484 -0.7065
15405TIP3   OH267629   1.063   2.402  16.510 -0.2596 -0.0682 -0.1807
15405TIP3    H167630   1.017   2.413  16.426 -0.0637  2.1176 -0.0537
15405TIP3    H267631   1.152   2.378  16.485 -0.1899  0.6160 -0.6177
15406TIP3   OH267632   4.461   3.032  16.942 -0.1082 -0.1414 -0.0935
15406TIP3    H167633   4.535   3.088  16.920 -0.1320  0.7383  1.7948
15406TIP3    H267634   4.410   3.085  17.004 -1.6276 -1.2215 -0.3713
15407TIP3   OH267635   2.494   0.138  14.003 -0.2515  0.0613  0.2436
15407TIP3    H167636   2.502   0.072  14.072  0.3627  0.1912  0.3009
15407TIP3    H267637   2.422   0.106  13.948 -0.7360 -0.0537  0.9256
15408TIP3   OH267638   5.790   2.734   4.028  0.6990 -0.1427  0.0887
15408TIP3    H167639   5.725   2.670   4.000  1.8906 -2.6031  2.5530
15408TIP3    H267640   5.858   2.730   3.961  1.2884 -2.3770  0.7638
15409TIP3   OH267641   0.985   1.888  14.805  0.3872  0.0264  0.0871
15409TIP3    H167642   0.940   1.810  14.773 -1.3775  2.0499 -2.9599
15409TIP3    H267643   0.924   1.927  14.868 -2.3002  2.3607 -3.4770
15410TIP3   OH267644   2.587   1.622  13.416 -0.5498  0.1000  0.2638
15410TIP3    H167645   2.623   1.577  13.341 -0.5250  1.3842 -0.5316
15410TIP3    H267646   2.572   1.554  13.481 -0.4674 -1.0149 -0.8606
15411TIP3   OH267647   5.141   4.577  11.859  0.1169 -0.1374  0.5890
15411TIP3    H167648   5.144   4.547  11.950  2.6776 -1.9820 -0.0081
15411TIP3    H267649   5.231   4.572  11.828 -0.0752  3.5678 -1.1843
15412TIP3   OH267650   0.565   2.810  10.971  0.2586 -0.1888  0.3316
15412TIP3    H167651   0.531   2.813  10.882 -0.5648 -0.2792  0.6342
15412TIP3    H267652   0.584   2.717  10.986  0.7774 -0.1221  0.1192
15413TIP3   OH267653   4.461   5.295  13.755 -0.2533 -0.0812  0.0247
15413TIP3    H167654   4.478   5.337  13.671 -1.7143 -0.3382 -0.4389
15413TIP3    H267655   4.479   5.362  13.820  0.5120  0.2453 -0.5089
15414TIP3   OH267656   4.278   6.308  16.109  0.0870  0.1042 -0.2331
15414TIP3    H167657   4.205   6.369  16.102  0.6405  0.7442 -0.5137
15414TIP3    H267658   4.248   6.241  16.171 -1.2346 -0.3693 -1.3344
15415TIP3   OH267659   1.157   4.742  11.139 -0.4133  0.4701 -0.0881
15415TIP3    H167660   1.181   4.822  11.093 -1.9687  1.8531  1.3465
15415TIP3    H267661   1.241   4.704  11.167  0.4327  0.6086 -2.2859
15416TIP3   OH267662   5.506   0.260  13.214  0.0343  0.2230  0.3483
15416TIP3    H167663   5.510   0.173  13.175 -0.5096  0.8070 -1.1028
15416TIP3    H267664   5.587   0.303  13.185 -0.8867  1.0386 -1.1791
15417TIP3   OH267665   2.727   2.001   4.702  0.3464  0.7916  0.6783
15417TIP3    H167666   2.689   1.972   4.619  0.4639  2.0944  0.1481
15417TIP3    H267667   2.752   1.919   4.746 -0.8026  0.0273 -0.0304
15418TIP3   OH267668   2.219   6.726   4.837 -0.1966 -0.3349 -0.1088
15418TIP3    H167669   2.259   6.811   4.857 -1.2256  0.6489 -1.9614
15418TIP3    H267670   2.157   6.745   4.766 -0.7289 -2.5804 -0.3077
15419TIP3   OH267671   1.142   5.407   3.580  0.3730  0.2181 -0.4292
15419TIP3    H167672   1.145   5.415   3.675 -2.7095  1.0466 -0.2728
15419TIP3    H267673   1.153   5.314   3.563 -0.8867 -0.2266  0.9439
15420TIP3   OH267674   4.030   1.700  11.783 -0.2071  0.1840 -0.2425
15420TIP3    H167675   4.073   1.624  11.744 -0.2240 -0.2416  0.5522
15420TIP3    H267676   4.093   1.732  11.848 -1.3978 -1.0102  1.6193
15421TIP3   OH267677   6.099   3.390   5.902  0.0340  0.0383 -0.1717
15421TIP3    H167678   6.014   3.358   5.933  0.2973 -0.7873 -0.2862
15421TIP3    H267679   6.110   3.475   5.946 -0.9025  0.2125 -0.2566
15422TIP3   OH267680   1.263   3.608  11.837 -0.1217  0.2727  0.7027
15422TIP3    H167681   1.356   3.588  11.851  0.1623  0.9945 -0.0650
15422TIP3    H267682   1.227   3.620  11.925  0.5713  0.2641  0.9943
15423TIP3   OH267683   5.370   1.329  13.423 -0.7941 -0.1150  0.4992
15423TIP3    H167684   5.391   1.414  13.463 -0.8917 -0.2758  0.8941
15423TIP3    H267685   5.438   1.270  13.455 -0.9442 -0.2738  0.5241
15424TIP3   OH267686   1.061   4.545   1.884 -0.4892 -0.1751 -0.2112
15424TIP3    H167687   1.008   4.469   1.910  0.4704 -1.0232 -0.6732
15424TIP3    H267688   1.006   4.620   1.906  0.0669 -0.7569  4.0958
15425TIP3   OH267689   3.183   6.621   2.732  0.2737  0.1879 -0.1078
15425TIP3    H167690   3.117   6.560   2.763  0.3879  0.1463  0.0502
15425TIP3    H267691   3.171   6.623   2.637 -1.8373  2.3095  0.1185
15426TIP3   OH267692   5.386   6.236  15.958 -0.0705  0.4916  0.2958
15426TIP3    H167693   5.295   6.263  15.948 -0.2814 -0.3845 -0.2482
15426TIP3    H267694   5.401   6.236  16.052 -0.1468  2.1770  0.3383
15427TIP3   OH267695   3.923   1.825  15.327 -0.5727  0.4820 -0.3888
15427TIP3    H167696   3.985   1.753  15.319 -0.8392  0.2347 -0.2392
15427TIP3    H267697   3.868   1.819  15.249 -1.4541 -0.2976  0.2750
15428TIP3   OH267698   1.305   0.525   4.000  0.0721 -0.4198  0.3177
15428TIP3    H167699   1.313   0.581   4.077  1.7665  1.6504 -1.2363
15428TIP3    H267700   1.341   0.441   4.028  2.1080  0.7416  1.4009
15429TIP3   OH267701   1.914   4.602  13.869 -0.1474  0.0938 -0.4620
15429TIP3    H167702   1.838   4.657  13.888 -0.4287 -0.5167  0.2304
15429TIP3    H267703   1.988   4.648  13.909 -0.2263  0.4519 -0.7243
15430TIP3   OH267704   5.156   2.211   3.674  0.0393 -0.2400 -0.2158
15430TIP3    H167705   5.145   2.301   3.703  0.7650 -0.6140  1.3053
15430TIP3    H267706   5.115   2.209   3.587 -3.8331  0.5471  1.3776
15431TIP3   OH267707   0.073   6.405  13.488  0.3249 -0.6788  0.2536
15431TIP3    H167708   0.091   6.332  13.548  0.4111 -0.6865  0.2185
15431TIP3    H267709   0.159   6.441  13.468  0.8397 -3.3582 -3.3034
15432TIP3   OH267710   6.484   6.601   3.683  0.1986 -0.4806 -0.0413
15432TIP3    H167711   6.527   6.658   3.619  0.0709 -0.5678 -0.2052
15432TIP3    H267712   6.552   6.540   3.709  0.7404  0.5898  1.1638
15433TIP3   OH267713   3.872   0.152   4.922  0.4596  0.0245 -0.8563
15433TIP3    H167714   3.827   0.069   4.902  0.7115 -0.2467 -0.3157
15433TIP3    H267715   3.898   0.186   4.837 -1.3067  0.4980 -1.2585
15434TIP3   OH267716   0.890   5.626   5.774 -0.0731 -0.0101  0.3350
15434TIP3    H167717   0.968   5.656   5.821 -1.9798  0.5271  3.4525
15434TIP3    H267718   0.923   5.560   5.713  2.9138  0.8653  0.8404
15435TIP3   OH267719   4.223   5.535  14.812 -1.3875 -0.7829 -0.3827
15435TIP3    H167720   4.137   5.538  14.771 -0.2196 -2.9391 -3.2921
15435TIP3    H267721   4.285   5.532  14.739  1.2715  1.1940  1.5757
15436TIP3   OH267722   2.113   2.138   4.867  0.1482 -0.3812  0.5998
15436TIP3    H167723   2.170   2.184   4.805 -0.6599  1.8045  1.3881
15436TIP3    H267724   2.112   2.048   4.836  2.1976 -0.0030 -0.7624
15437TIP3   OH267725   5.064   6.229   3.051  0.7738 -0.4005 -0.6170
15437TIP3    H167726   5.036   6.222   2.959  0.6614 -0.9611 -0.5412
15437TIP3    H267727   5.074   6.323   3.065  0.3697 -0.2813 -1.0811
15438TIP3   OH267728   0.694   5.184   0.253 -0.0212  0.2541  0.0505
15438TIP3    H167729   0.727   5.100   0.223 -0.0736  0.6194 -1.0830
15438TIP3    H267730   0.600   5.181   0.234 -0.6707 -0.6355  2.9051
15439TIP3   OH267731   4.699   0.747  17.372  0.2252  0.7095 -0.0520
15439TIP3    H167732   4.643   0.817  17.339  0.4257  1.3758  0.9833
15439TIP3    H267733   4.709   0.688  17.298 -0.5408  1.4008 -0.7283
15440TIP3   OH267734   5.405   5.661  14.474  0.2556  0.6001  0.7775
15440TIP3    H167735   5.463   5.711  14.531  1.7302 -1.4688  1.2009
15440TIP3    H267736   5.389   5.579  14.521 -1.0597  0.1225 -0.4168
15441TIP3   OH267737   6.290   1.116   6.218  0.0292 -0.6170 -0.3573
15441TIP3    H167738   6.255   1.027   6.210 -0.4121 -0.5327  0.5230
15441TIP3    H267739   6.384   1.104   6.234 -0.1329 -0.9549  0.3931
15442TIP3   OH267740   3.351   3.153  12.400 -0.3664  0.0779 -0.6809
15442TIP3    H167741   3.371   3.173  12.492  0.5332  0.6875 -0.9865
15442TIP3    H267742   3.258   3.174  12.390 -0.7730 -1.0954  0.3601
15443TIP3   OH267743   1.905   6.123  17.311 -0.2506  0.7750 -0.4687
15443TIP3    H167744   1.924   6.198  17.367  0.5751  0.9462 -0.9751
15443TIP3    H267745   1.955   6.051  17.349 -0.1386  0.7534 -0.6579
15444TIP3   OH267746   0.103   4.204   4.325  0.1173  0.7298 -0.2240
15444TIP3    H167747   0.054   4.257   4.389 -0.7922 -0.3679  0.0176
15444TIP3    H267748   0.040   4.186   4.255  0.2242 -0.5109 -0.0219
15445TIP3   OH267749   6.141   2.733   0.932 -0.1414 -0.4384 -0.1207
15445TIP3    H167750   6.193   2.782   0.868  0.2072 -0.8023 -0.1183
15445TIP3    H267751   6.074   2.689   0.880  0.5578 -1.2817 -0.3262
15446TIP3   OH267752   5.838   5.822  11.900 -0.2488  0.5115  0.2119
15446TIP3    H167753   5.895   5.809  11.825 -0.4855 -0.6963  0.2294
15446TIP3    H267754   5.777   5.749  11.898 -1.2565  1.3071  0.6898
15447TIP3   OH267755   5.649   2.691   2.389  0.0985 -0.1650  0.0645
15447TIP3    H167756   5.682   2.772   2.348 -1.2297  0.5457  0.3524
15447TIP3    H267757   5.716   2.626   2.369  0.2957  0.5407 -1.8187
15448TIP3   OH267758   4.974   6.151  16.531  0.1886 -0.1048 -0.2450
15448TIP3    H167759   4.973   6.061  16.498  2.0508 -0.2252 -0.0274
15448TIP3    H267760   5.065   6.178  16.526  0.1228  0.8125  2.3409
15449TIP3   OH267761   0.507   6.011  15.125  0.0045  0.2136 -0.4490
15449TIP3    H167762   0.494   5.943  15.191  1.7148  0.5992  0.3249
15449TIP3    H267763   0.564   5.970  15.060 -3.0118 -0.7638 -2.7080
15450TIP3   OH267764   6.247   1.635   3.012 -0.2300  0.1807 -0.2888
15450TIP3    H167765   6.195   1.668   2.938  1.2764  1.1097 -0.9821
15450TIP3    H267766   6.315   1.581   2.971 -0.0194 -0.1685  0.5095
15451TIP3   OH267767   3.721   0.848  15.158  0.6791  0.6480  0.7494
15451TIP3    H167768   3.668   0.817  15.085  1.4046 -1.4386  1.0292
15451TIP3    H267769   3.750   0.936  15.132  0.3845  0.2156 -1.1578
15452TIP3   OH267770   1.042   3.009  12.418  0.2344  0.5353  0.2313
15452TIP3    H167771   0.961   3.022  12.370  1.0725  1.9456 -0.8619
15452TIP3    H267772   1.018   3.020  12.510 -1.5534 -2.9633  0.3589
15453TIP3   OH267773   6.106   3.000   4.651  0.4485  0.4212  0.5176
15453TIP3    H167774   6.010   3.000   4.660  0.2889 -2.4338 -0.0729
15453TIP3    H267775   6.133   2.918   4.694  2.2407 -0.4944 -2.1565
15454TIP3   OH267776   5.026   3.311  17.354 -0.3899 -0.8752 -0.7090
15454TIP3    H167777   5.000   3.327  17.263  0.1258  1.1347 -0.5480
15454TIP3    H267778   4.950   3.267  17.393 -1.8398  0.9188 -1.3651
15455TIP3   OH267779   1.774   4.454   3.673 -0.1446 -0.0755 -0.5026
15455TIP3    H167780   1.853   4.470   3.623 -0.2251 -0.6299 -0.8180
15455TIP3    H267781   1.804   4.414   3.755 -0.1543 -1.1321 -1.0050
15456TIP3   OH267782   0.441   1.809  11.769 -0.3466 -0.4700 -0.1489
15456TIP3    H167783   0.378   1.875  11.739  1.1345  0.5428 -1.2047
15456TIP3    H267784   0.409   1.782  11.855 -1.4884  0.9926 -0.0725
15457TIP3   OH267785   1.716   6.735  14.292 -0.1242 -0.4826  0.1863
15457TIP3    H167786   1.709   6.650  14.247  0.9713 -0.1734 -0.6051
15457TIP3    H267787   1.784   6.782  14.243 -0.0649  0.4996  1.1931
15458TIP3   OH267788   5.804   0.884   1.817 -0.1591 -0.5738  0.1150
15458TIP3    H167789   5.819   0.949   1.885  1.7015  0.8711 -1.5680
15458TIP3    H267790   5.714   0.900   1.788  0.1818  1.1521 -0.1082
15459TIP3   OH267791   5.115   5.065   6.108  0.1922  0.0500 -0.0224
15459TIP3    H167792   5.150   5.118   6.036 -0.5425  1.2358  0.4528
15459TIP3    H267793   5.081   4.986   6.066  0.7907  0.2162 -0.8341
15460TIP3   OH267794   4.755   5.387   5.133 -0.5143 -0.0149  0.7226
15460TIP3    H167795   4.764   5.316   5.070  3.1886  0.0793  0.9408
15460TIP3    H267796   4.747   5.466   5.079 -1.5082 -0.2713  0.4689
15461TIP3   OH267797   2.117   5.905  17.359 -0.3935 -0.2190 -0.1589
15461TIP3    H167798   2.186   5.919  17.423 -2.0242 -2.0309  2.1556
15461TIP3    H267799   2.161   5.863  17.285  1.0225 -1.2370  1.2071
15462TIP3   OH267800   4.570   6.399  16.756 -0.0077 -0.2530 -0.5172
15462TIP3    H167801   4.518   6.469  16.718  0.3317  1.0765  1.3280
15462TIP3    H267802   4.536   6.319  16.715 -0.3604  0.9473 -2.7187
15463TIP3   OH267803   0.072   4.809   1.195 -0.2062 -0.0488  0.3955
15463TIP3    H167804   0.154   4.761   1.206 -1.2720 -1.6516  2.1687
15463TIP3    H267805   0.094   4.899   1.216  1.3444 -0.2203 -0.3867
15464TIP3   OH267806   0.837   5.893  14.382  0.2054  0.4726 -0.4251
15464TIP3    H167807   0.753   5.857  14.410  0.0694  1.6831  0.8555
15464TIP3    H267808   0.846   5.866  14.290 -1.6870  0.5095 -0.6606
15465TIP3   OH267809   3.974   1.686   3.039  0.3863 -0.3274  0.5416
15465TIP3    H167810   3.951   1.756   3.099  1.1727 -0.5054  1.0684
15465TIP3    H267811   4.066   1.667   3.058 -0.1262 -2.3689  1.3217
15466TIP3   OH267812   1.165   3.017  14.563 -0.6853  0.3899 -0.2436
15466TIP3    H167813   1.104   2.985  14.630 -1.8660  1.7847 -0.5997
15466TIP3    H267814   1.251   3.013  14.604 -0.8283 -2.4321  0.0048
15467TIP3   OH267815   5.888   3.601   6.322  0.4240  0.3950 -0.1126
15467TIP3    H167816   5.916   3.574   6.410  0.0124 -1.0412 -0.3961
15467TIP3    H267817   5.793   3.588   6.323  0.3254  1.0766 -0.5415
15468TIP3   OH267818   2.774   5.063  12.898 -0.3618 -0.7694 -0.6296
15468TIP3    H167819   2.746   4.977  12.864 -0.7669 -1.6670  1.8066
15468TIP3    H267820   2.700   5.120  12.881 -2.2123 -2.1499  2.0681
15469TIP3   OH267821   6.630   2.069   2.174 -0.7396  0.2926  0.4801
15469TIP3    H167822   6.632   2.151   2.223 -0.3682  0.4876  0.1411
15469TIP3    H267823   6.568   2.086   2.102  0.3132  0.7110 -0.3442
15470TIP3   OH267824   0.114   2.649   3.147  0.2608  0.2553 -0.0227
15470TIP3    H167825   0.070   2.702   3.081  2.7606  0.9598 -1.2539
15470TIP3    H267826   0.185   2.606   3.100  0.0074 -2.0272  1.5312
15471TIP3   OH267827   2.570   3.195   0.400 -0.0619  0.1296  0.1014
15471TIP3    H167828   2.600   3.162   0.485  2.8254  0.2954 -0.7540
15471TIP3    H267829   2.639   3.171   0.339 -2.2136 -0.2645 -2.3239
15472TIP3   OH267830   2.692   3.077  11.540  0.7593  0.2211  1.2693
15472TIP3    H167831   2.753   3.128  11.486  0.7315 -0.1627  0.8704
15472TIP3    H267832   2.646   3.021  11.478  0.6864 -0.1867  1.6894
15473TIP3   OH267833   2.790   6.055  12.706 -0.2530 -0.1884  0.1556
15473TIP3    H167834   2.775   5.965  12.677  0.2612  0.2414 -1.5772
15473TIP3    H267835   2.825   6.047  12.794 -2.6606 -1.5507  1.0654
15474TIP3   OH267836   1.180   5.215   0.259  0.4137 -0.9569 -0.7064
15474TIP3    H167837   1.164   5.138   0.313 -1.3924 -0.0634  0.1169
15474TIP3    H267838   1.098   5.265   0.263  2.1413  2.0971  0.6372
15475TIP3   OH267839   5.709   4.908  17.104  0.3270  0.4921 -0.1423
15475TIP3    H167840   5.635   4.848  17.094  1.2295 -0.8891  1.0068
15475TIP3    H267841   5.682   4.970  17.170  0.4930 -0.5813  0.9726
15476TIP3   OH267842   3.804   6.217  11.275  0.2729  0.3755  0.3242
15476TIP3    H167843   3.788   6.273  11.351 -0.9902  0.3488  0.1046
15476TIP3    H267844   3.883   6.168  11.297  0.4192  1.0067  1.2429
15477TIP3   OH267845   4.600   3.999  16.463 -0.2466  0.1873  0.1511
15477TIP3    H167846   4.510   3.995  16.495 -0.2202 -0.3365  0.1695
15477TIP3    H267847   4.649   3.944  16.524 -0.2827 -1.2495 -1.0828
15478TIP3   OH267848   0.310   6.126   3.363  0.5663  0.2304 -0.2339
15478TIP3    H167849   0.404   6.124   3.350  0.7052  1.5548  0.3315
15478TIP3    H267850   0.295   6.205   3.415 -0.6950 -0.7773  1.0258
15479TIP3   OH267851   5.076   6.314  17.211  0.1261  0.0375 -0.5442
15479TIP3    H167852   5.052   6.322  17.304  0.3510  0.3881 -0.5131
15479TIP3    H267853   5.004   6.357  17.165 -0.1857 -0.4884 -0.5617
15480TIP3   OH267854   2.536   0.336  14.378  0.5916 -0.2445 -0.1689
15480TIP3    H167855   2.537   0.396  14.303 -0.5782 -0.5036 -0.4054
15480TIP3    H267856   2.617   0.286  14.370  1.2000  0.7657 -0.4112
15481TIP3   OH267857   0.872   4.755   5.762  0.1188 -1.3984 -0.0455
15481TIP3    H167858   0.965   4.753   5.740  0.1248 -0.3899 -0.1633
15481TIP3    H267859   0.854   4.670   5.801  1.3335 -1.2232  0.9312
15482TIP3   OH267860   0.772   2.906   4.940 -0.4153  0.0617  0.3198
15482TIP3    H167861   0.813   2.969   4.999  0.8152 -0.6679  0.2675
15482TIP3    H267862   0.756   2.955   4.860 -0.3574  0.5561  0.6073
15483TIP3   OH267863   2.773   5.922   5.731 -0.1904 -0.0500 -0.4817
15483TIP3    H167864   2.724   5.840   5.727  0.7878 -0.6526 -0.3491
15483TIP3    H267865   2.816   5.920   5.816  1.4181 -0.3321 -1.2750
15484TIP3   OH267866   5.525   6.539  13.530 -0.3659 -0.6340  0.0866
15484TIP3    H167867   5.612   6.553  13.567 -0.7863 -1.5561  1.5099
15484TIP3    H267868   5.494   6.627  13.510  0.2972 -0.1662  1.0009
15485TIP3   OH267869   4.537   4.241  12.045 -0.1911  0.2031 -0.0556
15485TIP3    H167870   4.565   4.268  11.957 -1.1426 -0.2796 -0.5285
15485TIP3    H267871   4.601   4.174  12.070 -0.8598 -0.8597 -1.0969
15486TIP3   OH267872   3.021   2.727   3.895  0.1650  0.2699  0.0834
15486TIP3    H167873   3.078   2.667   3.846 -1.4990  0.4409 -2.2104
15486TIP3    H267874   2.995   2.677   3.972  1.2294 -0.8048 -0.2143
15487TIP3   OH267875   0.334   2.183   1.646  0.1500  0.1303 -0.1951
15487TIP3    H167876   0.286   2.101   1.638  1.5373 -1.1001  2.7957
15487TIP3    H267877   0.425   2.157   1.657  1.0335  2.2472 -1.7109
15488TIP3   OH267878   2.494   5.932   1.610  0.6267  0.1732  0.3969
15488TIP3    H167879   2.517   5.972   1.694  1.7783  0.8398 -0.2210
15488TIP3    H267880   2.515   5.999   1.545 -0.9987 -0.0311 -0.3872
15489TIP3   OH267881   6.300   1.496  13.735  1.2017 -0.2803 -0.2093
15489TIP3    H167882   6.210   1.486  13.705  0.8269  1.5989  0.1252
15489TIP3    H267883   6.311   1.431  13.804  0.3883 -1.1073 -0.8513
15490TIP3   OH267884   3.190   1.254   1.512 -0.3003  0.3633  0.3225
15490TIP3    H167885   3.192   1.344   1.543 -0.7579  0.6630 -0.4867
15490TIP3    H267886   3.246   1.206   1.573  1.7403  1.5821 -0.5111
15491TIP3   OH267887   6.087   3.880  11.087  0.1951 -0.4007 -0.2099
15491TIP3    H167888   6.112   3.853  11.176 -0.3386  1.4716  0.5663
15491TIP3    H267889   6.162   3.856  11.033 -0.1239 -3.0700  0.3986
15492TIP3   OH267890   6.116   1.011  15.166 -0.1350 -0.0494 -0.1287
15492TIP3    H167891   6.159   1.088  15.129 -2.5854  1.3892 -0.2134
15492TIP3    H267892   6.150   1.005  15.255  0.9354  0.4285 -0.4863
15493TIP3   OH267893   6.095   6.694  13.549 -0.4947  0.7726 -0.6072
15493TIP3    H167894   6.103   6.764  13.614 -0.1576  1.5766 -1.4894
15493TIP3    H267895   6.154   6.625  13.580 -2.2855 -0.0214  1.3347
15494TIP3   OH267896   4.783   6.031   3.326 -0.0208  0.2320 -0.5588
15494TIP3    H167897   4.761   6.081   3.404 -0.5519  1.8875 -1.7204
15494TIP3    H267898   4.878   6.039   3.318  0.5444 -2.6227  1.6037
15495TIP3   OH267899   3.174   3.587  14.818 -0.4068  0.4114  0.2401
15495TIP3    H167900   3.135   3.607  14.903  0.9096  0.8592  0.7547
15495TIP3    H267901   3.176   3.671  14.772 -0.4338  0.3056  0.0432
15496TIP3   OH267902   0.010   3.791  15.537  0.9438 -0.1761 -0.1283
15496TIP3    H167903  -0.019   3.787  15.446  0.1500  2.2112 -0.0612
15496TIP3    H267904   0.084   3.852  15.536  0.4953  0.4173  0.8910
15497TIP3   OH267905   5.938   3.567   4.026 -0.1155  0.0057 -0.1164
15497TIP3    H167906   5.965   3.629   3.958  0.8708  0.0591  0.2986
15497TIP3    H267907   6.014   3.561   4.084 -1.7857  1.9880  2.5074
15498TIP3   OH267908   4.144   0.716  13.193 -0.2109  0.2197  0.5131
15498TIP3    H167909   4.130   0.688  13.284  0.6646  0.1877  0.6544
15498TIP3    H267910   4.176   0.638  13.148  0.5300  0.5275  0.4820
15499TIP3   OH267911   2.532   0.856   0.971  0.5060  0.0240 -0.8369
15499TIP3    H167912   2.502   0.916   0.903  0.9819  2.0320  0.6363
15499TIP3    H267913   2.501   0.895   1.053 -0.4600 -2.5494  0.1315
15500TIP3   OH267914   2.309   0.824  17.095 -0.4271 -0.4853  0.4424
15500TIP3    H167915   2.255   0.760  17.141 -1.0930 -1.4066 -1.5248
15500TIP3    H267916   2.256   0.904  17.095 -1.4805 -1.1508 -0.7548
15501TIP3   OH267917   5.515   5.300  15.732 -0.2429 -0.1565 -0.1643
15501TIP3    H167918   5.453   5.370  15.753  0.7327  0.2158  1.7317
15501TIP3    H267919   5.460   5.229  15.698 -1.4577  0.8656 -0.4268
15502TIP3   OH267920   4.510   4.584  11.892  0.0108  0.8531  0.2438
15502TIP3    H167921   4.521   4.495  11.859 -1.6628  1.0256 -0.9287
15502TIP3    H267922   4.562   4.586  11.972 -0.3230 -1.3337  0.5887
15503TIP3   OH267923   0.960   6.214   3.864  0.4685  0.4317 -0.2266
15503TIP3    H167924   0.970   6.268   3.786  1.0430  1.2515  0.3989
15503TIP3    H267925   0.866   6.203   3.873  0.3814  0.6188 -0.8340
15504TIP3   OH267926   0.990   2.803   6.103 -0.0872 -0.3102  0.1813
15504TIP3    H167927   1.058   2.783   6.038  0.8340 -0.6094  1.2070
15504TIP3    H267928   1.008   2.744   6.176  0.4112  1.6068  1.7206
15505TIP3   OH267929   0.053   1.570   5.069 -0.0410  0.1532 -0.7954
15505TIP3    H167930   0.102   1.604   5.144 -0.9855  0.8491 -0.4645
15505TIP3    H267931   0.109   1.586   4.994  0.6028  0.1389 -0.3250
15506TIP3   OH267932   2.871   2.576  11.461 -0.3688 -0.5430  0.3892
15506TIP3    H167933   2.871   2.671  11.471 -1.0918 -0.6034  1.0280
15506TIP3    H267934   2.795   2.557  11.406 -0.4222 -0.7848  0.5440
15507TIP3   OH267935   0.125   5.869  14.886  0.1355  0.5539  0.4817
15507TIP3    H167936   0.041   5.867  14.933  0.0891  2.2718  0.5295
15507TIP3    H267937   0.183   5.919  14.942  0.6111  1.0896 -0.4628
15508TIP3   OH267938   1.145   2.085   0.963 -0.4168 -0.3642  0.5494
15508TIP3    H167939   1.229   2.088   0.918 -1.5167  0.4649 -1.5896
15508TIP3    H267940   1.159   2.135   1.044  0.8215  0.8288 -0.3533
15509TIP3   OH267941   4.957   5.406  12.944  0.2615 -0.4715  0.3131
15509TIP3    H167942   4.964   5.495  12.911  2.0859 -0.8770 -0.4979
15509TIP3    H267943   5.027   5.358  12.899 -0.3228 -2.1823  1.1470
15510TIP3   OH267944   1.005   4.623   6.257 -0.1240 -0.2734 -0.5597
15510TIP3    H167945   0.974   4.610   6.346 -0.2590 -0.0572 -0.5718
15510TIP3    H267946   1.094   4.655   6.266  0.6319 -2.2701 -0.5578
15511TIP3   OH267947   3.095   0.665   0.043  0.0720 -0.4181  0.2459
15511TIP3    H167948   3.039   0.734   0.009  2.9008  2.0051  0.0735
15511TIP3    H267949   3.079   0.665   0.137  1.3840  1.9889  0.5597
15512TIP3   OH267950   3.177   0.679  12.869  0.1709  0.0458  0.4277
15512TIP3    H167951   3.267   0.675  12.900 -0.0449  2.6200  1.6990
15512TIP3    H267952   3.172   0.762  12.822 -1.4230 -0.2825 -0.0291
15513TIP3   OH267953   2.509   2.580   4.924  0.1047 -0.0384  0.1461
15513TIP3    H167954   2.516   2.660   4.871  1.0415  0.7777  1.4365
15513TIP3    H267955   2.600   2.554   4.940 -0.1801 -1.0754  0.1993
15514TIP3   OH267956   4.981   1.246   0.156  0.4052 -0.3887  0.2108
15514TIP3    H167957   5.025   1.331   0.153  1.0225 -0.7268 -0.4888
15514TIP3    H267958   5.037   1.192   0.212 -0.6026 -0.0065  1.6395
15515TIP3   OH267959   4.910   5.341  13.671 -0.5218 -0.0614  0.0376
15515TIP3    H167960   4.974   5.360  13.740  0.3641  1.0817 -1.0435
15515TIP3    H267961   4.942   5.390  13.595 -2.8071  0.7206 -0.5089
15516TIP3   OH267962   2.601   4.618  12.319 -0.5383  0.3977 -0.2474
15516TIP3    H167963   2.677   4.581  12.274 -2.5663 -2.5232 -1.6512
15516TIP3    H267964   2.593   4.706  12.284  0.0612 -0.5514 -3.0355
15517TIP3   OH267965   1.229   1.484   1.642  0.2320 -0.2859 -0.4763
15517TIP3    H167966   1.284   1.549   1.600  0.1138  0.7230  0.8566
15517TIP3    H267967   1.157   1.534   1.680  0.8309 -0.9811  1.7202
15518TIP3   OH267968   6.371   6.068  15.788 -0.8194 -0.2531 -0.3367
15518TIP3    H167969   6.384   5.976  15.764  0.2614 -0.4474  0.8494
15518TIP3    H267970   6.411   6.118  15.717 -1.1929 -0.7003 -0.8662
15519TIP3   OH267971   2.914   3.579   1.041  0.4918  0.2845  0.1356
15519TIP3    H167972   2.969   3.535   1.105  0.0543  0.5937  0.7275
15519TIP3    H267973   2.920   3.672   1.063  1.6317  0.5871 -1.2781
15520TIP3   OH267974   3.330   6.557   3.631 -0.0430 -0.4111  0.3380
15520TIP3    H167975   3.296   6.646   3.637 -1.3557 -0.9585  1.5503
15520TIP3    H267976   3.302   6.526   3.545 -2.0116 -0.5665  0.9937
15521TIP3   OH267977   6.541   3.163   4.602 -0.4028  0.2066  0.2042
15521TIP3    H167978   6.610   3.215   4.642 -1.1458  2.8498 -1.6770
15521TIP3    H267979   6.483   3.140   4.675  1.1790 -0.0007  1.4356
15522TIP3   OH267980   5.077   4.788   6.024 -0.3937  0.2376 -0.0331
15522TIP3    H167981   5.104   4.713   6.076  2.1806 -0.3864 -2.0537
15522TIP3    H267982   5.024   4.751   5.954  0.7735  0.2673 -0.9596
15523TIP3   OH267983   0.649   6.504   6.314 -0.4607 -0.4115  0.1355
15523TIP3    H167984   0.561   6.467   6.324  0.0393 -1.7995 -0.2871
15523TIP3    H267985   0.697   6.473   6.391 -0.2433  0.0350  0.1799
15524TIP3   OH267986   3.949   1.861   2.831  0.3655  0.6848  0.0773
15524TIP3    H167987   3.983   1.798   2.894 -2.4212  1.2165  2.2952
15524TIP3    H267988   3.969   1.947   2.869  0.9571  1.0977 -1.1126
15525TIP3   OH267989   5.876   2.867  12.478  0.3235  0.0021 -0.4333
15525TIP3    H167990   5.828   2.784  12.470 -1.2002  0.8599 -0.5159
15525TIP3    H267991   5.966   2.840  12.497 -0.6119 -1.6478  2.2061
15526TIP3   OH267992   4.450   1.165   2.168 -0.6820 -0.5185 -0.0392
15526TIP3    H167993   4.417   1.107   2.099 -0.5955  0.4749 -0.9400
15526TIP3    H267994   4.504   1.229   2.122 -1.3475  0.7096  0.8297
15527TIP3   OH267995   4.573   5.513  13.247 -0.3698  0.3364  0.4576
15527TIP3    H167996   4.661   5.487  13.217 -1.2249 -0.0293 -1.9302
15527TIP3    H267997   4.527   5.537  13.167 -2.3293  0.9931  1.7244
15528TIP3   OH267998   4.279   6.063  14.185  0.0998 -0.0079  0.3600
15528TIP3    H167999   4.258   6.097  14.098 -0.5070  0.1238  0.5504
15528TIP3    H268000   4.363   6.018  14.174 -1.6769 -3.2667 -1.1644
15529TIP3   OH268001   3.305   2.692  11.562  0.2022  0.2575 -0.0270
15529TIP3    H168002   3.235   2.629  11.577  1.5144 -1.5440 -1.1300
15529TIP3    H268003   3.377   2.661  11.616  1.1080  0.3767 -1.1397
15530TIP3   OH268004   3.062   3.016  13.861 -0.2564 -0.2383  0.2562
15530TIP3    H168005   3.061   3.103  13.821  1.3615 -0.3002  0.0053
15530TIP3    H268006   3.152   2.984  13.848 -0.6091 -1.6451  0.9945
15531TIP3   OH268007   3.332   2.877  15.697  0.2194 -0.3989  0.5340
15531TIP3    H168008   3.369   2.897  15.611 -0.9267 -0.9494 -0.1005
15531TIP3    H268009   3.305   2.962  15.732  0.5853 -0.1886  0.3141
15532TIP3   OH268010   1.546   3.791  13.521  0.3631  0.3814 -0.9324
15532TIP3    H168011   1.620   3.794  13.461  0.6299  0.9477 -0.5901
15532TIP3    H268012   1.586   3.792  13.608 -0.0435  0.8381 -0.7440
15533TIP3   OH268013   2.326   5.347  16.450 -0.1472 -0.4168 -0.0311
15533TIP3    H168014   2.367   5.430  16.427 -0.1176  0.4752  2.8559
15533TIP3    H268015   2.388   5.306  16.511 -0.6571 -2.0828 -0.5775
15534TIP3   OH268016   4.066   6.420   2.672  0.6536  0.5230 -0.2337
15534TIP3    H168017   4.110   6.377   2.599  1.9950  0.7868  0.3812
15534TIP3    H268018   3.989   6.365   2.690  1.2520 -0.5054 -0.7316
15535TIP3   OH268019   4.221   0.649  10.938 -0.0202  0.5900 -0.0955
15535TIP3    H168020   4.247   0.730  10.982  0.0676 -0.3014  1.5895
15535TIP3    H268021   4.125   0.652  10.937 -0.0720  0.1458  1.1871
15536TIP3   OH268022   1.763   1.833  11.981 -0.1717 -0.1909  0.1507
15536TIP3    H168023   1.823   1.854  11.909  1.4105  1.1871  1.7695
15536TIP3    H268024   1.819   1.788  12.045 -1.5298 -1.3450  0.5581
15537TIP3   OH268025   4.106   6.276  12.849 -0.5954  0.6335 -0.2832
15537TIP3    H168026   4.016   6.295  12.874 -0.1254  0.6201  1.6142
15537TIP3    H268027   4.148   6.362  12.841 -0.4010  0.6207  0.4717
15538TIP3   OH268028   0.853   5.528  12.148 -1.0485  0.5549  0.3512
15538TIP3    H168029   0.773   5.484  12.121  0.0029  0.3832 -2.9241
15538TIP3    H268030   0.916   5.457  12.162 -0.4777  0.8142 -0.8269
15539TIP3   OH268031   2.605   5.410  16.871  0.5994  0.3392  0.2648
15539TIP3    H168032   2.662   5.464  16.817  0.8224  1.3153  1.4206
15539TIP3    H268033   2.658   5.390  16.949  0.2589 -0.9310  0.1915
15540TIP3   OH268034   4.939   5.393   0.807 -0.2229  0.3213  0.1854
15540TIP3    H168035   4.941   5.307   0.848 -0.5698  0.0181 -0.4245
15540TIP3    H268036   4.954   5.454   0.879  1.7086 -0.3044  0.3875
15541TIP3   OH268037   4.027   6.241  12.587  0.4701 -0.2430  0.2713
15541TIP3    H168038   4.027   6.236  12.682 -1.3598  2.5292  0.5263
15541TIP3    H268039   3.935   6.247  12.562  0.9517  0.4109 -1.5654
15542TIP3   OH268040   5.703   0.696   4.151  0.0812 -0.4767  0.4162
15542TIP3    H168041   5.767   0.751   4.196 -0.7460  0.9168 -0.0491
15542TIP3    H268042   5.754   0.652   4.083  0.9073 -0.8970  1.2834
15543TIP3   OH268043   0.655   5.442   2.961  0.0978 -1.0093 -0.2418
15543TIP3    H168044   0.566   5.477   2.966  0.0779 -0.9896 -0.6832
15543TIP3    H268045   0.653   5.362   3.015  0.0048 -0.6286  0.3300
15544TIP3   OH268046   4.170   5.608   1.838  0.7945 -0.0622 -0.3867
15544TIP3    H168047   4.248   5.575   1.793  1.0802  0.0093  0.0515
15544TIP3    H268048   4.195   5.694   1.871  0.6729 -0.2231  0.1312
15545TIP3   OH268049   1.080   2.775  13.594 -0.2834 -0.5786 -0.3513
15545TIP3    H168050   1.163   2.813  13.567  0.1152 -0.9748  0.2907
15545TIP3    H268051   1.089   2.682  13.573 -0.3806 -0.7036  0.1626
15546TIP3   OH268052   0.653   3.174   0.075  0.5553  0.5652  0.0145
15546TIP3    H168053   0.736   3.177   0.027  0.2582  0.5416 -0.5009
15546TIP3    H268054   0.651   3.087   0.115  0.2659  0.1443 -0.8941
15547TIP3   OH268055   1.313   3.789   1.195  0.1738  0.3534 -0.1783
15547TIP3    H168056   1.394   3.838   1.188  2.6567 -3.0350  1.8202
15547TIP3    H268057   1.340   3.697   1.195 -3.6361 -0.9550  0.9327
15548TIP3   OH268058   0.066   4.176  14.150  0.0320  0.0629 -0.4425
15548TIP3    H168059   0.034   4.142  14.066 -1.1385 -0.6049  0.2358
15548TIP3    H268060   0.143   4.123  14.169 -0.7653 -1.0754 -0.2385
15549TIP3   OH268061   1.726   3.164  15.380 -0.0580 -0.4576 -0.2442
15549TIP3    H168062   1.796   3.194  15.322  0.3842  0.5252  0.7515
15549TIP3    H268063   1.648   3.212  15.350 -0.2309 -1.2377 -1.0874
15550TIP3   OH268064   2.669   3.990   3.113 -0.1734  0.1558 -0.3174
15550TIP3    H168065   2.633   3.972   3.027 -0.2145  0.5403 -0.3816
15550TIP3    H268066   2.698   3.905   3.145 -0.8917 -0.1221 -0.3759
15551TIP3   OH268067   5.558   6.318  11.423  0.4825  0.3950  0.3420
15551TIP3    H168068   5.582   6.408  11.445 -0.4653  0.5575  0.7539
15551TIP3    H268069   5.640   6.268  11.433  1.0019  1.1987  0.1539
15552TIP3   OH268070   4.808   5.044  17.137 -0.2372 -0.4659  0.0447
15552TIP3    H168071   4.825   5.138  17.133 -1.1652 -0.2681  0.4892
15552TIP3    H268072   4.713   5.037  17.147 -0.4494 -1.5137 -2.1799
15553TIP3   OH268073   5.034   0.074  10.976 -0.4659  0.2917 -0.1514
15553TIP3    H168074   4.968   0.143  10.970 -0.6333  0.1093 -0.3907
15553TIP3    H268075   5.065   0.063  10.886 -1.2968 -0.7866 -0.3236
15554TIP3   OH268076   0.185   3.867   1.363 -0.1248 -0.5621  0.2640
15554TIP3    H168077   0.229   3.929   1.305 -1.1123 -1.4914 -1.5543
15554TIP3    H268078   0.256   3.820   1.407  0.6594  2.0367  2.0037
15555TIP3   OH268079   6.015   6.137   3.958 -0.1429  0.8516 -0.1854
15555TIP3    H168080   5.991   6.046   3.941  0.0707  0.7984 -0.2071
15555TIP3    H268081   6.110   6.136   3.965 -0.2000  0.9267  0.6837
15556TIP3   OH268082   5.455   3.073  15.760  0.2987 -0.4402  0.3301
15556TIP3    H168083   5.464   3.135  15.833 -0.5721 -1.3984  1.2806
15556TIP3    H268084   5.361   3.059  15.751  0.5005 -3.0984  1.4386
15557TIP3   OH268085   4.071   1.130  15.432 -0.4785  0.0325 -0.1667
15557TIP3    H168086   3.976   1.129  15.423 -0.6124 -0.1511  1.1528
15557TIP3    H268087   4.090   1.063  15.497  0.6713 -0.8024 -1.3227
15558TIP3   OH268088   1.647   5.775  13.692  0.0244  0.3567 -0.5109
15558TIP3    H168089   1.637   5.698  13.636  0.0340 -0.3858  0.4729
15558TIP3    H268090   1.666   5.847  13.632 -2.0792  0.0238 -1.6474
15559TIP3   OH268091   5.164   0.035   2.386  0.3460  0.0940  0.0417
15559TIP3    H168092   5.194  -0.056   2.386  0.0520 -0.0650 -1.9357
15559TIP3    H268093   5.069   0.030   2.393  0.1136  0.0557 -2.3376
15560TIP3   OH268094   4.995   5.651  14.310  0.5359  0.3222 -0.0461
15560TIP3    H168095   5.041   5.711  14.369  1.0201 -0.2323  0.1520
15560TIP3    H268096   5.000   5.693  14.224 -0.7972  1.4827  0.4107
15561TIP3   OH268097   0.238   1.450   1.343  0.1522  0.2548  0.3470
15561TIP3    H168098   0.203   1.466   1.430 -2.2547  0.4551 -0.5883
15561TIP3    H268099   0.265   1.358   1.344 -0.4598  0.0743  1.1036
15562TIP3   OH268100   6.553   4.377  10.724  0.4315 -0.1686  0.3059
15562TIP3    H168101   6.630   4.430  10.745  0.7278  0.2329 -1.6557
15562TIP3    H268102   6.573   4.339  10.639 -1.2212 -0.7272  0.1419
15563TIP3   OH268103   2.002   3.959   1.793  0.3648  1.0326  0.0880
15563TIP3    H168104   1.914   3.931   1.816 -0.0037  1.2464 -0.9836
15563TIP3    H268105   2.058   3.886   1.822 -0.5186 -0.6494 -2.1108
15564TIP3   OH268106   2.529   2.593   1.740 -0.1348  0.1702 -0.2448
15564TIP3    H168107   2.503   2.529   1.673  0.6058 -0.2086 -0.1865
15564TIP3    H268108   2.583   2.542   1.801 -2.0729  0.1345  1.5178
15565TIP3   OH268109   2.667   2.260  13.937 -0.1840  0.2267  0.2317
15565TIP3    H168110   2.743   2.301  13.979 -0.5452  0.8209  0.3278
15565TIP3    H268111   2.704   2.208  13.866  0.3228  0.4145  0.3494
15566TIP3   OH268112   6.215   5.071   2.009  0.2889 -0.0384 -0.3750
15566TIP3    H168113   6.200   5.139   1.943 -1.6849  0.2787  0.3496
15566TIP3    H268114   6.197   4.989   1.963  0.4138  0.0794 -0.6366
15567TIP3   OH268115   3.217   0.833  13.941 -0.0628 -0.5797  0.5361
15567TIP3    H168116   3.195   0.740  13.942 -0.5392 -0.4686  0.9765
15567TIP3    H268117   3.297   0.840  13.992 -0.3287 -0.6783  0.9678
15568TIP3   OH268118   2.188   3.256  14.448  0.1177  0.0490  0.0569
15568TIP3    H168119   2.205   3.324  14.383 -3.5064 -0.2697 -1.5005
15568TIP3    H268120   2.163   3.303  14.527  1.2687  0.4714  0.1792
15569TIP3   OH268121   4.931   4.869  13.849  0.4880 -0.4471 -0.2159
15569TIP3    H168122   4.964   4.932  13.784 -1.1794 -1.1326 -1.8022
15569TIP3    H268123   4.892   4.799  13.797 -0.4476 -1.2912  1.5394
15570TIP3   OH268124   1.055   2.532   2.000 -0.4216  0.0398 -0.8196
15570TIP3    H168125   1.125   2.496   2.054 -0.2496 -0.9484 -1.6631
15570TIP3    H268126   0.976   2.489   2.033 -0.0403 -2.4476 -2.8140
15571TIP3   OH268127   0.774   4.471  10.995 -0.0802  0.2016 -0.0263
15571TIP3    H168128   0.807   4.399  10.942  1.7470  1.2214 -0.3418
15571TIP3    H268129   0.696   4.502  10.948  0.5531  0.0145 -1.2402
15572TIP3   OH268130   6.659   4.327   1.950  0.6713 -0.1867  0.3773
15572TIP3    H168131   6.599   4.262   1.913  0.6617  0.4243 -0.7233
15572TIP3    H268132   6.739   4.278   1.966 -0.3714 -1.2731  2.8621
15573TIP3   OH268133   4.239   0.095  15.265 -0.9723  0.3627 -0.6198
15573TIP3    H168134   4.248   0.130  15.176  0.8838  0.5350 -0.4001
15573TIP3    H268135   4.258   0.169  15.322  1.2086 -0.5089 -0.1389
15574TIP3   OH268136   2.074   6.290  11.631 -0.1535 -0.3235  0.2509
15574TIP3    H168137   2.023   6.212  11.656 -2.1122 -0.2461 -2.9942
15574TIP3    H268138   2.149   6.255  11.583 -0.4905 -0.2632 -0.3269
15575TIP3   OH268139   2.058   1.599   2.476  0.0229  0.1830 -0.3832
15575TIP3    H168140   2.144   1.599   2.517  0.2342  3.9359 -0.4828
15575TIP3    H268141   2.051   1.685   2.434 -2.2044 -1.4682 -3.9059
15576TIP3   OH268142   5.032   4.353  16.979 -1.2118  0.1520 -0.5540
15576TIP3    H168143   5.068   4.268  16.957 -2.5246 -0.4480 -0.4979
15576TIP3    H268144   5.106   4.413  16.975 -0.4556 -0.8170 -1.5872
15577TIP3   OH268145   0.644   4.381  13.194 -0.4366 -0.2449  0.1913
15577TIP3    H168146   0.719   4.366  13.136  0.0716 -0.1958  0.8301
15577TIP3    H268147   0.679   4.370  13.282 -0.6883  1.9010  0.6014
15578TIP3   OH268148   0.567   5.472  11.750 -0.7570 -0.3665  0.4330
15578TIP3    H168149   0.624   5.492  11.823  1.1238 -0.6051 -0.8886
15578TIP3    H268150   0.566   5.376  11.746 -0.5947 -0.3536 -0.0182
15579TIP3   OH268151   6.448   2.185  15.070 -0.1246  0.2526  0.2436
15579TIP3    H168152   6.371   2.230  15.105 -0.3432  0.4475 -0.4855
15579TIP3    H268153   6.522   2.236  15.104 -0.3748  1.2610 -0.6860
15580TIP3   OH268154   0.432   4.460   4.069 -1.1828 -0.2229 -0.6769
15580TIP3    H168155   0.354   4.449   4.123 -0.5651  1.0847  0.5412
15580TIP3    H268156   0.438   4.379   4.018 -0.3927 -2.7787  3.0690
15581TIP3   OH268157   4.271   5.139  14.770 -0.1843 -0.7975  0.1036
15581TIP3    H168158   4.362   5.141  14.799 -0.4117  1.9572  0.9437
15581TIP3    H268159   4.277   5.132  14.674  0.9802  0.2021  0.0756
15582TIP3   OH268160   5.480   5.781  15.049  0.1411 -0.5013  0.3842
15582TIP3    H168161   5.422   5.847  15.088  2.2619  0.6940  1.6789
15582TIP3    H268162   5.534   5.830  14.987  0.4981 -1.3861 -0.0241
15583TIP3   OH268163   0.380   1.928  12.726 -0.5972  0.8138  0.4352
15583TIP3    H168164   0.310   1.970  12.676 -2.3604  0.4096  2.4357
15583TIP3    H268165   0.424   2.001  12.770  0.8049  1.1458 -1.3925
15584TIP3   OH268166   5.596   4.746  13.891  0.6092 -0.4256  0.0614
15584TIP3    H168167   5.570   4.744  13.799  0.7800  1.8066 -0.0875
15584TIP3    H268168   5.514   4.759  13.939  0.1367 -4.0909  0.5361
15585TIP3   OH268169   3.967   3.039  16.348  0.2811 -0.1956  0.4631
15585TIP3    H168170   3.946   3.132  16.344 -2.4500 -0.6091  2.1216
15585TIP3    H268171   3.981   3.021  16.441 -1.2346 -1.7314  0.4559
15586TIP3   OH268172   3.000   3.173  13.027 -1.1221  0.1810 -0.3416
15586TIP3    H168173   2.951   3.131  12.956 -2.9242 -1.1763  1.5650
15586TIP3    H268174   2.941   3.241  13.060 -0.6404  0.3100  0.2790
15587TIP3   OH268175   2.178   5.646   5.247 -0.3356 -0.1555 -0.2393
15587TIP3    H168176   2.179   5.714   5.315 -1.0126  1.0297 -1.3576
15587TIP3    H268177   2.252   5.590   5.268 -0.0833  0.6069  1.0494
15588TIP3   OH268178   4.180   1.760  12.002 -0.5265 -0.1243 -0.7895
15588TIP3    H168179   4.215   1.849  12.009 -0.1751 -0.2276 -1.1781
15588TIP3    H268180   4.248   1.704  12.041 -0.1668 -0.3413 -1.6948
15589TIP3   OH268181   1.607   2.053   0.214  0.2987 -0.9131  0.2849
15589TIP3    H168182   1.702   2.051   0.221  0.4911 -0.6097 -1.8169
15589TIP3    H268183   1.579   1.967   0.244  1.2512 -1.1296  0.5792
15590TIP3   OH268184   5.952   5.676   5.233  0.6023 -0.4765 -0.1141
15590TIP3    H168185   6.030   5.642   5.190  1.7797  0.8209  0.9242
15590TIP3    H268186   5.977   5.763   5.265 -1.5761  0.3994 -0.6134
15591TIP3   OH268187   5.375   1.114  15.845 -0.1024 -0.1726  0.3335
15591TIP3    H168188   5.382   1.088  15.937  0.1151  0.0798  0.3881
15591TIP3    H268189   5.302   1.061  15.811 -1.5942  1.2451  1.1885
15592TIP3   OH268190   2.736   1.567   0.383  0.4114  0.2309 -0.7877
15592TIP3    H168191   2.647   1.544   0.357 -0.1107  2.1428 -0.7869
15592TIP3    H268192   2.781   1.482   0.393 -1.3682 -0.7537 -0.8541
15593TIP3   OH268193   5.452   0.688   0.136 -0.1982  0.2364 -0.1591
15593TIP3    H168194   5.534   0.710   0.180  0.4404 -0.5025 -0.9441
15593TIP3    H268195   5.387   0.745   0.177  0.2008 -0.9253  2.2754
15594TIP3   OH268196   0.444   0.173   2.315  0.3179  0.4597 -0.0301
15594TIP3    H168197   0.415   0.139   2.230 -2.1185  1.7150  0.1857
15594TIP3    H268198   0.539   0.167   2.312  0.2341 -1.1980 -2.1169
15595TIP3   OH268199   4.807   5.029  16.557  0.2722  0.2340 -0.4362
15595TIP3    H168200   4.771   4.941  16.568 -2.8014  1.2974 -0.8653
15595TIP3    H268201   4.814   5.040  16.462 -0.5062  0.8287 -0.4346
15596TIP3   OH268202   0.760   0.043  15.307  0.8427 -0.0985  0.0275
15596TIP3    H168203   0.847   0.069  15.340  0.5089  0.7630  0.2542
15596TIP3    H268204   0.724   0.123  15.271  0.5592 -0.6878 -1.0423
15597TIP3   OH268205   5.388   2.283  14.448 -0.1936  0.1798 -0.1641
15597TIP3    H168206   5.376   2.354  14.510  2.0154  0.3574  0.1555
15597TIP3    H268207   5.441   2.322  14.377  1.0345 -1.0856  0.0044
15598TIP3   OH268208   5.695   6.447   6.361  0.5704  0.1386 -0.3011
15598TIP3    H168209   5.608   6.406   6.364  0.0525  1.1766 -0.5372
15598TIP3    H268210   5.748   6.396   6.422 -0.7651  0.7329  1.4319
15599TIP3   OH268211   0.802   5.641   2.115 -0.2707 -0.5010  0.2795
15599TIP3    H168212   0.780   5.693   2.193 -0.3023  0.1326 -0.1443
15599TIP3    H268213   0.863   5.574   2.148 -1.6398 -1.3650  1.1851
15600TIP3   OH268214   2.217   5.082  14.641 -0.6112  0.1899  0.5787
15600TIP3    H168215   2.286   5.128  14.593  0.1798  0.4752  1.9074
15600TIP3    H268216   2.160   5.151  14.674  0.0613  0.1985  1.8044
15601TIP3   OH268217   3.050   1.322  15.761  0.0113 -0.0347 -0.2880
15601TIP3    H168218   3.065   1.300  15.853 -0.0714  0.3166 -0.1868
15601TIP3    H268219   3.138   1.327  15.723  0.0224 -0.7655 -0.3731
15602TIP3   OH268220   4.024   6.161  16.142 -0.3414  0.9957  0.6069
15602TIP3    H168221   3.999   6.206  16.223  1.1186 -0.3216  1.8738
15602TIP3    H268222   3.992   6.071  16.153  1.2676  0.3731  0.4745
15603TIP3   OH268223   6.237   2.374  12.416 -0.1170  0.8026 -0.1029
15603TIP3    H168224   6.219   2.281  12.430  0.2781  0.1551 -3.2131
15603TIP3    H268225   6.151   2.413  12.402 -0.1239  0.4398 -1.1020
15604TIP3   OH268226   1.796   6.061  15.099 -0.4463 -0.3493 -0.6173
15604TIP3    H168227   1.750   6.145  15.093 -0.1444 -0.1665 -0.3754
15604TIP3    H268228   1.889   6.084  15.095 -0.3633 -0.6713 -0.5481
15605TIP3   OH268229   1.726   3.488   2.761  0.0553  0.1377  0.1172
15605TIP3    H168230   1.659   3.525   2.703 -0.5058 -0.2618  0.4915
15605TIP3    H268231   1.697   3.399   2.777  2.5796 -1.3254 -2.6178
15606TIP3   OH268232   0.831   0.381   2.469  0.5373  0.0461 -0.2589
15606TIP3    H168233   0.912   0.430   2.451  0.1988  0.4502 -0.7035
15606TIP3    H268234   0.761   0.442   2.445  0.0989 -0.2288  0.3206
15607TIP3   OH268235   6.131   5.454   6.686 -0.4717 -0.2820  0.2514
15607TIP3    H168236   6.094   5.515   6.749  2.1122 -0.3478  2.0103
15607TIP3    H268237   6.134   5.502   6.604  0.0332  1.4056  1.2183
15608TIP3   OH268238   4.864   2.845   2.773 -0.9164 -0.2862  0.2962
15608TIP3    H168239   4.796   2.913   2.770  1.1884  1.9665 -0.4212
15608TIP3    H268240   4.866   2.817   2.864 -1.1110  1.5181  0.9119
15609TIP3   OH268241   2.094   4.321  12.384  0.1084  0.8805 -0.5526
15609TIP3    H168242   2.042   4.345  12.308  1.0051  0.6401 -1.2510
15609TIP3    H268243   2.184   4.344  12.361  0.6268 -0.6983 -0.2291
15610TIP3   OH268244   2.293   0.801  13.754  0.1628  0.0034  0.2072
15610TIP3    H168245   2.205   0.764  13.757 -0.3662  1.0955 -0.8819
15610TIP3    H268246   2.308   0.834  13.842 -1.3265  1.5397 -0.0604
15611TIP3   OH268247   2.541   1.695   2.269  0.0484  0.1075 -0.5658
15611TIP3    H168248   2.605   1.729   2.332 -0.6053 -0.6262  0.5331
15611TIP3    H268249   2.556   1.601   2.269 -0.9545 -0.0642 -0.3577
15612TIP3   OH268250   2.281   2.640   1.499 -0.1278 -0.5237  0.0852
15612TIP3    H168251   2.354   2.580   1.507 -0.1952 -0.4722  1.3017
15612TIP3    H268252   2.320   2.722   1.468  0.0372 -1.0286 -1.0771
15613TIP3   OH268253   5.414   5.790  12.638  0.3730  0.5011 -0.3024
15613TIP3    H168254   5.337   5.737  12.618  0.5017  0.3061 -0.2839
15613TIP3    H268255   5.487   5.742  12.599  0.2877  1.5943 -1.9049
15614TIP3   OH268256   0.014   3.011  15.259  0.9439 -0.2039  0.2173
15614TIP3    H168257  -0.010   2.934  15.311  0.5546 -1.4686 -1.7119
15614TIP3    H268258  -0.067   3.035  15.215  1.4309  0.3521 -0.3828
15615TIP3   OH268259   6.151   4.759   1.352  0.2461  0.0758 -0.8562
15615TIP3    H168260   6.175   4.681   1.402  1.0921  0.6372 -0.3703
15615TIP3    H268261   6.137   4.726   1.263  2.6031 -0.3692 -1.1409
15616TIP3   OH268262   6.073   4.973   3.709  0.1987 -0.2198  0.2909
15616TIP3    H168263   6.026   4.990   3.791 -0.7940  2.2495 -0.7099
15616TIP3    H268264   6.005   4.970   3.642  1.2430  1.1297 -0.8815
15617TIP3   OH268265   4.276   6.118   5.164  0.3252  0.3227 -0.1864
15617TIP3    H168266   4.324   6.043   5.131  0.4829  0.0229  0.6990
15617TIP3    H268267   4.336   6.162   5.224 -0.0993  0.5988  0.0485
15618TIP3   OH268268   3.716   6.042   1.001 -0.1571 -0.0186 -0.3607
15618TIP3    H168269   3.676   5.994   0.928 -0.0040 -0.1074 -0.3852
15618TIP3    H268270   3.701   5.985   1.077 -0.5418  0.1900 -0.2758
15619TIP3   OH268271   0.311   2.553  13.651 -0.3358  0.5500  0.6955
15619TIP3    H168272   0.342   2.483  13.593  0.4675 -0.3424  2.1223
15619TIP3    H268273   0.216   2.548  13.645 -0.3374 -1.3228  1.4497
15620TIP3   OH268274   1.261   2.456  13.996  0.6978  0.4282 -0.6692
15620TIP3    H168275   1.204   2.520  14.039  0.9262  0.2660 -0.1058
15620TIP3    H268276   1.215   2.433  13.915 -1.9073 -2.3577  1.3408
15621TIP3   OH268277   3.791   5.349   2.718 -0.0242  0.3328 -0.0437
15621TIP3    H168278   3.752   5.326   2.634  0.2462 -0.8536  0.1339
15621TIP3    H268279   3.885   5.343   2.703  0.0336  0.5865  0.2167
15622TIP3   OH268280   5.427   3.015  12.188 -0.3345 -0.1749 -0.5585
15622TIP3    H168281   5.490   2.988  12.255 -0.8007  0.7648  0.3021
15622TIP3    H268282   5.431   3.111  12.190 -1.5879 -0.1076 -0.6652
15623TIP3   OH268283   0.166   1.050   5.445 -0.5374  0.0787  0.2283
15623TIP3    H168284   0.146   0.973   5.392 -2.0208  0.6693 -0.1032
15623TIP3    H268285   0.258   1.068   5.426 -0.8619 -0.0611 -1.7354
15624TIP3   OH268286   2.361   5.008  12.981 -0.6462 -0.1258 -0.2182
15624TIP3    H168287   2.440   4.994  12.928  0.2477  0.1608  0.9968
15624TIP3    H268288   2.353   5.104  12.986 -0.5946 -0.1497  0.3494
15625TIP3   OH268289   6.216   2.875   5.735 -0.3478 -0.2955 -0.2921
15625TIP3    H168290   6.273   2.882   5.811 -1.3725 -1.2698  0.6059
15625TIP3    H268291   6.274   2.886   5.660  0.9520 -0.8704  0.5990
15626TIP3   OH268292   5.695   5.365  16.871 -0.2727 -0.3738 -0.0987
15626TIP3    H168293   5.752   5.319  16.933 -1.5092 -1.4480  0.2954
15626TIP3    H268294   5.607   5.353  16.907 -0.8863  0.0330 -1.4231
15627TIP3   OH268295   1.931   0.091  11.013  0.6913 -0.2615  0.0486
15627TIP3    H168296   2.015   0.136  11.021  1.2380 -1.3417  0.6113
15627TIP3    H268297   1.954  -0.002  11.001 -0.4124 -0.5217 -0.2169
15628TIP3   OH268298   5.909   2.154   3.643  1.0601 -0.6371 -0.2081
15628TIP3    H168299   5.844   2.119   3.703  0.8457 -0.3931 -0.2938
15628TIP3    H268300   5.991   2.111   3.668  0.8523 -0.9991 -0.1469
15629TIP3   OH268301   3.832   6.663  11.946 -0.2465 -0.5442 -0.3348
15629TIP3    H168302   3.829   6.758  11.961 -0.3960 -0.8551  1.8498
15629TIP3    H268303   3.924   6.644  11.928 -0.5374  0.2804 -3.2606
15630TIP3   OH268304   0.272   2.127   1.147  0.3165  0.0911 -0.0311
15630TIP3    H168305   0.259   2.155   1.056  0.8392 -0.0592 -0.1509
15630TIP3    H268306   0.187   2.144   1.189 -0.4275 -1.2341 -0.9004
15631TIP3   OH268307   6.525   2.646   5.935 -0.0050 -0.5960 -0.3028
15631TIP3    H168308   6.466   2.720   5.947  0.5746 -0.3791  1.6354
15631TIP3    H268309   6.612   2.685   5.935  0.2634 -1.1866 -0.1254
15632TIP3   OH268310   0.599   6.518  14.577  0.1488 -0.0601 -0.1660
15632TIP3    H168311   0.652   6.456  14.628 -0.0782  1.0834  1.5435
15632TIP3    H268312   0.648   6.529  14.495  2.9058  1.3101  1.4940
15633TIP3   OH268313   0.686   2.697   2.562 -0.0659 -0.2022  0.3849
15633TIP3    H168314   0.617   2.632   2.571 -0.1328 -0.5780 -2.0389
15633TIP3    H268315   0.735   2.669   2.484  0.6260  1.9719 -0.0318
15634TIP3   OH268316   6.103   6.676   2.593 -0.5616  0.2321  0.1281
15634TIP3    H168317   6.165   6.720   2.535  1.1600 -1.1204  0.8691
15634TIP3    H268318   6.146   6.676   2.679 -0.4223 -2.9119  0.1648
15635TIP3   OH268319   1.979   1.839  13.182 -0.2127 -0.4963 -0.1293
15635TIP3    H168320   1.884   1.831  13.195 -0.5638  1.1173 -1.4426
15635TIP3    H268321   1.989   1.851  13.088  0.8584  3.8932  0.3396
15636TIP3   OH268322   3.066   5.917  11.080 -0.2306 -0.1352 -0.2759
15636TIP3    H168323   3.115   5.932  10.999 -0.3958  0.4108 -0.2820
15636TIP3    H268324   2.975   5.909  11.051 -0.2958  0.1091 -0.1412
15637TIP3   OH268325   1.913   3.167   1.447 -0.5943 -0.0623  0.0198
15637TIP3    H168326   1.856   3.094   1.472  1.3056 -1.8604 -0.6512
15637TIP3    H268327   1.867   3.209   1.374 -1.4798 -0.8589  0.0980
15638TIP3   OH268328   4.492   2.377  11.964  0.2624  0.3537  0.2899
15638TIP3    H168329   4.472   2.283  11.962  0.7483  0.2149  1.2522
15638TIP3    H268330   4.586   2.382  11.943  0.8819  0.3675  2.7233
15639TIP3   OH268331   5.896   6.292   2.887  0.2379 -0.1050 -0.1106
15639TIP3    H168332   5.957   6.340   2.944  1.2704 -1.1763 -0.2580
15639TIP3    H268333   5.859   6.224   2.943 -1.6554  1.1529  0.2508
15640TIP3   OH268334   6.353   3.261   2.781  0.9390 -0.0086 -0.5164
15640TIP3    H168335   6.368   3.238   2.690 -1.1106 -0.3634 -0.8036
15640TIP3    H268336   6.320   3.351   2.779  0.3889 -0.1953 -0.1824
15641TIP3   OH268337   4.871   3.139  12.345 -0.4320 -0.0982  0.1011
15641TIP3    H168338   4.838   3.167  12.260 -0.3806 -0.0778  0.0884
15641TIP3    H268339   4.963   3.121  12.331 -0.9001 -2.4371 -0.4331
15642TIP3   OH268340   0.737   5.651   6.605  0.2603  0.0348 -0.2824
15642TIP3    H168341   0.736   5.740   6.642 -0.1656 -0.7149  1.6610
15642TIP3    H268342   0.680   5.656   6.529 -1.5345  0.9589  1.0521
15643TIP3   OH268343   2.437   4.153  12.696 -0.1248  0.5317  0.0267
15643TIP3    H168344   2.513   4.099  12.673 -0.3572  0.6499 -1.0628
15643TIP3    H268345   2.416   4.201  12.615 -1.9246 -0.1871  0.0189
15644TIP3   OH268346   2.644   0.478  11.209  0.1632 -0.5062  0.4395
15644TIP3    H168347   2.638   0.384  11.193 -0.0982 -0.3534 -0.4665
15644TIP3    H268348   2.616   0.518  11.126 -0.7030  0.3771  1.1196
15645TIP3   OH268349   6.680   6.637  12.934  0.2750 -0.1760  0.0906
15645TIP3    H168350   6.747   6.667  12.995 -0.0731  0.3630  0.2108
15645TIP3    H268351   6.723   6.641  12.848  1.2566 -2.3289  0.4018
15646TIP3   OH268352   5.433   5.469  14.247 -0.3630  0.0751 -0.2247
15646TIP3    H168353   5.457   5.376  14.253 -1.4648 -0.1842  0.5075
15646TIP3    H268354   5.405   5.492  14.336  2.3529  1.8360  0.3047
15647TIP3   OH268355   1.743   6.336  11.580 -0.6250 -0.3369 -0.6388
15647TIP3    H168356   1.787   6.356  11.663 -1.1747  1.4337 -0.7480
15647TIP3    H268357   1.766   6.408  11.522 -0.1254 -1.6214 -2.1187
15648TIP3   OH268358   6.309   6.444  11.593 -0.3706  0.3386 -0.1284
15648TIP3    H168359   6.237   6.475  11.539 -0.0133  1.5873  0.0985
15648TIP3    H268360   6.293   6.480  11.680  1.6944  2.6305 -0.5828
15649TIP3   OH268361   6.611   5.307  14.094 -0.1276 -0.4452  0.1977
15649TIP3    H168362   6.598   5.284  14.186 -2.2129  0.8486  0.2813
15649TIP3    H268363   6.697   5.348  14.092  0.4079 -1.4343  1.3572
15650TIP3   OH268364   0.026   1.001   4.366 -0.2209 -0.0343 -0.1292
15650TIP3    H168365   0.090   1.005   4.295 -0.8264 -0.7658 -0.7272
15650TIP3    H268366   0.078   0.981   4.444  0.2661 -0.7169 -0.6273
15651TIP3   OH268367   3.551   1.339   0.700 -0.0055  0.3121  0.6480
15651TIP3    H168368   3.548   1.424   0.657  1.8445  1.2207  2.1452
15651TIP3    H268369   3.623   1.346   0.763 -1.2004 -1.6076  2.3951
15652TIP3   OH268370   2.171   4.981  15.744  0.4134 -0.0703 -0.1761
15652TIP3    H168371   2.166   4.931  15.825  0.9341 -1.0340 -0.7293
15652TIP3    H268372   2.080   4.989  15.716  0.3604 -1.2889 -0.4174
15653TIP3   OH268373   6.683   1.612   5.903 -0.3053 -0.2919  0.5779
15653TIP3    H168374   6.671   1.531   5.855  1.3475 -0.2813  0.1162
15653TIP3    H268375   6.675   1.587   5.995  0.1838 -0.9799  0.4390
15654TIP3   OH268376   0.601   3.898  13.518 -0.0676 -0.0256  0.1541
15654TIP3    H168377   0.607   3.992  13.497 -1.0514  0.3815  1.5811
15654TIP3    H268378   0.637   3.891  13.606 -2.4322 -0.5338  1.1525
15655TIP3   OH268379   3.156   6.609  15.345  0.2544 -0.2331  0.6698
15655TIP3    H168380   3.189   6.690  15.306  1.7313 -1.2869 -0.4115
15655TIP3    H268381   3.082   6.636  15.400  0.5841  1.7952  0.1795
15656TIP3   OH268382   5.803   1.548  13.236  0.4744 -0.1816 -0.3438
15656TIP3    H168383   5.786   1.616  13.302 -1.3492 -0.1672 -0.7733
15656TIP3    H268384   5.874   1.497  13.273  1.7906  1.8225  0.0808
15657TIP3   OH268385   2.946   5.000   3.591 -0.1795 -0.3384  0.2683
15657TIP3    H168386   2.898   5.005   3.508 -0.3295 -0.4390  0.3490
15657TIP3    H268387   2.986   5.086   3.601 -1.0004  0.0083  0.6001
15658TIP3   OH268388   0.098   3.453  17.224 -0.0927 -0.0412  0.0461
15658TIP3    H168389   0.068   3.459  17.315 -0.0539  0.3938  0.0321
15658TIP3    H268390   0.042   3.514  17.176  1.7344  1.9228  0.2714
15659TIP3   OH268391   2.538   5.390   2.085  0.3634  0.0370  0.3778
15659TIP3    H168392   2.600   5.392   2.158 -0.0371  0.1290  0.7177
15659TIP3    H268393   2.555   5.305   2.043  1.6709  0.6410 -0.3789
15660TIP3   OH268394   1.495   1.085  12.366  0.7116  0.4805 -0.0541
15660TIP3    H168395   1.551   1.147  12.413  1.8711 -1.0689  0.6775
15660TIP3    H268396   1.475   1.017  12.431 -1.2362  0.4887 -0.5894
15661TIP3   OH268397   5.452   5.642  12.147  0.1096  0.1840  0.1685
15661TIP3    H168398   5.375   5.596  12.180 -0.4067  0.9719  0.1040
15661TIP3    H268399   5.518   5.630  12.215  0.6787 -2.3603 -0.7511
15662TIP3   OH268400   4.178   0.256   1.664  0.6522  0.0040 -1.1421
15662TIP3    H168401   4.157   0.344   1.635  1.4974  0.0699 -1.5960
15662TIP3    H268402   4.220   0.215   1.589  1.0316 -0.4988 -0.6664
15663TIP3   OH268403   3.771   2.189  12.802 -0.2918  0.2567  0.6357
15663TIP3    H168404   3.860   2.174  12.772 -0.4711 -2.0762  1.0902
15663TIP3    H268405   3.725   2.222  12.724 -0.2346 -3.6514 -1.3482
15664TIP3   OH268406   2.541   2.130  17.043 -0.2022  0.1127  0.3978
15664TIP3    H168407   2.588   2.137  16.960  0.3325 -0.2115  0.6639
15664TIP3    H268408   2.610   2.120  17.109 -0.5913  1.0469  0.9648
15665TIP3   OH268409   5.498   1.355   4.107 -0.3734 -0.6994 -0.0380
15665TIP3    H168410   5.557   1.290   4.069 -0.8298  0.8703 -3.8463
15665TIP3    H268411   5.556   1.427   4.133 -0.1446 -1.4615  1.7266
15666TIP3   OH268412   2.021   3.346  15.631 -0.4893  0.1308  0.2943
15666TIP3    H168413   1.959   3.375  15.565  0.1530  0.0261 -0.3685
15666TIP3    H268414   2.057   3.264  15.596 -0.6947 -0.3336  1.1305
15667TIP3   OH268415   3.634   1.745   5.974 -0.6975  0.1418 -0.1660
15667TIP3    H168416   3.629   1.690   6.053 -1.6943 -1.8553 -1.5356
15667TIP3    H268417   3.555   1.800   5.979  0.4582  1.7847  1.3665
15668TIP3   OH268418   2.833   5.467   0.437  0.2282 -0.5731  0.3060
15668TIP3    H168419   2.860   5.386   0.393 -1.1711 -1.3328  0.7734
15668TIP3    H268420   2.739   5.473   0.420  0.0465  0.2070  1.4696
15669TIP3   OH268421   0.897   3.491   2.385 -0.0011  0.2151  0.0196
15669TIP3    H168422   0.844   3.435   2.441  0.2761  0.9974  1.0899
15669TIP3    H268423   0.861   3.477   2.297 -2.8863  1.7020  0.8503
15670TIP3   OH268424   3.964   5.584   0.405 -0.4228  0.3872  0.5069
15670TIP3    H168425   3.964   5.498   0.449 -1.2682  1.6518  3.2038
15670TIP3    H268426   4.054   5.595   0.375 -0.1266 -1.1396  0.7569
15671TIP3   OH268427   6.090   3.498   6.183 -0.2801  0.2536  0.5770
15671TIP3    H168428   6.129   3.584   6.199  1.1296 -0.3392  0.5003
15671TIP3    H268429   6.000   3.506   6.216 -0.4889  2.0322 -0.3273
15672TIP3   OH268430   5.051   2.813  11.617  0.0346  0.2114  0.6144
15672TIP3    H168431   5.090   2.846  11.536 -3.3398  1.9807 -0.4753
15672TIP3    H268432   5.022   2.724  11.596 -0.4355  0.5052 -0.0107
15673TIP3   OH268433   1.873   2.596  13.637  0.0955 -0.7386  0.1011
15673TIP3    H168434   1.882   2.683  13.599 -0.3601 -1.0362 -0.7144
15673TIP3    H268435   1.915   2.538  13.575  0.3471 -1.1143  0.6159
15674TIP3   OH268436   0.504   5.359  13.016  0.0863  0.5985 -0.1328
15674TIP3    H168437   0.462   5.443  13.032  1.2125  1.1290  0.0981
15674TIP3    H268438   0.455   5.297  13.071 -0.3432  1.2083  0.1797
15675TIP3   OH268439   4.478   4.590   4.799  0.2117 -0.2447 -0.2450
15675TIP3    H168440   4.529   4.586   4.879 -1.6348 -1.0996  0.9581
15675TIP3    H268441   4.531   4.544   4.734  1.5323  0.0648  0.5740
15676TIP3   OH268442   6.230   1.256  13.858 -0.2988 -0.0969  0.3960
15676TIP3    H168443   6.205   1.252  13.950 -1.0242  1.1573  0.2730
15676TIP3    H268444   6.296   1.187  13.848 -0.0123 -0.0687  1.9015
15677TIP3   OH268445   5.255   2.184  17.203 -0.3203  0.4450 -0.0809
15677TIP3    H168446   5.264   2.236  17.282 -2.2992  0.5999  0.0896
15677TIP3    H268447   5.188   2.229  17.152  0.6252  0.1269 -1.6832
15678TIP3   OH268448   1.948   3.264   0.601  0.4961 -0.9756  0.6357
15678TIP3    H168449   1.907   3.247   0.517  0.6471  0.3867  0.2528
15678TIP3    H268450   2.039   3.283   0.580  0.9637 -2.3862  1.3086
15679TIP3   OH268451   6.593   2.654   5.256  0.2615 -0.0284 -0.2014
15679TIP3    H168452   6.637   2.641   5.340 -1.9268 -0.1590  1.0066
15679TIP3    H268453   6.500   2.636   5.274 -0.6612  2.2678 -2.0735
15680TIP3   OH268454   3.215   3.162   2.793 -0.3167  0.1938  0.2688
15680TIP3    H168455   3.285   3.175   2.857 -0.1574  2.2882 -0.2370
15680TIP3    H268456   3.166   3.245   2.794 -1.7354 -0.5859 -0.6465
15681TIP3   OH268457   3.731   1.820   1.583  0.9728 -0.1731 -0.6594
15681TIP3    H168458   3.797   1.823   1.514  1.5447 -2.7516 -0.3055
15681TIP3    H268459   3.781   1.814   1.664  0.2982  0.0817 -0.2101
15682TIP3   OH268460   5.353   6.047   5.866  0.2984 -0.5165 -0.1994
15682TIP3    H168461   5.443   6.073   5.845 -0.0684  0.6671 -0.3628
15682TIP3    H268462   5.358   6.013   5.955  1.1099 -1.5599 -0.6248
15683TIP3   OH268463   0.163   6.270   6.147  0.0471 -0.0051 -0.3656
15683TIP3    H168464   0.071   6.284   6.125 -0.8685 -1.8617  1.8306
15683TIP3    H268465   0.174   6.315   6.231  0.9567 -0.4139 -0.2623
15684TIP3   OH268466   2.354   0.471  13.759 -0.3325  0.1996  0.3868
15684TIP3    H168467   2.385   0.553  13.798 -0.9982  0.4253  0.4581
15684TIP3    H268468   2.259   0.479  13.759 -0.3615 -0.0555 -0.7515
15685TIP3   OH268469   1.783   6.554  13.302  0.0954  0.7694  0.4567
15685TIP3    H168470   1.827   6.535  13.219 -0.0509 -2.3769  0.9544
15685TIP3    H268471   1.855   6.562  13.366  0.1273  0.1789  0.5029
15686TIP3   OH268472   3.455   5.818  14.950  0.0346  0.2394 -0.3516
15686TIP3    H168473   3.484   5.807  15.040 -1.8740 -0.2970  0.2329
15686TIP3    H268474   3.400   5.896  14.951 -1.0908 -0.5190 -0.7333
15687TIP3   OH268475   1.587   5.611  17.270 -0.3890 -0.0871  0.3484
15687TIP3    H168476   1.513   5.571  17.224 -0.2789  1.4981 -1.3355
15687TIP3    H268477   1.591   5.700  17.237  2.4800 -0.1821  0.1139
15688TIP3   OH268478   4.803   1.071   4.950 -0.5651 -0.0029 -0.2996
15688TIP3    H168479   4.849   1.124   5.015 -0.4565 -2.1690  1.5554
15688TIP3    H268480   4.872   1.018   4.910 -0.7896  0.4994 -1.3722
15689TIP3   OH268481   5.158   3.757  11.666 -0.0947 -0.8486  0.1553
15689TIP3    H168482   5.121   3.845  11.666 -2.3468 -1.7159 -0.9925
15689TIP3    H268483   5.251   3.770  11.648 -0.1274  1.3430  1.2251
15690TIP3   OH268484   0.341   3.545  11.741  0.3775 -0.4242 -0.2518
15690TIP3    H168485   0.426   3.535  11.697  1.0263 -0.8198  1.0142
15690TIP3    H268486   0.315   3.455  11.762  0.8225 -0.1892  1.4551
15691TIP3   OH268487   1.449   2.148   3.611 -0.2153  0.0319 -0.6878
15691TIP3    H168488   1.480   2.238   3.610  0.5491 -0.2122 -2.4262
15691TIP3    H268489   1.518   2.099   3.655 -0.2038  0.1630 -0.5612
15692TIP3   OH268490   0.793   5.754   1.531  0.0645  0.0494 -0.1269
15692TIP3    H168491   0.736   5.681   1.505  2.0241 -0.5639 -3.3451
15692TIP3    H268492   0.745   5.832   1.505  0.1535 -0.4086 -1.7933
15693TIP3   OH268493   1.883   4.114   4.912  0.1284  0.0860  0.4853
15693TIP3    H168494   1.892   4.204   4.881 -1.2415  1.0344  2.6230
15693TIP3    H268495   1.864   4.122   5.005 -2.9726 -2.2542  0.2240
15694TIP3   OH268496   2.790   4.649   5.146  0.4189 -0.0861 -0.5884
15694TIP3    H168497   2.872   4.669   5.102  1.7718  0.4619  1.9708
15694TIP3    H268498   2.793   4.555   5.162  1.9929  0.2845  1.9239
15695TIP3   OH268499   2.523   6.675   2.776  0.2863 -0.5218  0.8891
15695TIP3    H168500   2.532   6.734   2.852  1.5292 -0.1106  0.4527
15695TIP3    H268501   2.606   6.627   2.774 -0.2079 -1.3707  0.4696
15696TIP3   OH268502   1.183   0.871   0.318 -0.1292 -0.0253 -0.0021
15696TIP3    H168503   1.122   0.893   0.388 -2.1031 -0.2095 -1.5737
15696TIP3    H268504   1.209   0.780   0.336 -2.4821 -0.9181 -0.6914
15697TIP3   OH268505   3.496   5.998  11.648 -0.2144  0.1033  0.0249
15697TIP3    H168506   3.563   6.066  11.640  0.9275 -0.8051  1.2736
15697TIP3    H268507   3.479   5.970  11.558  2.4499 -0.8763 -0.2717
15698TIP3   OH268508   2.761   5.987  13.120  0.5478 -0.1008  0.1625
15698TIP3    H168509   2.840   6.027  13.084  1.1090 -2.0609 -0.9010
15698TIP3    H268510   2.692   6.011  13.057  0.8267 -0.5664 -0.3296
15699TIP3   OH268511   5.006   1.117   2.210  0.4367 -0.3954 -0.0606
15699TIP3    H168512   5.033   1.167   2.287 -2.5534 -0.1343  0.9481
15699TIP3    H268513   4.990   1.029   2.244 -2.5859  0.1303  0.1111
15700TIP3   OH268514   0.418   4.528   2.164 -0.0488 -0.0169  0.2421
15700TIP3    H168515   0.452   4.513   2.076  1.5887 -0.4735  0.9193
15700TIP3    H268516   0.412   4.623   2.172 -0.1876  0.0268 -0.3418
15701TIP3   OH268517   1.078   5.595   0.442  0.4576  0.0842 -0.0824
15701TIP3    H168518   1.076   5.595   0.538 -1.4994 -0.8018 -0.0879
15701TIP3    H268519   1.117   5.511   0.419  0.7981  0.2376 -0.0715
15702TIP3   OH268520   4.883   2.441  14.654  0.7076  0.0034 -0.2886
15702TIP3    H168521   4.938   2.515  14.679  1.2042 -0.9811  1.7371
15702TIP3    H268522   4.924   2.406  14.575  2.2292  0.1092  0.4264
15703TIP3   OH268523   3.922   5.510   3.010  0.1821 -0.3387 -0.0358
15703TIP3    H168524   4.010   5.484   2.984  0.5324  0.8986 -0.1447
15703TIP3    H268525   3.870   5.430   3.003  0.7165 -0.5462 -2.5565
15704TIP3   OH268526   2.702   0.804   5.777  0.1724  0.5631 -0.1339
15704TIP3    H168527   2.636   0.794   5.708  0.1729  1.2139 -0.2367
15704TIP3    H268528   2.683   0.734   5.839 -0.2703  0.4055 -0.4415
15705TIP3   OH268529   0.494   6.238   2.575  0.3316 -0.2176  0.1640
15705TIP3    H168530   0.584   6.256   2.603  0.1346  0.9444  0.0999
15705TIP3    H268531   0.440   6.281   2.641 -0.1875 -1.0587  0.2958
15706TIP3   OH268532   5.162   4.434  12.071  0.0659 -0.8012  0.2330
15706TIP3    H168533   5.072   4.435  12.103 -0.5528 -0.2217 -1.4323
15706TIP3    H268534   5.176   4.345  12.040 -1.0047 -0.2162 -2.2100
15707TIP3   OH268535   0.459   5.975  16.649 -0.0586  0.3899  0.1971
15707TIP3    H168536   0.376   6.014  16.675 -0.4886 -0.2284 -0.2038
15707TIP3    H268537   0.487   5.924  16.725 -0.9790 -0.8799 -0.2691
15708TIP3   OH268538   3.766   5.255  12.689 -0.2655 -0.3623  0.4870
15708TIP3    H168539   3.852   5.256  12.731  0.9602  1.4259 -1.8151
15708TIP3    H268540   3.732   5.344  12.703 -0.6834 -0.3391 -0.5987
15709TIP3   OH268541   0.718   6.209  15.915  0.2731 -0.0339  0.5506
15709TIP3    H168542   0.647   6.194  15.977  1.7735 -0.8392  2.1663
15709TIP3    H268543   0.719   6.304  15.902 -1.3720 -0.0456  0.0844
15710TIP3   OH268544   5.393   2.462   1.726  0.0342  0.3714  0.7350
15710TIP3    H168545   5.433   2.408   1.658  0.9640  0.1388  1.4597
15710TIP3    H268546   5.369   2.543   1.680  0.8319  0.2987  0.1682
15711TIP3   OH268547   1.564   0.943   4.742  0.3014  0.1002 -0.6555
15711TIP3    H168548   1.609   0.997   4.808  0.5745 -1.9215  0.9134
15711TIP3    H268549   1.472   0.946   4.767  0.2304  0.2981 -0.9316
15712TIP3   OH268550   0.444   6.445  15.458 -0.2310 -0.7856 -0.6932
15712TIP3    H168551   0.391   6.408  15.528  1.0239 -1.4258 -0.0380
15712TIP3    H268552   0.468   6.370  15.403  0.9412 -0.7112 -0.3121
15713TIP3   OH268553   0.705   3.036  13.283  1.1899 -0.1992  0.2891
15713TIP3    H168554   0.646   2.966  13.312  1.2598  0.4777  2.1634
15713TIP3    H268555   0.719   3.018  13.190 -0.7511 -1.2494  0.1502
15714TIP3   OH268556   5.334   0.697   3.767  0.1695 -0.3349 -0.1178
15714TIP3    H168557   5.302   0.611   3.794 -0.8822  0.3319  0.8652
15714TIP3    H268558   5.383   0.680   3.687 -1.4163 -1.6502 -0.8795
15715TIP3   OH268559   1.997   2.689  17.134 -0.0521 -0.5468  0.8674
15715TIP3    H168560   1.965   2.779  17.142 -0.1005 -0.5425  0.6434
15715TIP3    H268561   1.965   2.645  17.212 -0.0763 -0.3836  0.9496
15716TIP3   OH268562   2.475   3.643  16.767  0.3334  0.2838  0.2740
15716TIP3    H168563   2.405   3.612  16.709 -0.6609  1.2056  0.9560
15716TIP3    H268564   2.547   3.582  16.751 -0.2622 -0.0875 -1.1829
15717TIP3   OH268565   1.769   5.905  10.734 -0.3652  0.2074 -0.1035
15717TIP3    H168566   1.759   5.959  10.812 -1.0755  1.0873 -0.7705
15717TIP3    H268567   1.861   5.877  10.735 -0.4311 -0.0219  1.1659
15718TIP3   OH268568   0.717   4.372  15.075 -0.0988  0.2461  0.1212
15718TIP3    H168569   0.763   4.293  15.044 -0.1139  0.1300  0.3912
15718TIP3    H268570   0.755   4.443  15.024 -2.7872 -0.3377 -3.0356
15719TIP3   OH268571   3.108   2.381  11.294  0.0196  0.1101  0.0749
15719TIP3    H168572   3.161   2.324  11.350  0.6978  1.7027  1.1514
15719TIP3    H268573   3.044   2.420  11.354 -0.1356  0.8070 -0.5357
15720TIP3   OH268574   3.480   3.986   1.162 -0.1172  0.1937  0.3944
15720TIP3    H168575   3.415   4.051   1.135 -0.3859 -0.6204 -1.0161
15720TIP3    H268576   3.450   3.957   1.248 -1.4514  0.0614 -0.0972
15721TIP3   OH268577   0.254   3.050   0.778 -0.5322  0.0483  0.1612
15721TIP3    H168578   0.311   2.990   0.826 -0.7215 -0.2906 -0.0364
15721TIP3    H268579   0.276   3.035   0.686 -0.4053  0.4605  0.1231
15722TIP3   OH268580   1.100   4.524   0.967 -0.1615 -0.0562 -0.3126
15722TIP3    H168581   1.007   4.543   0.954 -0.2257 -0.6695 -0.8322
15722TIP3    H268582   1.145   4.581   0.903 -0.2121 -0.0809 -0.3706
15723TIP3   OH268583   3.550   2.614   5.717  0.7367  0.0509  0.4734
15723TIP3    H168584   3.619   2.547   5.722 -0.9715 -1.9683 -1.2555
15723TIP3    H268585   3.585   2.680   5.658  1.5860 -0.4107  0.4417
15724TIP3   OH268586   3.651   5.132   0.877 -0.0628 -0.0735  0.3536
15724TIP3    H168587   3.724   5.084   0.917 -1.0669 -0.7534  1.4139
15724TIP3    H268588   3.665   5.223   0.902  1.5087  0.1479 -1.1377
15725TIP3   OH268589   2.285   6.203   0.019  0.1099  0.5698  0.0383
15725TIP3    H168590   2.326   6.279   0.061  2.0682 -0.7712  0.7094
15725TIP3    H268591   2.310   6.211  -0.073  0.3304  0.7293  0.1096
15726TIP3   OH268592   4.689   2.704   2.537 -0.1413 -0.6873  0.2857
15726TIP3    H168593   4.758   2.674   2.596 -0.1636  2.7619  2.3490
15726TIP3    H268594   4.726   2.781   2.493 -2.0959  0.3514  0.3199
15727TIP3   OH268595   2.326   1.527  16.113  0.3954 -0.1165  0.0968
15727TIP3    H168596   2.348   1.439  16.146  1.1515  0.2110  0.4981
15727TIP3    H268597   2.384   1.539  16.038 -0.1458 -0.1985 -0.3394
15728TIP3   OH268598   4.798   2.441   0.648 -0.0279 -0.5433  0.2573
15728TIP3    H168599   4.780   2.495   0.724  0.1542  1.6737 -1.1927
15728TIP3    H268600   4.736   2.472   0.582  1.5186 -0.6144 -1.2893
15729TIP3   OH268601   1.503   6.309  11.411 -0.2371  0.2880 -0.2126
15729TIP3    H168602   1.568   6.332  11.477  1.8692  1.3387 -2.4908
15729TIP3    H268603   1.501   6.213  11.412 -1.3807  0.2634  2.2837
15730TIP3   OH268604   4.484   6.238   2.976 -0.9216 -0.5971 -0.1241
15730TIP3    H168605   4.460   6.147   2.957 -1.4892 -0.2114 -1.3411
15730TIP3    H268606   4.462   6.286   2.896 -0.9534  0.6741  0.6261
15731TIP3   OH268607   1.864   3.939  16.483  0.1182 -0.8643 -1.0729
15731TIP3    H168608   1.808   4.016  16.475  0.6417 -0.1098  1.4511
15731TIP3    H268609   1.803   3.866  16.498 -0.2948 -0.3243  0.0075
15732TIP3   OH268610   5.038   0.034  12.351 -0.3053  0.3847  0.0753
15732TIP3    H168611   5.090  -0.037  12.313  0.1740  0.3223  0.8094
15732TIP3    H268612   5.103   0.093  12.390 -0.6844  1.3498 -0.7131
15733TIP3   OH268613   3.941   1.401  15.989  0.2989  0.6611  0.1037
15733TIP3    H168614   3.979   1.483  15.958  2.0608 -0.0361  0.2902
15733TIP3    H268615   3.903   1.423  16.074  0.7016  1.3091  0.1199
15734TIP3   OH268616   3.748   0.896  11.925 -0.7472 -0.8360 -0.0868
15734TIP3    H168617   3.738   0.887  12.020 -0.9192 -3.7736 -0.2931
15734TIP3    H268618   3.829   0.946  11.915 -0.3069 -1.1223  1.5997
15735TIP3   OH268619   3.303   1.942  17.164  0.3712  0.0265 -0.1408
15735TIP3    H168620   3.372   1.972  17.105 -0.5731  1.1826 -0.6970
15735TIP3    H268621   3.279   2.019  17.215 -0.7639 -0.2587 -0.2092
15736TIP3   OH268622   2.105   2.794  10.654 -0.3727  0.3481 -0.2603
15736TIP3    H168623   2.171   2.770  10.589 -0.0935 -0.6683  0.3955
15736TIP3    H268624   2.086   2.886  10.635  2.1759  1.0710  0.3619
15737TIP3   OH268625   6.011   4.219  12.317  0.2893  0.4444 -1.2224
15737TIP3    H168626   5.973   4.132  12.329 -1.4663  1.0658 -2.0283
15737TIP3    H268627   6.096   4.214  12.362 -1.3350 -0.5476  2.0574
15738TIP3   OH268628   4.708   1.743  16.682 -0.1993 -0.4000 -0.1695
15738TIP3    H168629   4.691   1.835  16.662 -0.0635 -0.3877 -0.2307
15738TIP3    H268630   4.802   1.740  16.701 -0.2915 -0.4435  0.2874
15739TIP3   OH268631   3.846   0.480  11.283 -0.0075 -0.3867 -0.4716
15739TIP3    H168632   3.903   0.556  11.268 -0.1623 -0.2669 -0.4507
15739TIP3    H268633   3.893   0.428  11.349 -0.0510 -0.1492 -0.2501
15740TIP3   OH268634   3.529   2.546   2.516 -0.6646  0.2387 -0.4433
15740TIP3    H168635   3.550   2.517   2.604  0.4404 -0.4911 -0.9244
15740TIP3    H268636   3.434   2.555   2.515 -0.8720 -1.6191  0.2514
15741TIP3   OH268637   5.134   3.628   2.109  0.1944 -0.3204 -0.4046
15741TIP3    H168638   5.165   3.711   2.147  1.7121 -0.9296 -0.2221
15741TIP3    H268639   5.172   3.627   2.021 -2.1183  0.4157 -1.4744
15742TIP3   OH268640   1.802   0.496   0.134 -0.0644 -0.4148  0.7465
15742TIP3    H168641   1.738   0.440   0.178  0.3368 -2.4580 -1.1451
15742TIP3    H268642   1.784   0.486   0.041  3.5874 -1.9365  0.0230
15743TIP3   OH268643   4.182   2.349   0.069 -0.5682 -0.4101  0.1211
15743TIP3    H168644   4.094   2.326   0.038 -0.4954  0.3178 -0.6614
15743TIP3    H268645   4.211   2.272   0.117  0.0742 -2.4338 -3.2032
15744TIP3   OH268646   3.906   0.264  11.462 -0.4437  0.0143  0.3844
15744TIP3    H168647   3.825   0.214  11.451 -0.3781  0.2483 -1.4285
15744TIP3    H268648   3.903   0.295  11.552 -1.5562 -1.3850  0.8651
15745TIP3   OH268649   0.072   5.264  15.112 -0.2163 -0.1715 -0.2993
15745TIP3    H168650   0.127   5.309  15.176 -1.1692 -0.5469  0.8310
15745TIP3    H268651   0.069   5.173  15.143  0.4574 -0.7024 -1.6957
15746TIP3   OH268652   6.512   4.813  12.273  0.3068  0.3683  0.2422
15746TIP3    H168653   6.573   4.812  12.199 -0.6308  0.5392 -0.5568
15746TIP3    H268654   6.462   4.894  12.261  1.1627  1.1924  1.9392
15747TIP3   OH268655   5.137   2.571   5.205 -0.2737 -0.2208  0.7598
15747TIP3    H168656   5.157   2.630   5.132 -2.6154  0.8423  0.8951
15747TIP3    H268657   5.078   2.621   5.261 -0.9910 -2.1122  1.7879
15748TIP3   OH268658   6.266   4.218   2.573 -0.1788  0.9301 -0.1645
15748TIP3    H168659   6.291   4.127   2.588  0.6921  1.2485  0.4448
15748TIP3    H268660   6.246   4.224   2.480  0.0964  0.1976 -0.2699
15749TIP3   OH268661   4.197   5.484   3.213 -0.2528 -0.2385  0.5716
15749TIP3    H168662   4.158   5.552   3.159 -0.5057 -0.3958  0.5518
15749TIP3    H268663   4.290   5.507   3.219 -0.4658  0.5023  1.1641
15750TIP3   OH268664   1.355   4.184  11.371 -0.1834 -0.1834 -0.4598
15750TIP3    H168665   1.450   4.185  11.362 -0.0402  1.7784  0.5187
15750TIP3    H268666   1.329   4.276  11.363 -2.0806 -0.7236 -1.2376
15751TIP3   OH268667   4.889   1.538  11.292  0.2019 -0.3118  0.4476
15751TIP3    H168668   4.904   1.520  11.385  0.8493  3.3491  1.2111
15751TIP3    H268669   4.977   1.549  11.255 -0.0771  1.1978  0.1535
15752TIP3   OH268670   6.045   3.830  11.883 -0.2173 -0.6799  0.1604
15752TIP3    H168671   6.086   3.750  11.850  4.6221  1.1742  0.8744
15752TIP3    H268672   6.053   3.893  11.811  3.3870  1.1949  1.9200
15753TIP3   OH268673   1.818   6.311   2.374  0.5658 -0.8169  0.0224
15753TIP3    H168674   1.762   6.385   2.352  0.6901 -1.4963 -3.1140
15753TIP3    H268675   1.855   6.333   2.460 -3.0387  0.4477  1.4297
15754TIP3   OH268676   0.586   6.000   0.710  0.2657  0.0342  0.1177
15754TIP3    H168677   0.606   6.031   0.622 -0.7490  0.7809  0.1269
15754TIP3    H268678   0.650   6.044   0.766  0.7742 -0.2761 -0.2143
15755TIP3   OH268679   4.420   1.778  15.143  0.0616 -0.3506 -0.2237
15755TIP3    H168680   4.487   1.845  15.156 -2.3402  1.9117  1.4002
15755TIP3    H268681   4.401   1.780  15.049  1.1917 -0.0214 -0.4632
15756TIP3   OH268682   6.718   6.156  16.768 -0.1869 -0.1943 -0.4821
15756TIP3    H168683   6.742   6.235  16.720  0.5824 -0.0650  0.1077
15756TIP3    H268684   6.654   6.186  16.833 -0.6798 -0.2448 -0.9348
15757TIP3   OH268685   1.560   0.200   3.525 -0.3232 -0.0233  0.1609
15757TIP3    H168686   1.488   0.169   3.580  0.4091 -2.1400 -0.0120
15757TIP3    H268687   1.626   0.231   3.587 -1.8358  3.3092  0.3193
15758TIP3   OH268688   2.518   2.997  16.614 -0.1930 -0.0756 -0.0963
15758TIP3    H168689   2.565   3.072  16.579 -0.8727 -0.2809 -1.5466
15758TIP3    H268690   2.480   2.955  16.537 -1.4495 -0.7912  0.8750
15759TIP3   OH268691   1.433   5.375  15.004 -0.3174 -0.4010  0.1183
15759TIP3    H168692   1.461   5.352  15.093 -0.8464 -1.5565  0.0011
15759TIP3    H268693   1.379   5.453  15.015  1.0605  0.5436  0.5903
15760TIP3   OH268694   4.994   4.886   0.997 -0.0163  0.5014  0.0587
15760TIP3    H168695   5.030   4.953   0.938  2.7369  0.4135  1.4789
15760TIP3    H268696   5.070   4.834   1.023 -1.7435 -1.8378  0.7341
15761TIP3   OH268697   1.776   4.060  13.543  0.2891 -0.0285  0.7644
15761TIP3    H168698   1.755   3.990  13.481 -1.4867  0.1776  1.0874
15761TIP3    H268699   1.832   4.017  13.609  0.9446 -0.6032 -0.1417
15762TIP3   OH268700   2.449   3.016   2.407  0.1212 -0.0139  1.0947
15762TIP3    H168701   2.414   2.929   2.428 -0.4155 -0.0683  0.0411
15762TIP3    H268702   2.530   3.022   2.457  0.9577 -1.7286  0.0295
15763TIP3   OH268703   2.126   5.907  16.747 -0.2770  0.3372 -0.4833
15763TIP3    H168704   2.193   5.893  16.813 -0.4501 -0.3871 -0.4521
15763TIP3    H268705   2.065   5.834  16.758 -0.7655  0.6758 -0.8784
15764TIP3   OH268706   4.451   2.711   0.070  0.1677 -0.2378 -0.2009
15764TIP3    H168707   4.472   2.680  -0.018 -0.5086 -0.4594 -0.2946
15764TIP3    H268708   4.399   2.790   0.056  0.3747 -0.0647  0.0055
15765TIP3   OH268709   0.041   5.339   0.829  0.2104  0.0758  0.1268
15765TIP3    H168710   0.007   5.255   0.862  0.0455  0.1505  0.1465
15765TIP3    H268711   0.117   5.357   0.885  1.5168 -1.0904 -1.2030
15766TIP3   OH268712   1.163   0.342  11.256  0.2307  0.0925 -0.1364
15766TIP3    H168713   1.237   0.336  11.196  0.7903  0.1839  0.5228
15766TIP3    H268714   1.155   0.255  11.294 -1.2066 -0.4351 -1.5725
15767TIP3   OH268715   2.494   6.690  13.565  0.6262  0.4355  0.0417
15767TIP3    H168716   2.435   6.692  13.640 -0.6135 -0.0267 -0.8879
15767TIP3    H268717   2.569   6.744  13.592 -0.1719  0.9662  1.2838
15768TIP3   OH268718   1.690   3.521   0.143  0.0781  0.5296 -0.0066
15768TIP3    H168719   1.690   3.608   0.183 -2.5358  0.5856  0.0716
15768TIP3    H268720   1.609   3.481   0.175  0.6521 -1.4834 -0.9772
15769TIP3   OH268721   1.199   5.552   1.998 -0.6049  0.1008  0.7586
15769TIP3    H168722   1.118   5.546   2.050 -1.2493 -1.2149 -0.3451
15769TIP3    H268723   1.170   5.580   1.911  0.2554  0.5437  0.6019
15770TIP3   OH268724   2.637   2.757  11.960 -0.5708 -0.1399 -0.3667
15770TIP3    H168725   2.698   2.689  11.931 -0.5383  0.8578 -2.8412
15770TIP3    H268726   2.555   2.737  11.916 -1.3447 -0.0233  0.9552
15771TIP3   OH268727   5.432   1.087   1.990 -0.2828  0.4478 -0.0948
15771TIP3    H168728   5.437   0.995   2.016  3.2330  0.9262  1.6200
15771TIP3    H268729   5.452   1.086   1.896 -2.5410 -0.6224 -0.6137
15772TIP3   OH268730   4.326   3.984   3.902  0.8790  0.2529  0.3585
15772TIP3    H168731   4.344   3.904   3.853 -1.2028  0.5257 -0.9613
15772TIP3    H268732   4.254   4.025   3.855  2.0138  3.0423  0.8655
15773TIP3   OH268733   1.675   6.572   0.420 -0.5763 -0.7350 -0.1963
15773TIP3    H168734   1.674   6.667   0.422  1.6208 -0.6170 -1.2074
15773TIP3    H268735   1.584   6.546   0.436 -1.2351  1.5075  0.0162
15774TIP3   OH268736   4.585   4.938   5.989  0.0133  0.1027  0.2283
15774TIP3    H168737   4.626   5.002   6.047 -0.4686 -0.5738  1.3647
15774TIP3    H268738   4.491   4.945   6.008  0.0626 -2.3014  1.9444
15775TIP3   OH268739   1.872   0.645  12.829  0.0464  0.9813 -0.0991
15775TIP3    H168740   1.882   0.703  12.905 -1.8495  0.1132  0.8891
15775TIP3    H268741   1.781   0.656  12.803  0.2544  0.0934 -1.2824
15776TIP3   OH268742   3.115   4.217  13.252 -0.5018  0.4501 -0.2867
15776TIP3    H168743   3.104   4.306  13.219  0.9274  0.2524 -1.3644
15776TIP3    H268744   3.036   4.201  13.304 -1.5693  1.7331 -1.4469
15777TIP3   OH268745   2.104   4.736  16.346 -0.0267  0.0160  0.0679
15777TIP3    H168746   2.105   4.649  16.307  2.9429 -1.1785  2.4179
15777TIP3    H268747   2.057   4.724  16.429  0.2164  0.6947  0.3096
15778TIP3   OH268748   3.647   4.828   6.590 -0.4973  0.4855  0.3318
15778TIP3    H168749   3.555   4.803   6.582 -0.1780 -0.2926 -1.3120
15778TIP3    H268750   3.646   4.924   6.590 -1.1972  0.5330 -1.9411
15779TIP3   OH268751   0.455   2.162  14.919 -0.0759  0.7020 -0.1145
15779TIP3    H168752   0.411   2.201  14.844  0.8063  1.5089 -0.2319
15779TIP3    H268753   0.466   2.234  14.981  0.0105  0.2462  0.4055
15780TIP3   OH268754   3.279   5.201  14.529  0.1694  0.5698  0.4640
15780TIP3    H168755   3.346   5.152  14.576  1.2518  0.0351 -1.5020
15780TIP3    H268756   3.326   5.274  14.488 -0.9402  1.7019  1.1040
15781TIP3   OH268757   2.449   3.145  14.555 -0.5325  0.0112  0.1437
15781TIP3    H168758   2.371   3.159  14.501  0.3676  2.0426 -0.7410
15781TIP3    H268759   2.447   3.216  14.619  0.9311  0.5488 -0.3615
15782TIP3   OH268760   0.432   3.194   2.243  0.2164 -0.2089  0.3945
15782TIP3    H168761   0.447   3.227   2.332 -2.0117 -0.1504  0.8278
15782TIP3    H268762   0.357   3.136   2.253 -1.2434  1.1802 -1.7179
15783TIP3   OH268763   6.538   3.282   3.113 -0.5654 -0.0382  0.4677
15783TIP3    H168764   6.612   3.254   3.167  0.0277  0.3636 -0.1172
15783TIP3    H268765   6.467   3.221   3.136  0.1504 -0.8749  0.5337
15784TIP3   OH268766   2.814   1.009  14.880 -0.1207 -0.2594  0.0653
15784TIP3    H168767   2.744   0.946  14.861 -1.5044  0.7233  1.5558
15784TIP3    H268768   2.805   1.026  14.974  1.1123  1.1154 -0.0322
15785TIP3   OH268769   0.685   5.012  12.844  0.4085 -0.5304  0.3213
15785TIP3    H168770   0.653   4.925  12.868 -1.4089  0.3019  1.0701
15785TIP3    H268771   0.718   5.049  12.926  0.7287 -0.3308  0.1039
15786TIP3   OH268772   2.243   5.907  11.327 -0.1257 -0.0183  0.7254
15786TIP3    H168773   2.159   5.870  11.301  0.7817 -3.0795  1.6530
15786TIP3    H268774   2.280   5.943  11.247 -2.1831  1.2378  0.2787
15787TIP3   OH268775   1.864   3.303  12.333  0.2181 -0.4909  0.3146
15787TIP3    H168776   1.839   3.281  12.423  0.9402  0.4252  0.7628
15787TIP3    H268777   1.895   3.394  12.339 -1.7935  0.3950 -1.2556
15788TIP3   OH268778   1.627   4.769   0.248 -0.1452  0.3855 -0.5608
15788TIP3    H168779   1.608   4.681   0.217 -1.7093  0.2648  0.6186
15788TIP3    H268780   1.696   4.758   0.312  0.4262  0.1764 -1.1959
15789TIP3   OH268781   0.323   1.316  14.520  0.5980  0.1758  0.2334
15789TIP3    H168782   0.294   1.399  14.559 -1.0204  0.1339 -0.8003
15789TIP3    H268783   0.402   1.339  14.472  1.6704  0.5641  2.0916
15790TIP3   OH268784   2.814   2.628   5.965 -0.4646  0.7014 -0.2131
15790TIP3    H168785   2.780   2.653   5.879  0.2696  3.3516  0.1747
15790TIP3    H268786   2.902   2.594   5.947 -1.0530 -0.6779 -0.6483
15791TIP3   OH268787   5.111   6.197  11.065 -0.1117  0.5208  0.1464
15791TIP3    H168788   5.114   6.293  11.071  0.3183  0.7699 -2.6843
15791TIP3    H268789   5.051   6.171  11.135 -0.1501  2.8387  1.0672
15792TIP3   OH268790   3.257   5.192  15.433 -0.1171  0.0300  0.1051
15792TIP3    H168791   3.352   5.203  15.430 -0.1563  0.4110  0.2859
15792TIP3    H268792   3.222   5.279  15.415 -0.4338 -0.1532 -0.1660
15793TIP3   OH268793   5.747   3.179  12.240 -0.4098  0.1318  0.3820
15793TIP3    H168794   5.830   3.220  12.216 -0.4609 -1.4860 -3.0741
15793TIP3    H268795   5.694   3.251  12.274  1.1175  1.9836 -0.9598
15794TIP3   OH268796   0.261   4.866  10.439  0.5431 -0.1753 -0.3074
15794TIP3    H168797   0.272   4.774  10.417  2.5320  0.2871 -1.4938
15794TIP3    H268798   0.191   4.867  10.504  2.0493 -2.7917  1.5496
15795TIP3   OH268799   5.397   4.061  12.735 -0.1890 -0.4221  0.5379
15795TIP3    H168800   5.363   3.999  12.800 -1.8064  1.5595  1.7068
15795TIP3    H268801   5.364   4.146  12.764  0.8790  0.8392 -1.7049
15796TIP3   OH268802   3.280   0.447  12.618 -0.5656 -0.1050  0.0243
15796TIP3    H168803   3.346   0.508  12.651 -1.0770  0.3625  0.1967
15796TIP3    H268804   3.207   0.503  12.592 -0.0026 -0.3891 -2.3746
15797TIP3   OH268805   3.718   5.425  14.981 -0.2502 -0.3983 -0.5786
15797TIP3    H168806   3.682   5.413  14.893  0.2166 -0.9140 -0.7015
15797TIP3    H268807   3.642   5.425  15.039 -0.6368  0.7164 -1.0484
15798TIP3   OH268808   4.084   3.703  12.527  0.0092  0.4978 -0.1812
15798TIP3    H168809   4.172   3.712  12.493 -0.3680 -0.3129 -1.4295
15798TIP3    H268810   4.084   3.618  12.571  0.1841  1.0568  0.9471
15799TIP3   OH268811   2.372   1.582   4.345  0.2481  0.5607 -0.6152
15799TIP3    H168812   2.343   1.673   4.337 -0.4173  0.3290 -0.9768
15799TIP3    H268813   2.304   1.532   4.299  1.0081 -0.0456 -1.1074
15800TIP3   OH268814   1.027   5.938   3.886 -0.1343  0.2455  0.0865
15800TIP3    H168815   1.005   6.015   3.833  0.6817 -0.2747 -1.0574
15800TIP3    H268816   1.119   5.920   3.866 -0.5571 -1.5919 -0.4752
15801TIP3   OH268817   0.148   2.353  14.800 -0.5620  0.1495 -0.0645
15801TIP3    H168818   0.084   2.298  14.754 -1.8674  2.2753 -0.9274
15801TIP3    H268819   0.134   2.333  14.893 -0.6633 -1.2891 -0.3580
15802TIP3   OH268820   6.689   6.513   6.390 -0.0250 -0.0488 -0.1933
15802TIP3    H168821   6.649   6.475   6.468 -0.3946 -0.4068 -0.5538
15802TIP3    H268822   6.776   6.473   6.386  1.1770  2.1369  1.6521
15803TIP3   OH268823   1.401   3.923  17.158  0.2909  0.3558  0.4633
15803TIP3    H168824   1.364   3.870  17.088  0.4583  1.7803 -0.7697
15803TIP3    H268825   1.336   3.991  17.174  0.7455  0.7018  0.8907
15804TIP3   OH268826   5.892   4.116   5.894  0.5391  0.8926  0.0331
15804TIP3    H168827   5.892   4.052   5.823 -0.7150  1.8531 -0.8905
15804TIP3    H268828   5.931   4.195   5.856  2.4244  0.6131  1.2648
15805TIP3   OH268829   6.556   1.367  12.433 -0.7140  0.3146 -0.6272
15805TIP3    H168830   6.496   1.438  12.457  0.5752  0.9469  0.8276
15805TIP3    H268831   6.541   1.300  12.499  0.9970  0.9869  0.5058
15806TIP3   OH268832   6.701   5.574   4.136 -0.0541  0.6441 -0.2524
15806TIP3    H168833   6.725   5.531   4.054  0.2819 -1.6557  0.9773
15806TIP3    H268834   6.776   5.558   4.194  0.9026  4.4446 -0.1745
15807TIP3   OH268835   5.200   0.516  13.734  0.0514 -0.0553 -0.1927
15807TIP3    H168836   5.144   0.588  13.706 -0.4221  0.4982  2.0150
15807TIP3    H268837   5.210   0.462  13.655 -2.2098  0.7167 -1.0976
15808TIP3   OH268838   4.677   0.002  10.734  0.3127 -0.3673 -0.2256
15808TIP3    H168839   4.664  -0.036  10.820  1.2543 -2.2280 -0.8539
15808TIP3    H268840   4.763  -0.029  10.706  0.5949  1.2666 -1.3206
15809TIP3   OH268841   2.386   5.052   4.783  0.6839 -0.6124  0.1962
15809TIP3    H168842   2.374   5.110   4.708 -1.6223 -0.4662  0.6089
15809TIP3    H268843   2.303   5.056   4.830  1.9702 -0.9038  2.6360
15810TIP3   OH268844   5.668   2.728  17.306  0.0376  0.2365  0.1653
15810TIP3    H168845   5.689   2.787  17.233  2.1665 -0.3046  0.2924
15810TIP3    H268846   5.688   2.640  17.273 -1.1092 -0.2463  0.6846
15811TIP3   OH268847   4.880   6.510   5.202 -0.1201 -0.1658  0.0483
15811TIP3    H168848   4.888   6.547   5.289  1.6352 -2.6663  1.0696
15811TIP3    H268849   4.853   6.583   5.147  3.1597  2.6627  1.8230
15812TIP3   OH268850   5.654   0.386  16.929  0.9229 -0.4122  0.5719
15812TIP3    H168851   5.729   0.391  16.988  0.9488 -0.6087  0.5559
15812TIP3    H268852   5.621   0.475  16.925  1.4853 -0.2203  0.1488
15813TIP3   OH268853   4.748   2.094  13.049  0.6179  0.3701 -0.2182
15813TIP3    H168854   4.806   2.167  13.030 -0.8462  2.4184  2.4555
15813TIP3    H268855   4.668   2.113  12.999 -0.7874  2.2640  2.4670
15814TIP3   OH268856   3.695   6.260  15.115 -0.5684  0.1159 -0.5359
15814TIP3    H168857   3.705   6.189  15.179 -2.0785 -0.9404 -1.4151
15814TIP3    H268858   3.752   6.329  15.148 -0.7445 -0.6557  1.5731
15815TIP3   OH268859   5.101   1.401  15.217  0.5349  0.1446 -0.1808
15815TIP3    H168860   5.097   1.490  15.182  0.1484  0.7591  1.3620
15815TIP3    H268861   5.109   1.413  15.312  2.4382 -1.4454 -0.0839
15816TIP3   OH268862   0.297   0.845  11.251  0.0315 -0.1114 -0.1770
15816TIP3    H168863   0.344   0.928  11.258  0.1888  0.0117 -1.9964
15816TIP3    H268864   0.365   0.780  11.230 -0.3275 -0.3121 -0.7626
15817TIP3   OH268865   5.127   3.484   0.655  0.4959 -0.1199  0.2729
15817TIP3    H168866   5.191   3.479   0.584 -0.7611  3.1935 -1.3316
15817TIP3    H268867   5.179   3.478   0.735  3.1852  3.4157 -0.9174
15818TIP3   OH268868   6.172   0.671  15.965 -0.4715  0.2427  0.2770
15818TIP3    H168869   6.136   0.623  16.040 -2.2547 -0.3996 -0.9260
15818TIP3    H268870   6.154   0.763  15.985 -0.4731  0.1191  0.8727
15819TIP3   OH268871   4.512   1.206  13.542 -0.0014  0.1678 -0.5372
15819TIP3    H168872   4.554   1.285  13.576  1.0830 -0.6780  0.1135
15819TIP3    H268873   4.458   1.238  13.469 -0.9190  1.7467  0.7611
15820TIP3   OH268874   0.644   1.625   5.895  0.5671 -0.0276 -0.2592
15820TIP3    H168875   0.629   1.600   5.986  0.5032  2.5978  0.5485
15820TIP3    H268876   0.611   1.552   5.843  0.2546 -1.4209  1.8074
15821TIP3   OH268877   6.256   1.940   6.292  0.1432 -0.6248  0.0512
15821TIP3    H168878   6.322   1.936   6.362 -0.5358 -2.1548  0.6524
15821TIP3    H268879   6.173   1.923   6.337 -0.9493  2.7409 -0.4171
15822TIP3   OH268880   2.225   1.221  16.422 -0.0980 -0.0934 -0.3772
15822TIP3    H168881   2.217   1.125  16.420 -2.6283  0.0653 -0.3509
15822TIP3    H268882   2.169   1.251  16.350  0.0311  1.4156  0.1246
15823TIP3   OH268883   1.096   5.453  16.550 -0.0567 -0.2168  0.6761
15823TIP3    H168884   1.118   5.546  16.546  0.1866 -0.2441  1.2693
15823TIP3    H268885   1.020   5.448  16.607 -2.6797  0.0358 -2.5490
15824TIP3   OH268886   1.552   3.040  11.561 -0.2265 -0.1278 -0.1352
15824TIP3    H168887   1.615   3.104  11.592  0.1185 -0.9176  0.8756
15824TIP3    H268888   1.507   3.011  11.641 -0.8248 -0.6589 -0.6511
15825TIP3   OH268889   5.465   4.142  13.245 -0.2112 -0.1841 -0.2166
15825TIP3    H168890   5.560   4.135  13.259 -0.2607 -1.5575 -0.3984
15825TIP3    H268891   5.442   4.227  13.281  0.6984 -0.8584  2.2177
15826TIP3   OH268892   2.070   2.170   3.689  0.4301  0.0759  0.3876
15826TIP3    H168893   2.132   2.149   3.619 -1.6290 -0.6840 -1.3442
15826TIP3    H268894   2.061   2.088   3.738 -1.1045 -0.6796 -1.0273
15827TIP3   OH268895   1.145   5.286   2.634 -0.0944  0.2984  0.1378
15827TIP3    H168896   1.116   5.329   2.554 -0.7992  0.2349  0.3537
15827TIP3    H268897   1.065   5.256   2.676  0.2707  0.3037  0.8564
15828TIP3   OH268898   2.842   6.443   1.528  0.0415  0.4681 -0.1948
15828TIP3    H168899   2.759   6.474   1.492 -0.2234 -0.8452 -0.7953
15828TIP3    H268900   2.880   6.389   1.458  0.3559 -0.7221  0.8506
15829TIP3   OH268901   1.987   3.090   4.823 -0.4101 -1.0042  0.0534
15829TIP3    H168902   1.911   3.053   4.868 -0.7743  1.2780  1.4614
15829TIP3    H268903   2.037   3.134   4.893  0.5983  0.1219 -1.3266
15830TIP3   OH268904   0.127   1.440  17.121 -0.2405  0.0015  0.2739
15830TIP3    H168905   0.062   1.382  17.160 -0.1975 -0.3426 -0.1604
15830TIP3    H268906   0.077   1.516  17.092 -0.4830 -0.3513 -0.2428
15831TIP3   OH268907   5.996   3.373  16.917 -0.1666  0.4282  0.1171
15831TIP3    H168908   5.995   3.310  16.989 -0.1983 -0.9735 -1.0625
15831TIP3    H268909   6.061   3.438  16.943 -0.2074 -0.0177  1.4152
15832TIP3   OH268910   6.371   1.042   5.635  0.0799 -0.2253 -0.2217
15832TIP3    H168911   6.279   1.018   5.619 -1.4114  2.8015  2.6805
15832TIP3    H268912   6.394   0.996   5.716  0.5355  0.4006  0.0082
15833TIP3   OH268913   1.717   5.253   4.184 -0.2383  0.3633 -0.4539
15833TIP3    H168914   1.641   5.273   4.239  1.2366  1.3641  1.3763
15833TIP3    H268915   1.774   5.329   4.195  1.8628 -1.1625 -0.1595
15834TIP3   OH268916   3.131   4.369  11.771  0.2531 -0.0803  0.1178
15834TIP3    H168917   3.183   4.434  11.723  1.3233 -1.1391 -0.2025
15834TIP3    H268918   3.059   4.348  11.712 -0.0857  0.8014  0.2154
15835TIP3   OH268919   1.832   2.378   3.874  0.2486 -0.0003  0.0601
15835TIP3    H168920   1.767   2.384   3.804  0.2079  0.5877  0.1501
15835TIP3    H268921   1.914   2.404   3.832 -0.2924  3.6154  0.9844
15836TIP3   OH268922   3.816   0.677   1.655 -0.6806  0.1505  0.0260
15836TIP3    H168923   3.811   0.717   1.742 -0.2856  2.1848 -0.8370
15836TIP3    H268924   3.725   0.679   1.623 -0.4951  1.5694 -0.4910
15837TIP3   OH268925   5.538   0.291   3.907 -0.0928 -0.2127 -0.2460
15837TIP3    H168926   5.613   0.289   3.966  0.4251 -1.7651 -0.8908
15837TIP3    H268927   5.575   0.268   3.821 -1.3620 -1.4738 -0.4858
15838TIP3   OH268928   6.153   5.603   2.413 -0.7878  0.4984  0.5257
15838TIP3    H168929   6.199   5.613   2.497  0.9642  0.8004 -0.4309
15838TIP3    H268930   6.172   5.685   2.366 -0.6655 -0.1997 -0.6680
15839TIP3   OH268931   4.661   6.230   3.799  0.5412  0.6904 -0.7289
15839TIP3    H168932   4.641   6.169   3.871  1.5136  3.1026  1.7729
15839TIP3    H268933   4.575   6.254   3.764 -0.1676  1.0303  1.0980
15840TIP3   OH268934   0.916   4.592  16.672  0.3924  0.1117 -0.0536
15840TIP3    H168935   0.921   4.516  16.730 -1.0458 -1.1792 -1.5211
15840TIP3    H268936   0.824   4.599  16.648  0.8209  0.9788 -1.6487
15841TIP3   OH268937   5.759   6.599  13.150  0.1380 -0.0418  0.1637
15841TIP3    H168938   5.752   6.636  13.238  0.4653  1.0195 -0.2407
15841TIP3    H268939   5.673   6.615  13.110  0.4336  0.7654 -0.1800
15842TIP3   OH268940   3.538   1.545   5.233 -0.0698  0.5426  0.0001
15842TIP3    H168941   3.590   1.545   5.313 -1.9192 -2.9702  1.4352
15842TIP3    H268942   3.595   1.508   5.167  0.7482  1.3104  0.2582
15843TIP3   OH268943   4.046   4.129  11.331  0.1743 -0.2456 -0.5191
15843TIP3    H168944   3.952   4.115  11.317 -0.3732  0.3041  2.0441
15843TIP3    H268945   4.068   4.203  11.276 -1.1887  0.3586 -0.2917
15844TIP3   OH268946   3.630   6.654   1.322  0.1357  0.0466  0.1839
15844TIP3    H168947   3.584   6.659   1.238 -0.5976  1.7560  0.6248
15844TIP3    H268948   3.610   6.567   1.356  1.5194 -1.1869 -1.9600
15845TIP3   OH268949   6.089   5.503  16.238 -0.1643  0.1336  0.6371
15845TIP3    H168950   5.997   5.488  16.261 -0.2320 -0.4107  0.0378
15845TIP3    H268951   6.128   5.416  16.236  0.2303  0.3133  0.3160
15846TIP3   OH268952   2.578   0.126  14.849  0.3558 -0.1025  0.5245
15846TIP3    H168953   2.558   0.190  14.916 -0.6813  1.6809 -1.3782
15846TIP3    H268954   2.493   0.099  14.814  0.8752 -0.5052 -0.4886
15847TIP3   OH268955   0.308   2.712   1.232  0.1828  0.4927 -0.9288
15847TIP3    H168956   0.279   2.667   1.152 -0.8742 -0.4088 -0.0564
15847TIP3    H268957   0.398   2.681   1.245 -0.3390 -0.9800 -0.6457
15848TIP3   OH268958   4.054   0.670  11.562 -0.1250 -0.6342  0.3734
15848TIP3    H168959   4.052   0.737  11.493  0.4171 -1.9550 -0.9802
15848TIP3    H268960   3.962   0.661  11.588 -0.2152  0.6014  0.5743
15849TIP3   OH268961   6.074   1.358  14.915 -0.1571  0.5889 -0.1217
15849TIP3    H168962   6.123   1.280  14.943 -0.9218 -0.0118 -0.4050
15849TIP3    H268963   5.983   1.338  14.939 -0.3360  1.4636 -0.0637
15850TIP3   OH268964   4.740   2.564   6.517 -0.3779 -0.4658  0.1790
15850TIP3    H168965   4.757   2.517   6.435  1.5931  1.9564 -0.9228
15850TIP3    H268966   4.824   2.565   6.562 -0.9011  0.1495  1.1759
15851TIP3   OH268967   1.493   3.743  12.177  0.4782  0.0410 -0.0577
15851TIP3    H168968   1.397   3.735  12.177  0.3513  0.8846 -2.0500
15851TIP3    H268969   1.521   3.697  12.255 -1.3580 -2.7012 -0.8834
15852TIP3   OH268970   3.763   3.962   1.205 -0.3436  0.3066  0.1480
15852TIP3    H168971   3.670   3.977   1.190 -0.9633 -1.7917  1.3810
15852TIP3    H268972   3.777   3.986   1.296  0.2205  0.2252  0.0844
15853TIP3   OH268973   5.684   1.878  12.539 -0.0579 -0.2779 -0.2883
15853TIP3    H168974   5.612   1.912  12.592  1.5225  3.5690 -0.2762
15853TIP3    H268975   5.763   1.897  12.590  1.2103 -0.9285 -1.8873
15854TIP3   OH268976   1.131   0.826  12.591 -0.3193  1.0203 -0.2297
15854TIP3    H168977   1.051   0.776  12.607 -0.1371  1.2354  1.5958
15854TIP3    H268978   1.105   0.918  12.598  0.2436  1.0843  1.4583
15855TIP3   OH268979   1.431   0.323  11.744 -0.4582  0.4345 -0.5041
15855TIP3    H168980   1.369   0.333  11.817  1.0733 -1.8760  1.2594
15855TIP3    H268981   1.393   0.254  11.690  0.7534 -1.5038  0.9666
15856TIP3   OH268982   0.135   2.809  17.319  0.1012  0.6338 -0.9600
15856TIP3    H168983   0.147   2.856  17.236 -0.5044  0.2101 -1.2976
15856TIP3    H268984   0.116   2.719  17.293  1.1475  0.2032 -0.3226
15857TIP3   OH268985   1.812   0.465   3.754  0.2105 -0.0242 -0.8092
15857TIP3    H168986   1.879   0.435   3.815  0.8264  1.1691 -0.8696
15857TIP3    H268987   1.736   0.412   3.774  0.7307 -0.3862  0.2751
15858TIP3   OH268988   1.171   3.373   5.461  0.0330  0.6620  0.7171
15858TIP3    H168989   1.172   3.382   5.556  2.4118 -0.6006  0.8868
15858TIP3    H268990   1.224   3.295   5.444 -0.3882  0.8170 -1.6552
15859TIP3   OH268991   2.246   2.309  15.857 -0.2619 -0.1624 -0.0305
15859TIP3    H168992   2.164   2.267  15.833  0.4944 -1.3085 -0.7287
15859TIP3    H268993   2.250   2.303  15.952 -0.7835 -0.4894 -0.0298
15860TIP3   OH268994   4.850   0.422   1.648  0.0030 -0.4778 -0.2511
15860TIP3    H168995   4.816   0.334   1.661 -0.7434 -0.3196 -0.9843
15860TIP3    H268996   4.772   0.477   1.644  0.4981  0.3792  1.2566
15861TIP3   OH268997   2.791   0.458   1.535  0.0207 -0.1782  0.0505
15861TIP3    H168998   2.870   0.508   1.512  1.0470 -1.4930  0.5391
15861TIP3    H268999   2.743   0.449   1.453  1.0208 -0.3934 -0.5372
15862TIP3   OH269000   1.735   3.354   3.882  0.2750 -0.4553 -0.2875
15862TIP3    H169001   1.767   3.435   3.843 -1.5598  0.3954 -0.1315
15862TIP3    H269002   1.767   3.285   3.823  1.6744  0.3821 -0.5405
15863TIP3   OH269003   3.644   0.541  13.573  0.0166 -0.0874  0.3021
15863TIP3    H169004   3.691   0.478  13.518 -0.6975 -1.4835  1.2360
15863TIP3    H269005   3.699   0.620  13.570  0.3628 -0.3264 -1.8067
15864TIP3   OH269006   4.994   6.297  16.847  0.2872  0.3757  0.6446
15864TIP3    H169007   5.049   6.373  16.831  2.7632 -1.0961  1.5776
15864TIP3    H269008   4.943   6.287  16.767  2.6748  0.8517 -1.0599
15865TIP3   OH269009   6.026   4.701   4.310  0.3496 -0.0816  0.1408
15865TIP3    H169010   6.091   4.632   4.312 -0.7377 -1.1420 -0.1421
15865TIP3    H269011   6.046   4.752   4.231  0.7999 -0.4267  0.0334
15866TIP3   OH269012   0.136   5.906  15.198  0.5151 -0.8592 -0.1582
15866TIP3    H169013   0.226   5.891  15.228  0.1700 -0.2023  1.3224
15866TIP3    H269014   0.101   5.818  15.186  1.1781 -1.1322 -0.1745
15867TIP3   OH269015   2.620   0.608  16.412 -0.5659 -0.1415 -0.1349
15867TIP3    H169016   2.712   0.585  16.425 -0.5242  0.1665  0.1207
15867TIP3    H269017   2.616   0.640  16.322 -0.3266  0.3079  0.0105
15868TIP3   OH269018   5.812   1.114  15.376 -0.0797  0.5780  0.2223
15868TIP3    H169019   5.900   1.150  15.382 -0.3237  1.5477 -1.4504
15868TIP3    H269020   5.765   1.173  15.317 -1.4617 -0.6729 -0.0118
15869TIP3   OH269021   2.057   1.023  13.907  0.0590  0.8212 -0.4333
15869TIP3    H169022   1.993   1.024  13.836  0.7624  2.4611 -1.1144
15869TIP3    H269023   2.092   0.934  13.908 -0.4711  0.5856 -1.6746
15870TIP3   OH269024   2.706   0.477   2.130 -0.1237  0.3970 -1.1209
15870TIP3    H169025   2.633   0.439   2.081  0.1212  1.3215 -2.2587
15870TIP3    H269026   2.763   0.403   2.150 -3.4971 -1.3892  4.0981
15871TIP3   OH269027   4.793   5.449  12.398  0.2837  0.0721  0.4461
15871TIP3    H169028   4.756   5.365  12.425  0.9221 -0.3736 -0.0340
15871TIP3    H269029   4.720   5.510  12.403 -0.9351 -1.0818 -1.9016
15872TIP3   OH269030   1.358   0.597  11.685  0.4337 -0.3008  0.4282
15872TIP3    H169031   1.325   0.593  11.596  0.8821  1.2637  0.1673
15872TIP3    H269032   1.381   0.506  11.707  0.4068 -0.6824 -1.0664
15873TIP3   OH269033   3.779   1.371   1.659  0.2904 -0.2616 -0.1852
15873TIP3    H169034   3.865   1.378   1.702  0.1390 -1.9779  0.4711
15873TIP3    H269035   3.795   1.397   1.569  0.4770  4.2810  0.8954
15874TIP3   OH269036   4.938   2.574   2.628 -0.0829 -1.0815 -0.1374
15874TIP3    H169037   4.930   2.665   2.655  1.0053 -0.4890 -1.6417
15874TIP3    H269038   5.032   2.562   2.611  0.0195 -2.9298  1.4345
15875TIP3   OH269039   0.883   3.846  13.880 -0.1677 -0.0639 -0.1582
15875TIP3    H169040   0.854   3.921  13.827  0.1325  0.0298 -0.1917
15875TIP3    H269041   0.978   3.844  13.869 -0.2440 -0.8865 -0.7348
15876TIP3   OH269042   0.227   1.192   1.431  0.3727 -0.0272  0.9013
15876TIP3    H169043   0.276   1.164   1.508  1.2119  0.2269  0.4655
15876TIP3    H269044   0.138   1.160   1.447  0.6792 -0.5276  1.6795
15877TIP3   OH269045   1.521   0.551  15.016 -0.3631  0.1570  0.2894
15877TIP3    H169046   1.512   0.574  15.109 -0.1335 -0.2100  0.4055
15877TIP3    H269047   1.434   0.521  14.990 -0.9565  2.1115 -0.1428
15878TIP3   OH269048   6.747   4.469   2.475  0.4826  0.3273  0.4773
15878TIP3    H169049   6.833   4.430   2.489  0.3016 -1.1059 -1.8845
15878TIP3    H269050   6.686   4.397   2.485  0.0467  0.0627 -2.8895
15879TIP3   OH269051   6.734   0.169   1.942  0.0193  0.2323  0.0469
15879TIP3    H169052   6.658   0.162   2.000  0.4032 -1.8578  0.3713
15879TIP3    H269053   6.722   0.097   1.879  1.3315  0.3729 -0.3865
15880TIP3   OH269054   1.290   3.569  12.199  0.2106  0.8156 -0.2369
15880TIP3    H169055   1.378   3.534  12.191  0.2680  0.5883  1.0856
15880TIP3    H269056   1.243   3.503  12.250 -0.7871  0.8330 -1.1176
15881TIP3   OH269057   5.871   4.060   2.719  0.2144 -0.0003  0.6006
15881TIP3    H169058   5.839   3.970   2.712  0.5790 -0.0274 -1.2177
15881TIP3    H269059   5.941   4.056   2.783 -0.2124 -0.8841  1.0234
15882TIP3   OH269060   0.925   5.882  11.224  0.4979 -0.0131 -0.8015
15882TIP3    H169061   0.971   5.965  11.210 -0.2246  0.3401 -1.1050
15882TIP3    H269062   0.875   5.895  11.304 -0.7789  0.3674 -1.6453
15883TIP3   OH269063   4.587   0.101   0.200  0.2195 -0.2084  0.2154
15883TIP3    H169064   4.528   0.154   0.147 -0.3337 -0.8319  0.1952
15883TIP3    H269065   4.575   0.011   0.169  0.2213 -0.5235  1.0758
15884TIP3   OH269066   2.842   4.352  13.771 -0.2456  0.0201  0.4845
15884TIP3    H169067   2.771   4.292  13.796  0.0183 -0.2030  0.6984
15884TIP3    H269068   2.916   4.325  13.825  0.0934  0.0533  0.0372
15885TIP3   OH269069   0.444   3.535   4.362 -0.0979  0.6411 -0.5943
15885TIP3    H169070   0.524   3.540   4.310  1.2864 -0.2621  1.3614
15885TIP3    H269071   0.381   3.588   4.312  2.3534  3.4950 -0.9731
15886TIP3   OH269072   4.683   5.452  14.810 -0.0390  0.2482  0.4430
15886TIP3    H169073   4.774   5.477  14.796 -0.2318  0.6504 -0.1335
15886TIP3    H269074   4.637   5.486  14.733 -0.6652 -0.0038  0.7016
15887TIP3   OH269075   6.672   1.844   5.137  0.0088 -0.7965  0.7778
15887TIP3    H169076   6.718   1.767   5.172  0.2010 -2.1900 -2.2193
15887TIP3    H269077   6.596   1.854   5.195  0.8986 -2.1771  2.2711
15888TIP3   OH269078   6.472   2.333   3.001 -0.6372 -0.2966  0.1908
15888TIP3    H169079   6.564   2.308   2.994 -0.8338 -0.6314 -3.1653
15888TIP3    H269080   6.447   2.308   3.090  2.2272 -1.1360  0.8769
15889TIP3   OH269081   1.546   6.753   3.032 -0.2591  0.0622  0.3773
15889TIP3    H169082   1.482   6.815   2.996 -2.8859 -1.1753  2.6028
15889TIP3    H269083   1.561   6.782   3.121 -0.2564 -1.5315  0.9314
15890TIP3   OH269084   2.611   3.493  14.399  0.3909 -0.1550 -0.0866
15890TIP3    H169085   2.532   3.510  14.450  1.2612  0.3425  1.1371
15890TIP3    H269086   2.590   3.416  14.347 -1.4543  0.8984 -1.0141
15891TIP3   OH269087   4.418   2.896   0.898  0.3303  0.3834 -0.5558
15891TIP3    H169088   4.328   2.865   0.890  0.1950 -0.1819  2.1496
15891TIP3    H269089   4.472   2.818   0.891  0.6698  0.7305 -2.2523
15892TIP3   OH269090   1.118   4.765  12.272 -0.6745  0.0304 -0.3875
15892TIP3    H169091   1.111   4.713  12.352  1.0501  0.7278  0.2671
15892TIP3    H269092   1.074   4.712  12.205 -2.9094 -0.1934  1.1397
15893TIP3   OH269093   4.464   6.130  13.705 -0.2812  0.5742 -0.2349
15893TIP3    H169094   4.440   6.065  13.771  1.4382  0.0978 -0.0299
15893TIP3    H269095   4.442   6.214  13.745 -3.8274  0.1927 -1.0391
15894TIP3   OH269096   2.178   5.561  14.341  0.4587 -0.5628  0.7500
15894TIP3    H169097   2.121   5.636  14.324  2.0681  0.6474  0.4934
15894TIP3    H269098   2.190   5.561  14.436  0.6210 -0.3731  0.7295
15895TIP3   OH269099   0.782   6.009   3.723 -0.2822 -0.1635  0.2176
15895TIP3    H169100   0.706   6.064   3.705 -0.0375 -0.4275 -1.9508
15895TIP3    H269101   0.846   6.034   3.657  0.2316 -2.2561 -0.1637
15896TIP3   OH269102   2.238   2.066  12.860  0.2794 -0.6422 -0.0403
15896TIP3    H169103   2.285   2.145  12.833  0.1686 -1.0889 -1.6837
15896TIP3    H269104   2.254   2.059  12.954  0.6052  1.1144  0.0735
15897TIP3   OH269105   0.983   0.579   1.725 -0.1307  0.2688 -0.0767
15897TIP3    H169106   1.071   0.580   1.761  0.4546 -2.6457 -1.2077
15897TIP3    H269107   0.933   0.523   1.784 -0.2280 -1.1053 -1.4048
15898TIP3   OH269108   4.148   1.711  16.661 -0.2394  0.5626 -0.3635
15898TIP3    H169109   4.206   1.658  16.716 -0.3360 -0.0095 -0.8011
15898TIP3    H269110   4.190   1.797  16.658 -0.0042  0.4717  0.2361
15899TIP3   OH269111   0.976   4.366  16.334 -0.0439 -0.3042  0.1145
15899TIP3    H169112   1.045   4.357  16.399  0.3748  0.5831 -0.1894
15899TIP3    H269113   0.982   4.286  16.281  1.2921  0.1238 -0.4135
15900TIP3   OH269114   5.179   6.581   2.730  0.3230 -0.2542 -0.1452
15900TIP3    H169115   5.266   6.618   2.742  0.4441 -0.6838  0.2872
15900TIP3    H269116   5.194   6.498   2.684  0.1082 -0.1438 -0.4227
15901TIP3   OH269117   1.642   4.559  11.517  0.0621  0.1399 -0.6330
15901TIP3    H169118   1.560   4.605  11.533 -0.8372 -1.7084  0.4313
15901TIP3    H269119   1.620   4.497  11.446 -0.4465 -2.4634  1.6144
15902TIP3   OH269120   2.394   4.602  16.918  0.5402  0.3306 -0.2205
15902TIP3    H169121   2.303   4.578  16.904 -0.3077  3.0771  0.1263
15902TIP3    H269122   2.430   4.528  16.968 -1.7242 -0.4116  0.4456
15903TIP3   OH269123   0.270   5.093  12.956 -0.1951  0.7296  0.3228
15903TIP3    H169124   0.273   5.157  12.885 -2.3637  0.8195  0.2443
15903TIP3    H269125   0.222   5.137  13.026  2.1141  0.7381  2.0167
15904TIP3   OH269126   6.685   5.954   0.469  0.3691  0.6050 -0.2310
15904TIP3    H169127   6.721   5.866   0.477  0.0239  0.4174 -0.7478
15904TIP3    H269128   6.757   6.006   0.434  1.1639  0.9334  1.7431
15905TIP3   OH269129   3.626   1.463  11.364  0.3577 -0.0013 -0.0815
15905TIP3    H169130   3.582   1.540  11.330  1.6396  0.5105 -0.6202
15905TIP3    H269131   3.560   1.420  11.419 -0.4588  1.3016 -0.0134
15906TIP3   OH269132   2.983   4.617  16.400 -0.3078 -0.7443  0.1421
15906TIP3    H169133   2.933   4.659  16.470  0.2919 -0.5560  0.4668
15906TIP3    H269134   2.931   4.631  16.321 -0.1097  0.6455  0.2350
15907TIP3   OH269135   4.513   1.624  14.426  0.3634  0.4224 -0.0483
15907TIP3    H169136   4.483   1.598  14.513  1.0196  1.6747  0.5817
15907TIP3    H269137   4.508   1.720  14.427  2.1603  0.5593 -0.7169
15908TIP3   OH269138   4.335   4.008  14.129  0.2752  0.1515 -0.0748
15908TIP3    H169139   4.267   3.949  14.098  0.5066 -0.5158  0.6507
15908TIP3    H269140   4.346   4.072  14.059 -0.4407 -0.2818 -0.5896
15909TIP3   OH269141   0.786   1.673  12.904  0.1326  0.0469  0.0724
15909TIP3    H169142   0.762   1.583  12.882  0.5600 -0.0273 -0.1004
15909TIP3    H269143   0.864   1.665  12.958 -1.4974  0.1752  2.6170
15910TIP3   OH269144   4.477   4.326   5.647 -0.4017 -0.4456  0.2550
15910TIP3    H169145   4.508   4.281   5.726 -2.3670 -0.2228  1.2106
15910TIP3    H269146   4.459   4.415   5.676  4.3661  1.5284 -1.8134
15911TIP3   OH269147   6.369   6.550  13.696 -0.3131 -0.0018 -0.4458
15911TIP3    H169148   6.449   6.498  13.682 -0.2887 -0.0833 -0.0119
15911TIP3    H269149   6.299   6.485  13.698 -0.2682 -0.0389  0.2294
15912TIP3   OH269150   4.221   5.539  11.459 -0.2173  0.0782  0.2304
15912TIP3    H169151   4.253   5.521  11.371  0.9531  1.0122  0.4340
15912TIP3    H269152   4.135   5.580  11.445 -0.1355  0.0227 -0.4674
15913TIP3   OH269153   5.865   3.575  14.125 -0.5054 -0.1384  0.1799
15913TIP3    H169154   5.816   3.656  14.111  0.0075  0.0255 -0.7431
15913TIP3    H269155   5.957   3.602  14.120 -0.2581 -0.3095  2.6241
15914TIP3   OH269156   3.715   6.300  11.525 -0.4825  0.3478 -0.4970
15914TIP3    H169157   3.768   6.320  11.602  1.3903 -1.7123 -1.1710
15914TIP3    H269158   3.671   6.383  11.504  0.7599  1.5466  1.3964
15915TIP3   OH269159   5.977   3.214  17.155  0.0922  0.6291 -0.0869
15915TIP3    H169160   5.990   3.230  17.248 -0.0788 -0.2291  0.0938
15915TIP3    H269161   5.884   3.233  17.139  0.2513  1.3172 -0.2009
15916TIP3   OH269162   2.847   2.177  13.160  0.6917 -0.6264  0.1149
15916TIP3    H169163   2.790   2.157  13.235 -1.4299 -1.6745 -1.6456
15916TIP3    H269164   2.786   2.188  13.087  2.4668  2.7403 -1.0768
15917TIP3   OH269165   5.912   3.452  11.814  0.4498 -0.2633 -0.0590
15917TIP3    H169166   5.902   3.380  11.753  2.3322  1.7050 -2.9779
15917TIP3    H269167   5.985   3.425  11.871  2.5512 -0.0145 -2.4415
15918TIP3   OH269168   0.685   3.888   4.950  0.1092  0.1754  0.2314
15918TIP3    H169169   0.661   3.973   4.987  2.1471  0.9141  0.0158
15918TIP3    H269170   0.612   3.830   4.972 -1.5616  2.0659 -0.0201
15919TIP3   OH269171   3.853   5.234  10.981  0.5370  0.4540 -0.1606
15919TIP3    H169172   3.940   5.203  11.007  0.6001  0.8220  0.0715
15919TIP3    H269173   3.793   5.185  11.038  0.7304  2.0056  1.4376
15920TIP3   OH269174   5.746   2.934  16.204  0.3472 -0.1146 -0.0121
15920TIP3    H169175   5.692   2.955  16.127 -1.5808  0.7481  1.4861
15920TIP3    H269176   5.716   2.996  16.271  2.7918 -0.0597  1.1161
15921TIP3   OH269177   1.728   4.345  15.130  0.6659  0.1572 -0.1352
15921TIP3    H169178   1.729   4.436  15.159  0.5785 -0.4137  1.7793
15921TIP3    H269179   1.814   4.310  15.153  1.1384  0.0153 -1.9147
15922TIP3   OH269180   4.917   5.828   0.252  0.4844 -0.2224 -0.5207
15922TIP3    H169181   4.974   5.790   0.319  1.5417 -1.7886 -2.2304
15922TIP3    H269182   4.852   5.878   0.302  1.6337 -0.7492  1.6221
15923TIP3   OH269183   2.310   0.810  12.902 -0.8940 -0.6240 -0.1994
15923TIP3    H169184   2.237   0.782  12.957 -0.0082 -2.0959  0.3078
15923TIP3    H269185   2.323   0.736  12.842 -0.5502  0.1067 -1.0363
15924TIP3   OH269186   6.506   5.042  16.096  0.2385 -0.2847  0.2241
15924TIP3    H169187   6.531   5.005  16.011  0.2040  1.1650 -0.4420
15924TIP3    H269188   6.416   5.072  16.083  0.3889  0.3525  0.6311
15925TIP3   OH269189   2.938   0.222  16.672 -0.1586  0.6315 -0.1205
15925TIP3    H169190   2.978   0.151  16.622 -0.1032  1.2824 -1.0259
15925TIP3    H269191   2.862   0.248  16.620 -0.4469  0.9247  0.4426
15926TIP3   OH269192   3.862   4.914   2.065 -0.1131  0.2710  0.2364
15926TIP3    H169193   3.905   4.982   2.014  1.4319  0.4591  1.6823
15926TIP3    H269194   3.823   4.961   2.139 -3.1302  0.1335 -1.1181
15927TIP3   OH269195   4.733   4.220   5.457  0.8629  0.2517  0.6137
15927TIP3    H169196   4.770   4.258   5.536  0.9689 -2.1611  1.8270
15927TIP3    H269197   4.638   4.229   5.467  0.9039  2.1515 -0.2299
15928TIP3   OH269198   5.512   6.686   3.796  0.1320 -0.5029  0.3266
15928TIP3    H169199   5.586   6.626   3.796  0.3551 -0.2319 -0.4400
15928TIP3    H269200   5.504   6.715   3.705 -0.5294 -0.0619  0.5208
15929TIP3   OH269201   6.314   3.143  16.397 -1.0384  0.2483 -0.1838
15929TIP3    H169202   6.325   3.076  16.464  1.5137 -0.9726 -1.6942
15929TIP3    H269203   6.266   3.100  16.327 -0.3632  0.3116 -0.6980
15930TIP3   OH269204   5.336   2.012  15.342  0.3237 -0.5054  0.0193
15930TIP3    H169205   5.387   1.970  15.273 -0.8569 -3.1130  0.6291
15930TIP3    H269206   5.401   2.044  15.404  1.3009 -1.7721 -0.3224
15931TIP3   OH269207   6.325   4.142   5.158  0.0740 -0.1478 -0.3540
15931TIP3    H169208   6.411   4.166   5.125 -0.3410  1.3854 -0.3836
15931TIP3    H269209   6.315   4.050   5.134  1.4977 -0.2183 -0.7663
15932TIP3   OH269210   3.389   6.057   6.348 -0.0750 -0.2941 -0.1092
15932TIP3    H169211   3.445   6.088   6.278 -0.6096 -0.9456 -0.8408
15932TIP3    H269212   3.300   6.067   6.315 -0.5230  2.0363  1.5670
15933TIP3   OH269213   6.166   4.813   3.334  0.3537 -0.6333  0.3451
15933TIP3    H169214   6.241   4.850   3.288  0.8864  0.1503  1.7555
15933TIP3    H269215   6.201   4.734   3.376  0.0327 -1.0175 -0.1136
15934TIP3   OH269216   1.782   2.653  11.817  0.3647 -0.7862 -0.0102
15934TIP3    H169217   1.791   2.737  11.772  2.0581 -1.0633 -0.2657
15934TIP3    H269218   1.841   2.594  11.770  0.7389 -1.5858  1.3887
15935TIP3   OH269219   1.370   2.577  13.645  0.5235 -0.3482 -0.4173
15935TIP3    H169220   1.396   2.581  13.553 -2.6954 -0.1822 -1.4359
15935TIP3    H269221   1.369   2.668  13.674 -2.1481  0.0342 -1.4659
15936TIP3   OH269222   3.915   0.248  15.036  0.2404 -0.0406 -0.6308
15936TIP3    H169223   3.957   0.275  15.118  0.6611 -0.7004 -0.6258
15936TIP3    H269224   3.947   0.160  15.020  1.0237  0.4742 -2.0846
15937TIP3   OH269225   4.559   0.883  12.414  0.1341 -0.4627 -0.1176
15937TIP3    H169226   4.598   0.940  12.347  0.2378 -0.3284  0.0593
15937TIP3    H269227   4.492   0.938  12.456  2.4078  0.6419  2.2841
15938TIP3   OH269228   2.647   0.566  11.928 -0.1187  0.0945  0.7573
15938TIP3    H169229   2.606   0.480  11.918 -1.1086  0.4974  1.2704
15938TIP3    H269230   2.732   0.557  11.883 -0.7402 -0.7588 -0.3036
15939TIP3   OH269231   1.828   3.478  17.282  0.4794  0.0917  0.6782
15939TIP3    H169232   1.767   3.488  17.356  0.6061 -0.0376  0.8024
15939TIP3    H269233   1.905   3.435  17.320 -0.0222 -1.2871  0.1783
15940TIP3   OH269234   2.638   1.559   1.451 -0.2152 -0.3408  0.3191
15940TIP3    H169235   2.646   1.645   1.410 -0.7135  0.7588  2.3745
15940TIP3    H269236   2.727   1.526   1.458 -0.1605 -0.9194 -2.2191
15941TIP3   OH269237   4.708   2.034   3.546 -0.1515 -0.1146 -0.0348
15941TIP3    H169238   4.778   2.006   3.487  0.2854  0.9627 -0.0466
15941TIP3    H269239   4.714   2.130   3.547 -0.7067 -0.0750  1.0800
15942TIP3   OH269240   4.259   1.749  13.196 -0.1005 -0.6068 -0.5540
15942TIP3    H169241   4.223   1.833  13.169  0.9577 -0.0929 -0.4392
15942TIP3    H269242   4.280   1.705  13.114 -0.0476 -0.4755 -0.6120
15943TIP3   OH269243   6.537   5.626  12.986  0.8297 -0.1605  0.1195
15943TIP3    H169244   6.621   5.644  13.029  0.0801  1.7351  0.9229
15943TIP3    H269245   6.531   5.691  12.917  0.3106 -0.7150 -0.3678
15944TIP3   OH269246   5.941   5.743   6.529  0.3883 -0.0159  0.5020
15944TIP3    H169247   5.877   5.671   6.541 -1.6779  1.8377  1.4089
15944TIP3    H269248   5.983   5.751   6.615 -1.6289  1.7450  1.4378
15945TIP3   OH269249   4.978   1.641  14.347 -0.5736 -0.1669 -0.0112
15945TIP3    H169250   5.021   1.707  14.400 -0.8448 -1.0120  1.3175
15945TIP3    H269251   4.987   1.672  14.257  2.2001  0.0111  0.2591
15946TIP3   OH269252   2.948   0.963  13.035 -0.2843  0.3232 -0.3243
15946TIP3    H169253   2.883   0.949  12.967 -2.0306 -1.0022  1.4798
15946TIP3    H269254   2.904   1.020  13.098  0.3391 -0.4546  0.8552
15947TIP3   OH269255   0.969   2.246  15.192 -0.8179  0.4585 -1.3685
15947TIP3    H169256   1.032   2.177  15.171 -0.8696 -0.5475  1.3704
15947TIP3    H269257   0.908   2.245  15.118  1.7216  0.8004 -3.6303
15948TIP3   OH269258   3.478   3.051   2.465 -0.3382 -0.0209 -0.0235
15948TIP3    H169259   3.430   3.106   2.404  0.4547 -0.6712 -1.2832
15948TIP3    H269260   3.568   3.052   2.433 -0.2462 -1.8149  0.0510
15949TIP3   OH269261   1.747   1.196  11.959 -0.4696 -0.1056  0.5430
15949TIP3    H169262   1.790   1.256  12.020 -0.9514 -0.6497  1.4432
15949TIP3    H269263   1.739   1.114  12.008 -3.5803  0.2721  0.8890
15950TIP3   OH269264   2.624   0.316   4.939  0.0542  0.4049  0.0902
15950TIP3    H169265   2.661   0.399   4.967 -0.1134  0.8938 -1.0697
15950TIP3    H269266   2.544   0.306   4.989  0.0663  0.9544  0.2227
15951TIP3   OH269267   1.778   3.674  15.746  0.0444 -0.7561 -0.7194
15951TIP3    H169268   1.751   3.592  15.787 -0.6148  0.0304  0.5102
15951TIP3    H269269   1.829   3.719  15.814 -0.2467  0.1711 -1.0881
15952TIP3   OH269270   0.407   5.203   0.320  0.0817  0.6477  0.0248
15952TIP3    H169271   0.413   5.120   0.366  1.8417  0.3228 -0.6880
15952TIP3    H269272   0.316   5.208   0.290 -0.5339 -0.1242  1.6327
15953TIP3   OH269273   3.940   3.119  15.933  0.0751 -0.1631  0.3994
15953TIP3    H169274   3.933   3.045  15.872  1.6283 -0.9420  1.1082
15953TIP3    H269275   4.034   3.133  15.944 -0.1764  0.9679  1.4393
15954TIP3   OH269276   1.737   3.777   0.175  0.1399  0.3409 -0.4880
15954TIP3    H169277   1.730   3.850   0.114 -1.3886  0.9747  0.3831
15954TIP3    H269278   1.782   3.813   0.251  0.5225  0.0161 -0.5543
15955TIP3   OH269279   4.186   4.899   3.363  0.3286 -0.4958  0.0159
15955TIP3    H169280   4.276   4.917   3.391 -0.0101  0.3957  0.5762
15955TIP3    H269281   4.132   4.926   3.437 -0.5279  0.9553 -1.0739
15956TIP3   OH269282   5.429   3.743  11.269  0.0734  0.6371 -0.0740
15956TIP3    H169283   5.472   3.826  11.249  1.5865 -0.5378 -2.1292
15956TIP3    H269284   5.352   3.741  11.212  0.0633  0.6256 -0.0604
15957TIP3   OH269285   6.658   5.739  16.454 -0.7222 -0.8702  0.1931
15957TIP3    H169286   6.563   5.750  16.458 -0.9277 -1.8209 -1.1314
15957TIP3    H269287   6.691   5.783  16.531 -2.1573  0.4575  0.0921
15958TIP3   OH269288   3.587   4.829  12.651 -0.3002  0.2039 -0.0646
15958TIP3    H169289   3.585   4.753  12.593 -1.4579  0.2249 -0.0812
15958TIP3    H269290   3.645   4.891  12.608 -0.2252 -0.2420 -0.6156
15959TIP3   OH269291   4.641   1.182  12.487  0.4551 -0.3929 -0.5485
15959TIP3    H169292   4.593   1.213  12.563  0.4215 -2.8296  0.5280
15959TIP3    H269293   4.728   1.161  12.520  0.5838 -1.0551 -1.2745
15960TIP3   OH269294   4.076   2.462  14.845 -0.4638 -0.1921 -0.1703
15960TIP3    H169295   3.993   2.416  14.838 -0.7799  0.2468  0.6101
15960TIP3    H269296   4.067   2.517  14.922 -0.1287  1.2459 -1.1119
15961TIP3   OH269297   1.839   2.164  11.381  0.7782  0.2567 -0.0530
15961TIP3    H169298   1.794   2.158  11.297  0.0140 -0.0423  0.3757
15961TIP3    H269299   1.794   2.234  11.427 -0.6154 -1.3954  1.1946
15962TIP3   OH269300   4.008   6.532   5.904 -0.2357  0.3261 -0.3226
15962TIP3    H169301   4.076   6.600   5.904  1.6564 -1.3714  1.9586
15962TIP3    H269302   4.024   6.482   5.824 -0.4150  1.3971 -1.0482
15963TIP3   OH269303   5.334   5.421   4.886  0.0899  0.3827  0.7953
15963TIP3    H169304   5.312   5.427   4.794  3.2676 -0.3615 -0.1383
15963TIP3    H269305   5.298   5.501   4.925 -0.8382  0.9716 -1.1864
15964TIP3   OH269306   3.819   1.475   5.151  0.0493 -0.3124 -0.1927
15964TIP3    H169307   3.881   1.447   5.218 -0.7500 -2.4203 -0.2562
15964TIP3    H269308   3.851   1.560   5.122  1.2702 -0.0436  1.7756
15965TIP3   OH269309   4.255   0.855  14.896 -0.5388  0.2969 -0.6761
15965TIP3    H169310   4.238   0.787  14.831  0.6765 -0.4075 -0.2881
15965TIP3    H269311   4.304   0.811  14.965 -0.4150  1.3933 -0.0346
15966TIP3   OH269312   2.664   5.434   0.094  0.3559 -0.8774  0.1912
15966TIP3    H169313   2.593   5.437   0.159  0.1157  0.6023 -0.0990
15966TIP3    H269314   2.633   5.371   0.029 -1.6642  1.0976 -0.9297
15967TIP3   OH269315   1.051   4.059  15.330  0.2568 -0.8606  0.1950
15967TIP3    H169316   0.987   4.001  15.371  0.0170 -0.6571  0.1114
15967TIP3    H269317   1.019   4.147  15.349  0.5114 -0.7589  0.1511
15968TIP3   OH269318   1.601   1.593   6.681  0.6551  0.0161  0.0018
15968TIP3    H169319   1.640   1.540   6.750 -3.1183 -2.9098  0.2418
15968TIP3    H269320   1.584   1.531   6.610 -2.0647  1.3054 -0.6114
15969TIP3   OH269321   3.619   0.395   4.528 -0.1613 -0.1918 -0.3912
15969TIP3    H169322   3.568   0.466   4.488  0.2054  0.4337  0.2312
15969TIP3    H269323   3.561   0.319   4.524 -1.1732  0.5088  0.3399
15970TIP3   OH269324   3.219   0.449   2.814  0.4157  0.4056 -0.1922
15970TIP3    H169325   3.195   0.423   2.903  1.5990  1.3548  0.4418
15970TIP3    H269326   3.180   0.535   2.803  1.1804  0.7621 -0.1740
15971TIP3   OH269327   5.367   4.473   3.570 -0.2953  0.0919 -0.0940
15971TIP3    H169328   5.293   4.500   3.515 -1.3423 -0.7273  0.8603
15971TIP3    H269329   5.328   4.413   3.634  0.7584  1.4709  1.9368
15972TIP3   OH269330   3.549   4.527   3.803  0.2723 -0.0690 -0.0827
15972TIP3    H169331   3.491   4.598   3.832  0.9026  0.2232  0.4961
15972TIP3    H269332   3.628   4.571   3.774  0.1822 -0.4632 -0.9485
15973TIP3   OH269333   5.036   3.658  15.087  0.2662 -0.1044  0.4664
15973TIP3    H169334   5.019   3.598  15.015  1.7390 -0.0773  0.0604
15973TIP3    H269335   5.097   3.611  15.144  1.4929  0.9959  0.1116
15974TIP3   OH269336   6.277   3.979   4.348  0.5380  0.2202 -0.1930
15974TIP3    H169337   6.368   4.006   4.361  0.5687  0.2281 -0.4279
15974TIP3    H269338   6.238   3.984   4.436  1.0064 -0.7023  0.0747
15975TIP3   OH269339   0.064   1.951   5.520 -0.4392  0.1624 -0.6168
15975TIP3    H169340   0.054   1.917   5.609 -1.7823  2.1838  0.0671
15975TIP3    H269341   0.157   1.968   5.511  0.0068 -1.8579 -0.3349
15976TIP3   OH269342   1.564   1.342   2.360 -0.0113  0.5476 -0.3190
15976TIP3    H169343   1.515   1.403   2.304  0.0324  1.1264  0.2675
15976TIP3    H269344   1.522   1.348   2.445 -0.2273 -0.5208 -0.3396
15977TIP3   OH269345   0.802   6.291   3.345 -0.4635 -0.2152 -0.1244
15977TIP3    H169346   0.881   6.343   3.331  1.0592 -1.7775  1.9691
15977TIP3    H269347   0.730   6.350   3.325  1.2037  1.5163 -1.3292
15978TIP3   OH269348   0.667   5.722   2.357  0.4576  0.7126  0.1212
15978TIP3    H169349   0.578   5.734   2.388  0.5097 -0.9094  1.0160
15978TIP3    H269350   0.716   5.693   2.434  1.0413 -1.4867 -0.9902
15979TIP3   OH269351   4.906   0.079   1.576 -0.3055 -0.5388 -0.4990
15979TIP3    H169352   4.839   0.124   1.627  1.2985  2.0169 -0.4752
15979TIP3    H269353   4.857   0.031   1.509 -2.1793  0.2783  0.2211
15980TIP3   OH269354   4.840   5.749   3.188  0.3080  0.1422  0.7012
15980TIP3    H169355   4.786   5.671   3.203  0.6256 -0.1405  0.3955
15980TIP3    H269356   4.792   5.820   3.231 -1.2509  0.2564 -1.0896
15981TIP3   OH269357   3.050   5.466   1.867  0.1604  0.1146  0.1373
15981TIP3    H169358   3.109   5.391   1.876  0.8343  0.5301 -0.7154
15981TIP3    H269359   3.097   5.528   1.812 -0.8135  0.7372 -0.0274
15982TIP3   OH269360   5.062   4.232  13.408  0.3549  0.5568  0.0952
15982TIP3    H169361   5.103   4.159  13.456 -0.8674 -0.1608  0.0939
15982TIP3    H269362   5.120   4.247  13.334  1.2665  0.3975  0.7526
15983TIP3   OH269363   4.424   2.751  14.388  0.4968 -0.0454 -0.3592
15983TIP3    H169364   4.348   2.806  14.368 -0.9885 -2.2618 -1.2069
15983TIP3    H269365   4.494   2.786  14.332 -0.3665  0.9834 -0.8385
15984TIP3   OH269366   4.093   6.740  15.487  0.2225  0.5133  0.4022
15984TIP3    H169367   4.078   6.810  15.551 -0.8981  1.8449 -1.2087
15984TIP3    H269368   4.160   6.776  15.429  0.7242 -0.3927  0.4029
15985TIP3   OH269369   3.020   1.967  13.207  0.1953  0.4243  0.9005
15985TIP3    H169370   3.084   1.979  13.137 -0.6428  1.1715  0.2400
15985TIP3    H269371   2.968   2.047  13.206 -0.2405  0.1721  1.9598
15986TIP3   OH269372   0.262   4.758   1.484  0.5157  0.2588  0.4461
15986TIP3    H169373   0.183   4.809   1.466  0.0269 -1.3541 -2.8691
15986TIP3    H269374   0.333   4.813   1.451  0.6789  1.1636  2.2331
15987TIP3   OH269375   3.201   3.814   1.228 -0.1928  0.2538 -0.3410
15987TIP3    H169376   3.254   3.782   1.300  0.6413  2.9895  0.3683
15987TIP3    H269377   3.116   3.835   1.268 -0.0897  0.7493 -0.3786
15988TIP3   OH269378   6.416   0.340   1.287  0.8298  0.1126 -0.0405
15988TIP3    H169379   6.329   0.301   1.300  0.4285  0.1681 -2.1328
15988TIP3    H269380   6.447   0.301   1.205  1.8714  1.6329 -0.4188
15989TIP3   OH269381   1.608   4.589  15.642  0.0482 -0.1718 -0.9654
15989TIP3    H169382   1.642   4.507  15.679  0.5914  1.4155  2.4710
15989TIP3    H269383   1.651   4.598  15.557  0.1585 -3.2531 -1.3452
15990TIP3   OH269384   5.599   0.277   3.632 -0.5368  0.4565  0.5613
15990TIP3    H169385   5.514   0.305   3.600 -0.9355 -1.3607 -0.0876
15990TIP3    H269386   5.662   0.331   3.585 -1.3010  3.4078  2.6607
15991TIP3   OH269387   2.762   3.533  16.461 -0.1743 -0.0785  0.2502
15991TIP3    H169388   2.676   3.528  16.420 -0.8507  0.9186  1.4511
15991TIP3    H269389   2.747   3.508  16.552  0.7018  0.5728  0.5921
15992TIP3   OH269390   1.543   6.562  16.658  0.5253 -0.3245  0.4442
15992TIP3    H169391   1.481   6.605  16.718  0.2973  1.8249 -1.2142
15992TIP3    H269392   1.629   6.579  16.697  0.3103 -0.1594  0.8618
15993TIP3   OH269393   0.171   5.015  14.872 -0.9444 -0.2610 -0.2707
15993TIP3    H169394   0.259   4.988  14.846 -1.1638 -1.0857 -0.1859
15993TIP3    H269395   0.182   5.051  14.960 -0.3454  1.7132 -1.0714
15994TIP3   OH269396   6.269   3.417   1.339  0.0108 -0.1243  0.3925
15994TIP3    H169397   6.175   3.412   1.324  0.0665  1.5896 -0.8526
15994TIP3    H269398   6.307   3.356   1.276 -0.2532 -1.1389  1.1863
15995TIP3   OH269399   4.706   4.402  13.161 -0.3708 -0.1943 -0.1291
15995TIP3    H169400   4.676   4.471  13.219  0.2304 -1.8902  2.3655
15995TIP3    H269401   4.628   4.352  13.140 -0.8124  1.1828 -1.9664
15996TIP3   OH269402   4.260   6.600   5.809 -0.2900  0.1122  0.0981
15996TIP3    H169403   4.199   6.648   5.752  1.5680  1.0260 -1.2026
15996TIP3    H269404   4.309   6.544   5.750  1.3978  0.7592  0.8091
15997TIP3   OH269405   4.228   2.865  11.233  0.3576 -0.2892  0.4006
15997TIP3    H169406   4.313   2.822  11.240 -0.0667 -1.1189  0.6370
15997TIP3    H269407   4.166   2.802  11.271 -0.8828 -1.2849 -2.8954
15998TIP3   OH269408   3.891   2.998   4.518 -0.1247 -0.0902 -0.2363
15998TIP3    H169409   3.835   3.014   4.595 -1.0102 -1.1516 -0.6267
15998TIP3    H269410   3.866   3.066   4.456 -1.3363 -0.8102 -0.5726
15999TIP3   OH269411   4.067   1.466   5.272  0.1523  0.0536  0.7915
15999TIP3    H169412   4.135   1.398   5.266 -0.2957 -0.3209 -0.1309
15999TIP3    H269413   4.111   1.545   5.242  0.2587 -0.1364  0.4361
16000TIP3   OH269414   0.095   4.995  11.216  0.1232 -0.5169  0.2940
16000TIP3    H169415   0.105   4.900  11.219  0.6960 -0.4172  1.8643
16000TIP3    H269416   0.006   5.008  11.183  0.3384 -1.5638 -0.7746
16001TIP3   OH269417   4.014   1.677   3.594 -0.8169 -0.9905 -0.8451
16001TIP3    H169418   3.963   1.693   3.673  0.6774  1.5598 -0.2795
16001TIP3    H269419   4.081   1.614   3.619 -1.9409 -2.2152 -0.8435
16002TIP3   OH269420   4.760   5.962   0.451  0.2185 -0.2425 -0.2066
16002TIP3    H169421   4.783   6.043   0.496  3.4834  0.8964 -3.4075
16002TIP3    H269422   4.794   5.892   0.507  1.3748  0.8954  0.5543
16003TIP3   OH269423   0.041   4.947  12.153  0.2094 -1.0769 -0.3920
16003TIP3    H169424  -0.015   4.914  12.083 -0.3038 -1.3902  0.1505
16003TIP3    H269425   0.130   4.926  12.125  0.0206 -1.0966 -0.9948
16004TIP3   OH269426   2.247   6.344   0.503  0.2968 -0.3660 -0.4417
16004TIP3    H169427   2.250   6.248   0.498 -1.3834 -0.4320 -0.5752
16004TIP3    H269428   2.304   6.365   0.578 -1.0610 -1.6438  1.0245
16005TIP3   OH269429   0.659   5.121   4.011 -0.0793 -0.0122 -0.1990
16005TIP3    H169430   0.737   5.071   3.988 -0.7425  0.1235 -3.1910
16005TIP3    H269431   0.661   5.196   3.952 -1.7492  0.7249  0.6250
16006TIP3   OH269432   3.986   1.953  11.284  0.5127 -0.0885 -0.4034
16006TIP3    H169433   4.015   2.040  11.258 -1.6265  1.3558  1.6032
16006TIP3    H269434   3.893   1.950  11.261  0.0097 -0.9480  1.4579
16007TIP3   OH269435   1.149   4.744  14.476  0.2133 -0.3125 -0.3811
16007TIP3    H169436   1.223   4.719  14.419 -0.2442 -1.7828 -0.3755
16007TIP3    H269437   1.089   4.789  14.417  0.1860 -0.9557 -0.8623
16008TIP3   OH269438   3.655   4.533  17.250  0.5125  0.1980 -0.1408
16008TIP3    H169439   3.652   4.437  17.241  2.6176  0.1920 -1.3821
16008TIP3    H269440   3.585   4.565  17.194  1.2949 -0.5798 -1.6220
16009TIP3   OH269441   2.972   3.896   5.614  0.6048 -0.3238  0.0958
16009TIP3    H169442   2.911   3.942   5.672 -0.6682  0.8434 -2.0367
16009TIP3    H269443   2.944   3.805   5.617 -0.2880 -0.0571  0.3415
16010TIP3   OH269444   1.686   5.460   0.192 -0.3066 -0.2783  0.0273
16010TIP3    H169445   1.630   5.537   0.200 -0.6530 -0.3618 -1.3390
16010TIP3    H269446   1.702   5.432   0.282 -0.7535  0.9652  0.5166
16011TIP3   OH269447   4.895   3.448   3.152 -0.3172  0.4252 -0.4350
16011TIP3    H169448   4.986   3.457   3.124 -0.3243  0.0281 -0.5897
16011TIP3    H269449   4.844   3.480   3.078 -0.3135  0.3638 -0.4637
16012TIP3   OH269450   2.505   4.544   5.767  0.4277  0.0719  0.7431
16012TIP3    H169451   2.468   4.630   5.746 -0.9562 -0.3389  1.4063
16012TIP3    H269452   2.469   4.486   5.700  2.5497  0.2034 -0.6497
16013TIP3   OH269453   3.168   1.647  11.961  0.2532 -0.1234  0.2437
16013TIP3    H169454   3.172   1.657  11.866  1.6388  0.0437  0.3001
16013TIP3    H269455   3.156   1.736  11.995 -1.2676 -0.2803  0.2188
16014TIP3   OH269456   6.425   6.219  15.568 -0.0805 -0.7964 -0.2627
16014TIP3    H169457   6.415   6.295  15.511 -0.5438 -1.4906 -1.1560
16014TIP3    H269458   6.410   6.144  15.509 -2.8082 -1.5067  1.1739
16015TIP3   OH269459   1.003   2.005  17.132  0.2177 -0.5807  0.0810
16015TIP3    H169460   0.970   1.932  17.078 -1.5009  0.0114  0.2778
16015TIP3    H269461   0.932   2.069  17.132  1.2087  0.5649  0.9501
16016TIP3   OH269462   3.971   0.609   1.024  0.2004 -1.0374  0.0448
16016TIP3    H169463   4.039   0.643   1.082 -1.0852  0.5699  0.6958
16016TIP3    H269464   3.917   0.686   1.003 -0.7745 -2.0461 -1.3298
16017TIP3   OH269465   2.840   3.127   2.371 -0.1941 -0.6631  0.0629
16017TIP3    H169466   2.777   3.096   2.436 -1.3601  1.8662  0.2386
16017TIP3    H269467   2.904   3.178   2.421  0.3979 -0.8609 -0.4737
16018TIP3   OH269468   0.022   3.363  16.298 -0.3706 -0.5196 -0.4310
16018TIP3    H169469   0.116   3.383  16.292 -0.6308  1.4301  1.0106
16018TIP3    H269470  -0.013   3.388  16.212  0.6444 -3.0667 -1.6947
16019TIP3   OH269471   5.478   6.080   2.861 -1.0102 -0.7640  0.3323
16019TIP3    H169472   5.480   6.174   2.845 -0.0073 -0.6667  0.9436
16019TIP3    H269473   5.517   6.041   2.782 -0.6157 -0.6116  0.4533
16020TIP3   OH269474   0.142   2.015  14.543  0.5819  0.9676 -0.2818
16020TIP3    H169475   0.232   2.010  14.509  0.3305 -0.6825 -0.7986
16020TIP3    H269476   0.093   1.951  14.491 -0.3980  0.2547  1.4183
16021TIP3   OH269477   6.425   4.053   5.565 -0.3786 -0.0957 -0.0405
16021TIP3    H169478   6.421   3.970   5.613 -1.2709 -0.3781 -0.5886
16021TIP3    H269479   6.418   4.120   5.633  2.0368 -0.3950  0.6031
16022TIP3   OH269480   4.240   2.900   5.232 -0.2488 -0.3817 -0.4869
16022TIP3    H169481   4.289   2.981   5.223 -1.2095  0.0663 -2.1460
16022TIP3    H269482   4.163   2.924   5.284 -0.1881 -0.3873 -0.3949
16023TIP3   OH269483   4.442   1.099  16.362  0.1538 -0.0606  0.2161
16023TIP3    H169484   4.524   1.148  16.356 -0.2051  0.5372  0.0815
16023TIP3    H269485   4.441   1.064  16.451  0.8506 -0.6145  0.0198
16024TIP3   OH269486   3.670   4.789  14.610 -0.0694  0.3245  0.4810
16024TIP3    H169487   3.721   4.813  14.533 -2.1496 -0.5457 -1.2574
16024TIP3    H269488   3.734   4.748  14.668  1.2757 -0.5835 -1.5183
16025TIP3   OH269489   4.073   1.693  11.144 -0.0192 -0.0288 -0.2918
16025TIP3    H169490   4.120   1.747  11.208 -2.4676  1.6063  0.2876
16025TIP3    H269491   3.991   1.670  11.187 -0.4502 -1.5000 -1.7682
16026TIP3   OH269492   5.062   1.207   4.804  0.3870 -0.2195 -0.6445
16026TIP3    H169493   5.123   1.216   4.731  0.0993 -0.4029 -0.9077
16026TIP3    H269494   4.977   1.236   4.769  0.7619  2.4131  0.3917
16027TIP3   OH269495   2.935   0.320   0.830 -0.5505 -0.0396  0.2616
16027TIP3    H169496   2.842   0.302   0.815  0.5274 -3.5262 -4.6187
16027TIP3    H269497   2.952   0.403   0.787 -1.4970  1.3223  2.3694
16028TIP3   OH269498   1.471   6.371   0.692 -0.7305  0.3515  0.0730
16028TIP3    H169499   1.403   6.306   0.673 -0.5508  0.1353  0.1573
16028TIP3    H269500   1.484   6.365   0.787 -1.1789  0.9798  0.1814
16029TIP3   OH269501   0.438   5.779   5.602  0.0763  0.0478 -0.3879
16029TIP3    H169502   0.464   5.799   5.512  2.6970 -0.8006  0.1120
16029TIP3    H269503   0.517   5.745   5.644 -1.4454 -1.0610  1.8200
16030TIP3   OH269504   2.651   5.927  15.394  0.1092 -0.5269  0.2041
16030TIP3    H169505   2.605   6.011  15.391 -3.7029 -2.2115  2.9054
16030TIP3    H269506   2.651   5.897  15.303 -1.5656  0.9047 -0.3274
16031TIP3   OH269507   2.470   0.803   5.590  0.2880  0.1966  0.1804
16031TIP3    H169508   2.397   0.747   5.617  0.3195  0.8681  1.7822
16031TIP3    H269509   2.476   0.791   5.496 -2.5877  0.9212 -0.1777
16032TIP3   OH269510   0.336   3.617  14.772 -0.0069  0.5995 -0.0605
16032TIP3    H169511   0.311   3.696  14.725  1.3233  1.2081  0.2301
16032TIP3    H269512   0.425   3.599  14.744 -0.3343 -0.8971 -0.2359
16033TIP3   OH269513   2.295   0.049   1.012 -0.6459  0.2038  0.5233
16033TIP3    H169514   2.230   0.057   0.942  1.0273  1.4706 -0.9691
16033TIP3    H269515   2.362  -0.010   0.976  1.6848  3.0997 -0.2226
16034TIP3   OH269516   4.987   4.737   2.245  0.2463 -0.1437  0.1484
16034TIP3    H169517   4.947   4.650   2.236 -2.1013  0.8470  0.2877
16034TIP3    H269518   4.940   4.791   2.181  1.6891  1.0363  0.0390
16035TIP3   OH269519   2.802   4.337   2.408  0.0396  0.3822 -0.1167
16035TIP3    H169520   2.760   4.324   2.493 -0.7486 -0.9076 -0.6634
16035TIP3    H269521   2.892   4.305   2.421  0.0650  0.6478  0.3611
16036TIP3   OH269522   0.018   3.067  12.860 -0.0274 -0.2427 -0.2394
16036TIP3    H169523   0.003   3.001  12.793 -1.3638 -0.3729  0.1633
16036TIP3    H269524   0.112   3.062  12.878 -0.1625 -2.3803  0.1246
16037TIP3   OH269525   4.647   3.350   3.645  0.3727 -0.1931  0.1240
16037TIP3    H169526   4.700   3.354   3.565  0.7096  1.1996  0.3927
16037TIP3    H269527   4.710   3.360   3.716 -0.1197  0.3982  0.4900
16038TIP3   OH269528   4.857   4.336  12.522 -0.0694  0.4454  0.1766
16038TIP3    H169529   4.815   4.370  12.443 -0.6857  0.1554  0.3728
16038TIP3    H269530   4.796   4.357  12.593  1.5433  2.8914  0.9792
16039TIP3   OH269531   1.716   6.282   2.876 -0.2678  0.1701 -0.2274
16039TIP3    H169532   1.682   6.245   2.958  0.3430  0.0261 -0.0335
16039TIP3    H269533   1.684   6.372   2.875  0.2325  0.3625  0.4756
16040TIP3   OH269534   4.716   6.637   2.462 -0.4945 -0.0420 -0.0144
16040TIP3    H169535   4.780   6.610   2.396 -0.4112  0.9650 -0.3702
16040TIP3    H269536   4.767   6.646   2.542 -0.4914 -0.7364  0.0704
16041TIP3   OH269537   5.793   4.164   3.708  0.5898 -0.3781 -0.5929
16041TIP3    H169538   5.848   4.105   3.760 -0.5446 -0.5079  0.5197
16041TIP3    H269539   5.737   4.207   3.773  0.6345  1.1164 -1.5004
16042TIP3   OH269540   6.365   2.584   5.360  0.3998  0.8629 -0.1433
16042TIP3    H169541   6.342   2.515   5.422 -1.4477  1.5840  0.0571
16042TIP3    H269542   6.348   2.666   5.408  0.8106  1.4466 -0.9621
16043TIP3   OH269543   2.552   3.274  14.216  0.2861 -0.3079 -0.2086
16043TIP3    H169544   2.468   3.229  14.218 -0.9082  1.7710 -0.7456
16043TIP3    H269545   2.616   3.205  14.196 -1.4280 -1.7345 -1.0287
16044TIP3   OH269546   0.138   1.291  16.071 -0.2084 -0.2402  0.6588
16044TIP3    H169547   0.225   1.287  16.031 -0.8104  0.6170 -0.7907
16044TIP3    H269548   0.155   1.282  16.165  1.3453 -1.1413  0.3404
16045TIP3   OH269549   6.333   5.057   5.871  0.4169 -0.3580 -0.4852
16045TIP3    H169550   6.247   5.035   5.907 -0.8767  2.4577 -1.5810
16045TIP3    H269551   6.345   4.995   5.799 -0.6910 -0.7714 -0.3341
16046TIP3   OH269552   0.001   6.703  15.536  0.5068  0.2948 -0.1960
16046TIP3    H169553   0.006   6.742  15.623 -0.6394  0.3458 -0.1344
16046TIP3    H269554   0.085   6.659  15.524  0.4229 -0.3055  1.2275
16047TIP3   OH269555   6.741   5.269  12.550  0.4508  0.5084  0.7607
16047TIP3    H169556   6.763   5.178  12.530 -0.7576  0.6858 -1.8576
16047TIP3    H269557   6.811   5.320  12.510  0.0670  0.7668  0.4010
16048TIP3   OH269558   2.445   1.061  15.121 -0.2323 -0.2729  0.2768
16048TIP3    H169559   2.476   1.146  15.090 -0.9024 -0.1748 -0.1287
16048TIP3    H269560   2.350   1.069  15.123 -0.4110 -1.5378 -1.3228
16049TIP3   OH269561   5.148   3.131  16.253  0.1963  0.0117  0.5865
16049TIP3    H169562   5.216   3.100  16.194  1.1948 -0.4799  1.9401
16049TIP3    H269563   5.177   3.102  16.340 -3.1124 -2.8648  0.9836
16050TIP3   OH269564   5.088   6.338   6.403  0.0880 -0.2697 -0.6206
16050TIP3    H169565   5.009   6.388   6.425  0.2035 -0.8227  1.2686
16050TIP3    H269566   5.055   6.260   6.360 -0.2587  0.2711 -1.3681
16051TIP3   OH269567   5.882   6.723  11.468 -0.0741 -0.2353 -0.7131
16051TIP3    H169568   5.958   6.773  11.497 -0.9261  0.7354 -0.0510
16051TIP3    H269569   5.821   6.727  11.542  0.9025 -4.8160  0.6121
16052TIP3   OH269570   4.743   1.928   3.031  0.3394 -0.2704  0.1149
16052TIP3    H169571   4.796   1.990   2.981 -0.3521  1.6618  1.6682
16052TIP3    H269572   4.736   1.967   3.118 -1.3547 -1.8284  0.7332
16053TIP3   OH269573   6.689   5.531  16.279  0.4018  0.2978  0.2745
16053TIP3    H169574   6.694   5.612  16.330 -1.0654  0.2402  0.5695
16053TIP3    H269575   6.623   5.550  16.212 -1.2078 -1.1165  1.3469
16054TIP3   OH269576   3.275   0.064   3.630 -0.0930 -0.1866  0.5517
16054TIP3    H169577   3.271   0.143   3.683 -1.8481 -0.1786  0.4534
16054TIP3    H269578   3.210   0.077   3.561 -0.8037 -1.9077  0.8410
16055TIP3   OH269579   6.036   4.024  12.576 -0.2639  0.5687  0.0021
16055TIP3    H169580   5.988   3.997  12.498  0.1370 -0.0725 -0.0367
16055TIP3    H269581   6.003   4.111  12.596 -1.0200  0.3728 -0.3534
16056TIP3   OH269582   0.470   1.497   2.181  0.2247 -0.1066  0.4668
16056TIP3    H169583   0.422   1.486   2.263  0.7003  0.8937  0.9022
16056TIP3    H269584   0.494   1.408   2.155  0.9137 -0.3856  1.9334
16057TIP3   OH269585   1.299   3.562   1.811 -0.1706 -0.0207 -0.0910
16057TIP3    H169586   1.277   3.655   1.805  0.2170  0.0749 -0.0476
16057TIP3    H269587   1.284   3.540   1.903 -1.4400 -0.3066 -0.3424
16058TIP3   OH269588   4.072   0.612   1.986  0.2267  0.3019  0.2681
16058TIP3    H169589   4.036   0.526   1.968  3.7124 -0.8289 -2.2183
16058TIP3    H269590   4.055   0.626   2.079 -0.4889 -3.0440  0.7477
16059TIP3   OH269591   3.103   4.671   1.808 -0.0619 -0.3023  0.1276
16059TIP3    H169592   3.175   4.611   1.787  1.3253  0.5591  2.0933
16059TIP3    H269593   3.045   4.620   1.866  0.0705 -0.3545  0.2141
16060TIP3   OH269594   4.968   2.641   2.361  0.6418 -0.3069 -0.2828
16060TIP3    H169595   5.006   2.566   2.315 -0.6590 -0.5842 -0.9614
16060TIP3    H269596   4.874   2.636   2.341  0.0378 -0.2986  2.2097
16061TIP3   OH269597   4.945   1.391   5.691  0.4237  0.8889 -0.1420
16061TIP3    H169598   4.898   1.320   5.648 -1.7994  1.8204  0.6183
16061TIP3    H269599   5.020   1.348   5.734 -1.3669 -1.1744  1.1168
16062TIP3   OH269600   1.714   0.039   2.095 -0.0869  0.3152  0.3017
16062TIP3    H169601   1.626   0.050   2.131 -1.3782 -2.2180 -1.7496
16062TIP3    H269602   1.729  -0.055   2.099  1.1460  0.3179 -2.3523
16063TIP3   OH269603   0.857   1.848   1.737  0.0943  0.9100  0.0849
16063TIP3    H169604   0.810   1.802   1.667  1.8263 -3.1132  1.2817
16063TIP3    H269605   0.807   1.829   1.816  0.4555  1.8160  0.5494
16064TIP3   OH269606   5.910   6.313   5.186 -0.3474 -0.7139  0.9638
16064TIP3    H169607   5.995   6.292   5.149 -0.8110  0.6777 -1.0618
16064TIP3    H269608   5.891   6.242   5.246  2.1995 -1.0812  1.4157
16065TIP3   OH269609   5.689   5.347  14.413  0.2220  0.2063 -0.0693
16065TIP3    H169610   5.645   5.308  14.337  0.0313 -0.8977  0.5843
16065TIP3    H269611   5.617   5.375  14.470  0.3647  1.0307 -0.2779
16066TIP3   OH269612   1.361   5.327   6.100  0.2075 -0.4685 -0.2002
16066TIP3    H169613   1.312   5.246   6.091  0.2717 -0.6666  1.0631
16066TIP3    H269614   1.387   5.350   6.011 -0.2919 -1.5305 -0.6269
16067TIP3   OH269615   0.681   5.682  11.339 -0.5312  0.4925 -0.1574
16067TIP3    H169616   0.718   5.751  11.394 -0.4581 -0.7796  1.4692
16067TIP3    H269617   0.725   5.692  11.255  0.4320  1.6080  0.4476
16068TIP3   OH269618   3.771   1.427   0.843  0.3575  0.3088  0.1015
16068TIP3    H169619   3.852   1.386   0.875  0.6632  1.0510  0.3042
16068TIP3    H269620   3.801   1.501   0.790 -0.1924  0.9997  0.7299
16069TIP3   OH269621   5.862   0.323  14.078 -0.2122 -0.4938 -0.8327
16069TIP3    H169622   5.924   0.272  14.026  0.1889 -2.3484  1.2776
16069TIP3    H269623   5.777   0.281  14.062 -0.0339 -1.2854  0.1968
16070TIP3   OH269624   2.842   4.682  16.141 -0.6847 -0.4865 -0.1580
16070TIP3    H169625   2.847   4.775  16.120 -1.2074 -0.8136 -1.9638
16070TIP3    H269626   2.900   4.640  16.077 -1.6624 -1.5092 -0.4151
16071TIP3   OH269627   2.194   4.849   2.119 -0.2342  0.3536 -0.4773
16071TIP3    H169628   2.235   4.782   2.174  0.1609  0.2841 -0.8521
16071TIP3    H269629   2.169   4.802   2.039 -0.3809  0.5540 -0.5506
16072TIP3   OH269630   3.386   4.744   3.833 -0.1737  0.2856  0.0932
16072TIP3    H169631   3.442   4.806   3.880  1.2035 -1.1631  0.4681
16072TIP3    H269632   3.316   4.797   3.797  0.0703  1.8193  1.7330
16073TIP3   OH269633   3.193   5.004  14.707 -0.0083  0.5983  0.0394
16073TIP3    H169634   3.189   5.074  14.641 -4.0718  1.6571  1.0772
16073TIP3    H269635   3.227   5.047  14.785 -2.4545  1.5646  0.6633
16074TIP3   OH269636   1.366   0.377   2.231  0.4411 -0.0416  0.1717
16074TIP3    H169637   1.300   0.435   2.270  0.6828 -0.4119  1.1746
16074TIP3    H269638   1.355   0.388   2.137  1.2915  2.5677  0.2916
16075TIP3   OH269639   4.140   4.085   2.545 -0.3651  0.0709 -0.5139
16075TIP3    H169640   4.101   4.108   2.630 -0.3141  0.5687 -0.6233
16075TIP3    H269641   4.223   4.132   2.543  0.6229 -1.5705  0.0284
16076TIP3   OH269642   6.664   6.032  15.306  0.5600 -0.1506  0.0183
16076TIP3    H169643   6.733   5.966  15.304 -0.4605 -1.2507 -0.8089
16076TIP3    H269644   6.692   6.098  15.242  1.0418 -0.3734 -0.0032
16077TIP3   OH269645   3.576   2.227   3.154 -0.1144  0.2031 -0.1511
16077TIP3    H169646   3.586   2.321   3.168  0.6782 -0.1842  2.2856
16077TIP3    H269647   3.664   2.192   3.163 -0.4556 -0.8285 -0.6656
16078TIP3   OH269648   5.836   2.135  10.804 -0.5927 -0.4771  0.4654
16078TIP3    H169649   5.814   2.180  10.886  0.9741  1.0871  0.0980
16078TIP3    H269650   5.798   2.189  10.736  0.6995 -0.0402  0.0512
16079TIP3   OH269651   4.318   2.965  16.263  0.0130 -0.2990  0.1883
16079TIP3    H169652   4.267   2.910  16.204 -0.5912 -0.4780  0.8529
16079TIP3    H269653   4.403   2.922  16.270  1.0544  1.0957 -2.5701
16080TIP3   OH269654   6.268   2.663   2.098  0.0935  0.5352  0.1085
16080TIP3    H169655   6.221   2.649   2.180  0.2202  2.2607  0.5228
16080TIP3    H269656   6.361   2.660   2.123  0.2212 -1.3710 -0.4405
16081TIP3   OH269657   3.715   6.043   1.524  0.1491  0.1661  0.3900
16081TIP3    H169658   3.703   6.066   1.432  1.2163  0.3247  0.2768
16081TIP3    H269659   3.672   5.958   1.532  1.7613 -0.8272 -0.7725
16082TIP3   OH269660   6.215   6.186   4.693 -0.2397 -0.1120 -0.3008
16082TIP3    H169661   6.240   6.143   4.611  0.8935 -0.6778  0.3148
16082TIP3    H269662   6.208   6.279   4.671 -0.4440 -0.3170 -1.1406
16083TIP3   OH269663   4.053   0.285  13.265 -0.0802 -0.4901  0.5477
16083TIP3    H169664   4.113   0.223  13.224 -0.4382 -0.4978  0.0404
16083TIP3    H269665   3.999   0.318  13.194  2.4536  3.1592  0.0109
16084TIP3   OH269666   4.626   6.562   3.432  0.3676  0.3210  0.2838
16084TIP3    H169667   4.705   6.509   3.440 -0.3378 -0.7712  0.1591
16084TIP3    H269668   4.599   6.578   3.522 -0.9306 -1.8873  0.3558
16085TIP3   OH269669   1.421   1.058   5.384 -0.0136  0.8044  0.2952
16085TIP3    H169670   1.477   1.041   5.459  0.3245 -0.3787 -0.1972
16085TIP3    H269671   1.342   1.096   5.421 -0.7372 -1.6543  1.5305
16086TIP3   OH269672   2.104   3.755   3.217 -0.0980  0.1184  0.3536
16086TIP3    H169673   2.064   3.827   3.167 -0.4193 -0.6565 -0.5321
16086TIP3    H269674   2.128   3.795   3.301 -0.0634  1.3128 -0.2038
16087TIP3   OH269675   1.325   5.283   5.663  0.1711 -0.1140 -0.1017
16087TIP3    H169676   1.346   5.226   5.590 -1.0801  0.3141 -0.8274
16087TIP3    H269677   1.252   5.240   5.707  0.1778  0.2032  0.2240
16088TIP3   OH269678   1.042   4.975   6.663  0.1638  0.1062  0.6838
16088TIP3    H169679   1.025   4.884   6.686 -1.3385  0.5347  1.4133
16088TIP3    H269680   1.066   4.972   6.570  1.1287 -1.1180  0.9541
16089TIP3   OH269681   1.201   5.591  10.994  0.1952  0.9672 -0.6645
16089TIP3    H169682   1.151   5.570  11.073 -1.4721  0.1015 -1.8823
16089TIP3    H269683   1.291   5.564  11.015 -0.6077 -1.2934  0.1994
16090TIP3   OH269684   0.824   4.577   1.232 -0.2265  0.3289 -0.3010
16090TIP3    H169685   0.904   4.536   1.265 -0.5867 -0.2918 -0.1683
16090TIP3    H269686   0.754   4.517   1.260 -0.7883  1.1336  0.0454
16091TIP3   OH269687   4.476   5.465   4.393 -0.4892 -0.8473  0.0819
16091TIP3    H169688   4.407   5.443   4.330  0.0012 -1.5212 -0.2392
16091TIP3    H269689   4.557   5.461   4.342 -0.1838 -0.3574  0.5218
16092TIP3   OH269690   1.924   5.600   0.366 -0.3833  0.5373 -0.1162
16092TIP3    H169691   1.967   5.658   0.303 -0.7382 -0.2925 -1.1561
16092TIP3    H269692   1.858   5.554   0.314 -0.7831 -0.0663  0.9034
16093TIP3   OH269693   6.043   4.094  16.457 -0.0133  0.1303 -0.2398
16093TIP3    H169694   6.109   4.116  16.391  3.9043 -3.2609  2.0485
16093TIP3    H269695   5.994   4.021  16.418  0.7128 -0.3169 -0.3416
16094TIP3   OH269696   2.427   4.072  10.947  0.4138 -0.2086 -0.1411
16094TIP3    H169697   2.411   3.978  10.960 -0.6710 -0.0249 -0.0742
16094TIP3    H269698   2.522   4.079  10.942  0.4873 -1.7431 -3.2707
16095TIP3   OH269699   1.650   3.705  13.775  0.5186  0.2307  0.6871
16095TIP3    H169700   1.585   3.636  13.781  0.1503  0.3229 -1.3532
16095TIP3    H269701   1.734   3.659  13.767  0.4249  0.0576  0.7088
16096TIP3   OH269702   6.544   6.247  16.959 -0.7506  0.7436 -0.8100
16096TIP3    H169703   6.600   6.234  17.036  0.4622 -0.0423 -1.7785
16096TIP3    H269704   6.535   6.342  16.952 -1.8260  0.8205  0.9246
16097TIP3   OH269705   0.648   3.044   2.161  0.2157  0.1340 -0.2628
16097TIP3    H169706   0.613   3.133   2.159  0.9053  0.4055 -0.8549
16097TIP3    H269707   0.576   2.990   2.193 -0.7586  0.6640 -1.4688
16098TIP3   OH269708   0.150   1.043   4.793 -0.3140  0.8866  0.6538
16098TIP3    H169709   0.212   1.011   4.727 -0.5966  0.2991  0.6731
16098TIP3    H269710   0.115   0.964   4.834 -1.1581  1.2103  0.5731
16099TIP3   OH269711   5.541   1.601   1.334 -0.0271  0.4194 -0.1752
16099TIP3    H169712   5.575   1.517   1.365  0.0535  0.4687 -0.1313
16099TIP3    H269713   5.488   1.578   1.257  0.1423  0.3481 -0.2712
16100TIP3   OH269714   1.082   3.329  14.799  0.3542 -0.2893  0.0346
16100TIP3    H169715   1.150   3.271  14.833  0.0470 -1.9991 -2.1181
16100TIP3    H269716   1.046   3.372  14.877  1.8771 -1.5701  1.5018
16101TIP3   OH269717   5.830   2.461   2.431 -0.1938  0.0159  0.3673
16101TIP3    H169718   5.848   2.392   2.495 -1.4290 -1.0738 -0.4013
16101TIP3    H269719   5.917   2.487   2.399  0.2755 -2.3918 -0.5144
16102TIP3   OH269720   2.566   1.359   0.762  0.7047  0.3273  0.0167
16102TIP3    H169721   2.537   1.326   0.678  3.4480  0.1244 -0.9673
16102TIP3    H269722   2.555   1.454   0.756 -0.8056  0.1807  0.1807
16103TIP3   OH269723   6.325   4.258   3.425 -0.5724  0.2692  0.0119
16103TIP3    H169724   6.375   4.305   3.492 -1.6989  2.6249 -0.6999
16103TIP3    H269725   6.289   4.182   3.470  0.0008  0.9406  1.6500
16104TIP3   OH269726   0.452   1.013   5.408  0.3477 -0.2116 -0.5774
16104TIP3    H169727   0.422   1.073   5.340  0.3649  0.0506 -0.3552
16104TIP3    H269728   0.526   1.057   5.449 -0.3412  0.1349  0.3377
16105TIP3   OH269729   4.662   6.661   1.066  0.2135  0.1931  0.3646
16105TIP3    H169730   4.673   6.568   1.088  0.0103  0.2317  0.6311
16105TIP3    H269731   4.683   6.666   0.973  1.0172  0.0176  0.5290
16106TIP3   OH269732   5.913   2.592  13.062 -0.2383 -0.2344  0.0634
16106TIP3    H169733   5.957   2.618  13.144 -1.9449 -0.2693  1.0379
16106TIP3    H269734   5.930   2.498  13.055 -1.5721 -0.6108  1.3860
16107TIP3   OH269735   2.801   2.758   1.405 -0.0941 -0.1757 -0.0421
16107TIP3    H169736   2.734   2.770   1.472 -0.0375 -0.9006  0.1585
16107TIP3    H269737   2.788   2.668   1.375  0.4816 -0.1624 -0.3467
16108TIP3   OH269738   2.623   4.012   1.046 -0.1507 -0.1536 -0.2034
16108TIP3    H169739   2.666   4.040   1.126 -0.4204  1.2486 -0.5135
16108TIP3    H269740   2.619   3.917   1.052  1.4965 -0.1953  0.5705
16109TIP3   OH269741   6.481   2.927   3.015 -0.0444 -0.2497 -0.2299
16109TIP3    H169742   6.457   2.958   3.102  1.1272  0.2026 -0.0584
16109TIP3    H269743   6.455   2.834   3.015  0.1959 -0.3255  0.6900
16110TIP3   OH269744   6.140   5.653  15.183  0.3533 -0.6197 -0.2475
16110TIP3    H169745   6.147   5.722  15.116  0.5025 -0.1969  0.1998
16110TIP3    H269746   6.047   5.631  15.186 -0.1119  1.3116  1.3449
16111TIP3   OH269747   5.572   2.540   4.329  0.3358 -0.6717  0.4824
16111TIP3    H169748   5.483   2.543   4.363 -0.0998 -2.6699 -0.3455
16111TIP3    H269749   5.580   2.453   4.290  1.0899  0.9923 -3.5865
16112TIP3   OH269750   4.689   3.469  12.027 -0.1011 -0.1157  0.4083
16112TIP3    H169751   4.782   3.469  12.050 -0.0816  0.3249  0.3486
16112TIP3    H269752   4.672   3.382  11.992  0.3992 -0.0474 -0.0169
16113TIP3   OH269753   0.980   3.933  14.723  0.1666  0.4560  0.0530
16113TIP3    H169754   1.008   3.996  14.790 -0.3680  0.7721 -0.0170
16113TIP3    H269755   0.975   3.983  14.642  0.9969  0.0322 -0.2807
16114TIP3   OH269756   2.434   6.191  14.973 -0.0970  0.0862  0.1927
16114TIP3    H169757   2.413   6.248  14.899  1.0650 -1.4739 -1.4094
16114TIP3    H269758   2.352   6.185  15.023 -1.2405  0.3048 -1.5707
16115TIP3   OH269759   0.232   6.381   2.024  0.0773  0.3738  0.3252
16115TIP3    H169760   0.146   6.351   2.054 -0.3718 -0.5315 -1.6958
16115TIP3    H269761   0.241   6.468   2.061 -1.4258  0.2320  1.1175
16116TIP3   OH269762   0.169   5.590  14.919 -0.3868 -0.3906 -0.0021
16116TIP3    H169763   0.090   5.543  14.947 -0.7498 -0.3537 -0.9270
16116TIP3    H269764   0.149   5.682  14.937 -0.5565 -0.3830 -0.2150
16117TIP3   OH269765   5.230   4.835   2.677  0.2792 -0.4346 -0.5097
16117TIP3    H169766   5.227   4.889   2.598  0.6089 -0.9957 -0.9216
16117TIP3    H269767   5.313   4.787   2.669  0.3153 -0.5000  0.1807
16118TIP3   OH269768   0.486   5.494  15.685  0.0735 -0.3061  0.1544
16118TIP3    H169769   0.535   5.428  15.734  0.4103 -0.7443 -0.7587
16118TIP3    H269770   0.539   5.573  15.690 -0.0929 -0.2250  0.8282
16119TIP3   OH269771   1.359   0.193  14.704 -0.6308 -0.0287 -0.0504
16119TIP3    H169772   1.307   0.126  14.659 -0.8690 -0.5281  0.9368
16119TIP3    H269773   1.406   0.145  14.772 -0.9085  0.8193  0.7660
16120TIP3   OH269774   6.663   1.938   4.074  0.0088  0.5780 -0.0159
16120TIP3    H169775   6.750   1.900   4.066  0.1511  1.0217 -0.7789
16120TIP3    H269776   6.636   1.920   4.164  0.7453  0.1411  0.1243
16121TIP3   OH269777   3.371   3.876   4.470 -0.0024 -0.3827 -0.0987
16121TIP3    H169778   3.283   3.910   4.486  0.8710  1.2243  1.6743
16121TIP3    H269779   3.378   3.800   4.527  0.3711  0.6232  1.2405
16122TIP3   OH269780   2.219   4.678  15.988  0.2050 -0.1726  0.0503
16122TIP3    H169781   2.270   4.757  16.002  1.1616 -0.7532 -0.1029
16122TIP3    H269782   2.266   4.630  15.919  1.5338 -2.4377  2.3488
16123TIP3   OH269783   5.924   0.666  13.167 -0.1119 -0.2484  0.1755
16123TIP3    H169784   6.015   0.676  13.196 -0.1534  0.1273  0.1763
16123TIP3    H269785   5.873   0.667  13.248 -0.0853 -0.8307  0.2004
16124TIP3   OH269786   5.865   5.319   3.769 -0.5579 -0.0913  0.6194
16124TIP3    H169787   5.807   5.298   3.696  0.2106 -0.2963  0.0533
16124TIP3    H269788   5.892   5.233   3.803 -1.0760  0.0004  1.2889
16125TIP3   OH269789   1.968   5.757  12.608  0.5024  0.0085  0.4379
16125TIP3    H169790   2.004   5.732  12.694  1.4210  0.1938  0.1159
16125TIP3    H269791   1.874   5.768  12.624  0.2231 -2.4361  0.8671
16126TIP3   OH269792   0.686   6.442   1.181  0.0802 -0.3161 -0.2848
16126TIP3    H169793   0.722   6.364   1.223 -1.1680 -0.0752  1.3282
16126TIP3    H269794   0.761   6.483   1.138  1.3748 -0.7900  1.4173
16127TIP3   OH269795   3.181   3.134   0.498  0.1352 -0.1247  1.0586
16127TIP3    H169796   3.100   3.118   0.547 -0.3376 -0.5531  0.1556
16127TIP3    H269797   3.223   3.207   0.545 -0.7840  0.1206  1.5277
16128TIP3   OH269798   1.677   5.404   1.284  0.4129 -0.3120  0.7978
16128TIP3    H169799   1.655   5.352   1.207  0.2752 -1.6564  1.7061
16128TIP3    H269800   1.610   5.473   1.287 -0.9513 -1.6042  0.9655
16129TIP3   OH269801   0.987   6.394   0.189  0.6200  0.2555  0.4928
16129TIP3    H169802   0.968   6.301   0.181  3.9775 -0.4188 -2.2967
16129TIP3    H269803   0.984   6.411   0.284 -0.9248 -2.4195  1.0285
16130TIP3   OH269804   5.799   0.551  10.726  0.5416  0.0290  0.1323
16130TIP3    H169805   5.853   0.625  10.752  1.2784  0.4667 -2.3694
16130TIP3    H269806   5.858   0.476  10.729 -0.0697 -0.4265  2.1597
16131TIP3   OH269807   5.748   3.275   2.586 -0.5723  0.1868 -0.2036
16131TIP3    H169808   5.792   3.354   2.553 -1.4496  0.2850 -1.2015
16131TIP3    H269809   5.668   3.309   2.628 -0.1610 -0.0600  0.8227
16132TIP3   OH269810   1.197   2.907  14.973 -0.1371 -0.0106  0.3452
16132TIP3    H169811   1.230   2.931  15.060  1.8439 -0.5598 -0.2054
16132TIP3    H269812   1.238   2.823  14.954  1.5523  1.2384 -2.1360
16133TIP3   OH269813   5.299   0.766   0.661  0.0187 -0.4374  0.3295
16133TIP3    H169814   5.368   0.781   0.596 -2.3538  1.3387 -2.0528
16133TIP3    H269815   5.315   0.831   0.729 -0.0281  0.9223 -0.9053
16134TIP3   OH269816   4.818   6.036   5.768  0.1017  0.0177 -0.1695
16134TIP3    H169817   4.849   5.986   5.693 -1.8128 -1.6830  0.0837
16134TIP3    H269818   4.732   6.068   5.741 -0.4803 -0.3542  1.1585
16135TIP3   OH269819   1.263   5.411   4.156 -0.1751  0.5846 -0.4118
16135TIP3    H169820   1.176   5.372   4.168  1.1983 -2.2593  1.4663
16135TIP3    H269821   1.280   5.458   4.238  0.3979  0.3648 -0.4016
16136TIP3   OH269822   1.301   0.578  16.121 -0.6471  0.3686  0.3542
16136TIP3    H169823   1.233   0.631  16.079  0.1978 -0.4134 -2.1964
16136TIP3    H269824   1.261   0.492  16.133 -1.0656  0.7284  1.7947
16137TIP3   OH269825   0.101   4.311   5.710  0.1078  0.5107  0.1437
16137TIP3    H169826   0.150   4.330   5.631  0.2783 -2.9413 -0.7299
16137TIP3    H269827   0.021   4.362   5.702  0.5138  0.9026 -1.8148
16138TIP3   OH269828   0.834   4.964  16.394  0.3352  0.1663 -0.7632
16138TIP3    H169829   0.881   4.882  16.412  1.2057  0.6494 -0.7960
16138TIP3    H269830   0.764   4.938  16.333 -0.5924 -0.8857  0.6752
16139TIP3   OH269831   2.258   2.668   0.035 -0.2525 -0.2262  0.0896
16139TIP3    H169832   2.198   2.732  -0.003 -0.2583  1.6619  2.9837
16139TIP3    H269833   2.319   2.720   0.087  2.2457 -2.3143 -0.5647
16140TIP3   OH269834   0.255   6.471  14.622  0.1147  0.0219 -0.5041
16140TIP3    H169835   0.334   6.522  14.606  0.4006  0.4039  1.6978
16140TIP3    H269836   0.183   6.535  14.615  0.3053  0.3586  0.4349
16141TIP3   OH269837   1.859   2.447   2.647 -0.0265 -0.2690 -0.0243
16141TIP3    H169838   1.789   2.438   2.712 -2.0858  0.7899 -1.9499
16141TIP3    H269839   1.878   2.357   2.620 -0.6029 -0.5832  0.5907
16142TIP3   OH269840   4.836   4.140  13.184  0.2281  0.1117 -0.4011
16142TIP3    H169841   4.769   4.207  13.197 -2.6485 -1.8399 -3.4303
16142TIP3    H269842   4.915   4.189  13.160 -0.2645  2.4713  2.2649
16143TIP3   OH269843   0.048   0.228   4.992 -0.2213  0.3555 -0.2848
16143TIP3    H169844   0.054   0.232   5.087 -2.0897 -0.3180 -0.0924
16143TIP3    H269845   0.063   0.318   4.963 -0.1102  0.6589  0.6761
16144TIP3   OH269846   5.308   6.689  14.191 -0.1610 -0.5989  0.1734
16144TIP3    H169847   5.312   6.760  14.127 -0.9476  0.1016  0.8725
16144TIP3    H269848   5.346   6.613  14.146  1.2458  0.3991 -0.3902
16145TIP3   OH269849   5.956   2.364  13.710  0.0563  0.1627 -0.3768
16145TIP3    H169850   5.984   2.452  13.738 -1.4084  0.3625  0.5656
16145TIP3    H269851   5.869   2.378  13.673  0.5976 -0.6311 -2.0648
16146TIP3   OH269852   6.381   2.707  14.260  0.1363 -0.3689 -0.4227
16146TIP3    H169853   6.355   2.775  14.323 -0.9344  0.4240 -1.6623
16146TIP3    H269854   6.413   2.755  14.184  0.3890 -1.2793 -0.9089
16147TIP3   OH269855   5.875   1.616   4.972  0.0712 -0.0973 -0.5485
16147TIP3    H169856   5.868   1.625   5.067 -1.0242 -0.8846 -0.5321
16147TIP3    H269857   5.935   1.542   4.959 -0.1796 -0.3174 -0.4577
16148TIP3   OH269858   2.241   0.965  16.401  0.5099 -0.2343  0.0846
16148TIP3    H169859   2.282   0.879  16.394 -0.9378 -0.9736  0.2943
16148TIP3    H269860   2.157   0.948  16.444 -0.0492  1.2033 -0.3821
16149TIP3   OH269861   5.284   4.030  14.974 -0.0799 -0.6504 -0.4096
16149TIP3    H169862   5.201   4.079  14.973  1.4266  2.2398 -3.1322
16149TIP3    H269863   5.340   4.080  15.035  0.1481 -1.7204  0.2800
16150TIP3   OH269864   5.287   3.214   4.231  0.2247  0.4551  0.7742
16150TIP3    H169865   5.201   3.177   4.214  0.4681  0.1203  0.2371
16150TIP3    H269866   5.282   3.304   4.198  0.0888  0.4268  0.7168
16151TIP3   OH269867   1.694   6.013  12.685 -0.0983 -0.0874  0.3734
16151TIP3    H169868   1.710   6.061  12.604  0.6045 -0.4876  0.2644
16151TIP3    H269869   1.605   6.036  12.710  0.0258  0.8003  0.0120
16152TIP3   OH269870   0.767   1.282  14.288  0.2470  0.3092 -0.1616
16152TIP3    H169871   0.792   1.333  14.364  0.4559  0.2700 -0.2034
16152TIP3    H269872   0.830   1.210  14.285  0.9132  0.9005 -0.9847
16153TIP3   OH269873   0.049   5.168  11.435 -0.0082  0.3213 -0.3143
16153TIP3    H169874   0.144   5.178  11.434 -0.1037  4.1026 -4.7500
16153TIP3    H269875   0.031   5.100  11.371 -0.2958  0.3576 -0.2750
16154TIP3   OH269876   6.355   5.137   3.000 -1.0244  0.6149 -0.2437
16154TIP3    H169877   6.316   5.184   3.073 -1.5295  1.0214 -0.7723
16154TIP3    H269878   6.296   5.063   2.984 -0.9603  0.5726 -0.2884
16155TIP3   OH269879   5.339   4.130   5.747  0.3642 -0.5895  0.1351
16155TIP3    H169880   5.280   4.055   5.738 -2.0667  1.0828  0.9745
16155TIP3    H269881   5.361   4.132   5.840 -1.0338  0.6794  0.4767
16156TIP3   OH269882   4.308   1.217   0.537  0.1292  0.3175 -0.3326
16156TIP3    H169883   4.390   1.173   0.559  0.8310  0.9996 -1.4884
16156TIP3    H269884   4.333   1.309   0.523 -0.9396  0.6580 -0.0915
16157TIP3   OH269885   6.160   6.185  12.485 -0.1706  0.6548  0.3228
16157TIP3    H169886   6.096   6.135  12.536  1.2686 -1.5134  0.1116
16157TIP3    H269887   6.229   6.206  12.549 -0.4552  1.8655  0.2563
16158TIP3   OH269888   1.049   0.695  15.764  0.2278  0.6527 -0.1339
16158TIP3    H169889   1.118   0.653  15.713 -0.3046 -1.0087  0.4381
16158TIP3    H269890   0.991   0.623  15.790 -2.0879  2.0525 -1.1228
16159TIP3   OH269891   6.156   5.749   4.672  0.1652  0.2190  0.1449
16159TIP3    H169892   6.079   5.790   4.633  2.5515  2.6440 -2.5194
16159TIP3    H269893   6.186   5.686   4.607  1.7490  1.1067 -0.0488
16160TIP3   OH269894   0.419   2.298  13.151  0.6667  0.6697 -0.7192
16160TIP3    H169895   0.425   2.366  13.083  2.1528  1.3405  0.0352
16160TIP3    H269896   0.376   2.225  13.107 -0.3391  1.8182 -1.7658
16161TIP3   OH269897   0.008   5.652  15.195  0.1090  0.1760 -0.1415
16161TIP3    H169898   0.024   5.560  15.174 -0.0098 -0.0782  0.8372
16161TIP3    H269899  -0.058   5.650  15.264  1.0522  0.9219  0.8224
16162TIP3   OH269900   5.259   1.636   2.781 -0.0278  0.0784 -0.2791
16162TIP3    H169901   5.178   1.603   2.819  0.0907 -0.7786 -0.7355
16162TIP3    H269902   5.316   1.652   2.856 -0.8974  1.5095  0.1067
16163TIP3   OH269903   0.602   2.407  15.558 -0.7172  0.0936  0.0746
16163TIP3    H169904   0.512   2.376  15.559  0.0419 -2.5814  2.3971
16163TIP3    H269905   0.647   2.347  15.498 -0.3451  0.8670 -0.4209
16164TIP3   OH269906   3.122   3.576  11.755 -0.6559  0.9624 -0.1942
16164TIP3    H169907   3.122   3.480  11.763 -2.1014  0.9410 -0.2161
16164TIP3    H269908   3.178   3.593  11.679  1.6749  0.3324  1.2657
16165TIP3   OH269909   5.837   3.837   3.052 -0.0396  0.2612 -0.4293
16165TIP3    H169910   5.903   3.801   2.993  0.5883  1.2294 -0.3346
16165TIP3    H269911   5.806   3.762   3.102 -0.3389 -0.5145 -1.7404
16166TIP3   OH269912   5.682   5.186   0.317  0.1326  0.2025  0.1360
16166TIP3    H169913   5.682   5.274   0.355  0.9935  0.2195  0.1098
16166TIP3    H269914   5.589   5.164   0.308 -0.0987  0.4091  1.7684
16167TIP3   OH269915   4.217   2.607  15.867 -0.3157 -0.8037 -0.0970
16167TIP3    H169916   4.174   2.529  15.900 -0.0978 -0.3274  1.3664
16167TIP3    H269917   4.174   2.625  15.783 -1.1663 -1.8035  0.1143
16168TIP3   OH269918   3.470   1.849   0.113 -0.2832  0.0385  0.2098
16168TIP3    H169919   3.492   1.942   0.109 -0.5559  0.1124  0.4545
16168TIP3    H269920   3.374   1.847   0.108 -0.2394 -0.2705 -0.6368
16169TIP3   OH269921   1.109   3.113   3.249 -0.0912 -0.5749  0.0039
16169TIP3    H169922   1.142   3.165   3.322 -0.4373 -0.9276  0.4245
16169TIP3    H269923   1.175   3.121   3.181  0.3922 -0.5022  0.4777
16170TIP3   OH269924   2.049   1.848  14.395  0.1895 -0.1703  0.2557
16170TIP3    H169925   2.017   1.832  14.483 -1.5855 -0.2398 -0.3637
16170TIP3    H269926   2.101   1.770  14.373  1.0356  0.0573  1.3753
16171TIP3   OH269927   2.048   6.625  12.319 -0.0098 -0.3319 -0.3052
16171TIP3    H169928   2.003   6.648  12.238  0.2061 -1.7902 -0.8743
16171TIP3    H269929   2.007   6.543  12.347 -0.5364  0.4776  1.4483
16172TIP3   OH269930   6.142   3.021   2.578 -0.0584 -0.5451 -0.4622
16172TIP3    H169931   6.103   3.101   2.614  0.6292 -0.3670 -0.0912
16172TIP3    H269932   6.189   3.050   2.499  1.2418 -0.3450  0.3524
16173TIP3   OH269933   4.292   3.410  16.300  1.0088 -0.1978  0.0921
16173TIP3    H169934   4.249   3.409  16.385  0.2367 -1.2464 -0.2835
16173TIP3    H269935   4.370   3.464  16.312  0.5602  0.1988  1.2839
16174TIP3   OH269936   2.389   1.702  16.932 -0.0439  0.5861  0.2706
16174TIP3    H169937   2.473   1.700  16.886 -0.3318 -0.4544 -0.2317
16174TIP3    H269938   2.324   1.692  16.863 -0.5206 -0.0531  0.8038
16175TIP3   OH269939   5.588   1.357   5.425  0.0183  0.4603 -0.1605
16175TIP3    H169940   5.567   1.450   5.435 -2.3832  0.3517 -2.8445
16175TIP3    H269941   5.572   1.319   5.512 -0.6596  2.2802  0.5552
16176TIP3   OH269942   5.295   6.452  13.242  0.0641 -0.2462  0.6301
16176TIP3    H169943   5.387   6.475  13.234 -0.1331 -0.0343 -1.3940
16176TIP3    H269944   5.273   6.474  13.333  2.3197 -1.5797  1.6143
16177TIP3   OH269945   5.227   1.914   5.456 -0.5708  0.3282  0.0073
16177TIP3    H169946   5.234   1.977   5.527  0.6371 -0.0331  0.2292
16177TIP3    H269947   5.260   1.961   5.379  0.2031  0.0353  0.1464
16178TIP3   OH269948   3.612   1.883  16.835  0.3429 -0.1797 -0.4515
16178TIP3    H169949   3.684   1.947  16.834 -0.0717  0.3233  0.4210
16178TIP3    H269950   3.565   1.902  16.916 -1.5966  0.4256 -1.6541
16179TIP3   OH269951   1.178   0.267   5.876 -0.5420  0.7404  0.1010
16179TIP3    H169952   1.203   0.349   5.919  2.2801 -0.2535  0.5555
16179TIP3    H269953   1.258   0.236   5.835 -1.3948 -2.0020  0.2920
16180TIP3   OH269954   4.815   2.571  14.297  0.7223 -0.2683 -0.5651
16180TIP3    H169955   4.758   2.556  14.222 -2.1734  2.4732  0.8287
16180TIP3    H269956   4.790   2.505  14.361  0.5603 -0.3293 -0.6921
16181TIP3   OH269957   0.915   0.252   1.753 -0.9399  0.4326 -0.1508
16181TIP3    H169958   0.882   0.162   1.750  1.6018 -0.6027  0.4733
16181TIP3    H269959   0.877   0.293   1.676 -2.7018 -0.9639 -0.0895
16182TIP3   OH269960   4.946   5.908  17.134 -0.0169  0.5300 -0.3996
16182TIP3    H169961   5.029   5.902  17.181  1.1878  0.8994 -2.3595
16182TIP3    H269962   4.908   5.821  17.140  1.8849 -0.4741 -1.7722
16183TIP3   OH269963   3.910   2.972   6.006  0.9592  0.1709  0.0060
16183TIP3    H169964   4.004   2.990   6.009  1.4275 -1.4310 -2.3375
16183TIP3    H269965   3.871   3.053   5.974  1.5913  0.6470  0.4138
16184TIP3   OH269966   4.682   6.433  17.300 -0.7359 -0.1699  0.0065
16184TIP3    H169967   4.606   6.400  17.251 -0.3870  0.4266 -0.9792
16184TIP3    H269968   4.738   6.356  17.311 -1.8868 -0.8370  1.6020
16185TIP3   OH269969   4.688   2.151  11.355 -0.0180  0.8085 -0.0491
16185TIP3    H169970   4.755   2.095  11.318  1.5654  2.0994  0.7503
16185TIP3    H269971   4.681   2.224  11.293 -0.5566  0.7741 -0.0338
16186TIP3   OH269972   2.701   6.372  13.001 -0.2675  0.1896  0.7371
16186TIP3    H169973   2.675   6.377  13.093 -2.6441 -1.5178  0.2461
16186TIP3    H269974   2.679   6.283  12.975  0.5787  0.5622 -1.4497
16187TIP3   OH269975   4.562   4.133   3.547 -0.1602 -0.2375  0.1632
16187TIP3    H169976   4.615   4.054   3.540  0.7257  0.4006 -0.4969
16187TIP3    H269977   4.472   4.100   3.554 -0.0510 -1.2926 -2.3166
16188TIP3   OH269978   3.408   2.814   1.060  0.2073 -0.5306 -0.2679
16188TIP3    H169979   3.358   2.746   1.016  0.3825  0.6985 -2.4730
16188TIP3    H269980   3.358   2.895   1.047  0.0689 -0.1278  2.1723
16189TIP3   OH269981   6.562   0.393   0.480 -0.4459  0.3590 -0.8810
16189TIP3    H169982   6.497   0.327   0.503  0.8976 -1.0148 -0.8866
16189TIP3    H269983   6.564   0.391   0.384 -0.5899  0.6128 -0.8909
16190TIP3   OH269984   5.678   4.593  14.611 -0.1373 -0.1444 -0.2665
16190TIP3    H169985   5.699   4.686  14.601 -1.2432  0.0548 -0.9187
16190TIP3    H269986   5.635   4.587  14.696  0.2316 -0.1175 -0.0770
16191TIP3   OH269987   0.663   3.577   4.186  0.4723  0.3493  0.4285
16191TIP3    H169988   0.621   3.535   4.112  2.1866 -0.5719 -0.0906
16191TIP3    H269989   0.757   3.566   4.170  0.9101  0.6522  2.4210
16192TIP3   OH269990   0.375   5.739   6.115 -0.0517  0.3122  0.5259
16192TIP3    H169991   0.420   5.655   6.120  1.1993  0.8847 -0.7727
16192TIP3    H269992   0.284   5.718   6.137  0.3327 -1.2918  0.6975
16193TIP3   OH269993   3.044   5.997   6.220  0.3205 -0.1007  0.2072
16193TIP3    H169994   2.981   6.062   6.251  1.0459  0.2200  1.0262
16193TIP3    H269995   3.013   5.914   6.257 -0.8883 -0.3515 -1.2390
16194TIP3   OH269996   3.967   4.593  12.103  0.1372 -0.3647  0.0835
16194TIP3    H169997   4.014   4.661  12.054 -3.0384 -0.3709 -3.3516
16194TIP3    H269998   3.878   4.627  12.113 -0.7804 -2.7859  0.9524
16195TIP3   OH269999   0.998   1.353  15.814  0.1210  1.0124  0.0815
16195TIP3    H170000   1.057   1.297  15.865  0.5504  0.4362 -1.0074
16195TIP3    H270001   0.926   1.373  15.874 -0.1174 -0.8434  0.4762
16196TIP3   OH270002   0.236   0.216   5.589 -0.1545 -0.2384 -0.2010
16196TIP3    H170003   0.304   0.159   5.625  0.4988 -0.5109 -1.7990
16196TIP3    H270004   0.246   0.299   5.637  0.4433 -0.6985  0.4829
16197TIP3   OH270005   5.378   1.574  12.405 -0.2731 -0.5100 -0.8219
16197TIP3    H170006   5.384   1.526  12.323  0.4319 -1.3725 -0.2832
16197TIP3    H270007   5.436   1.649  12.393  0.1649 -0.8690 -0.9515
16198TIP3   OH270008   0.601   1.890   0.249  0.4996 -1.2358  0.0433
16198TIP3    H170009   0.516   1.920   0.217 -0.7973 -1.2121  3.1794
16198TIP3    H270010   0.652   1.970   0.261 -0.8658 -0.6864  2.8020
16199TIP3   OH270011   1.615   5.452   4.570 -0.1113  0.0125  0.4136
16199TIP3    H170012   1.547   5.459   4.503  2.1829  0.8720 -1.9895
16199TIP3    H270013   1.619   5.539   4.609  0.4717  0.3695 -0.4062
16200TIP3   OH270014   1.112   3.853   0.269  0.5503 -0.1698  0.1247
16200TIP3    H170015   1.057   3.818   0.199  1.3208  0.1372 -0.6539
16200TIP3    H270016   1.201   3.846   0.235  1.1779 -2.1340  1.9814
16201TIP3   OH270017   6.092   2.203   5.643 -0.1193  0.1958 -0.0758
16201TIP3    H170018   6.176   2.248   5.647 -0.2877  0.8250 -2.4600
16201TIP3    H270019   6.031   2.264   5.685 -0.1545  1.8575 -2.3560
16202TIP3   OH270020   1.841   2.214   2.467 -0.1484  0.4869 -0.2371
16202TIP3    H170021   1.892   2.243   2.391 -1.7861  1.2551 -1.0998
16202TIP3    H270022   1.804   2.130   2.440  1.5371 -0.6616  0.8334
16203TIP3   OH270023   1.745   5.614  15.541 -0.5049 -0.2721 -0.1598
16203TIP3    H170024   1.727   5.520  15.538 -0.7948 -0.2814  1.1957
16203TIP3    H270025   1.830   5.623  15.499 -0.7078 -1.0718 -0.7773
16204TIP3   OH270026   5.559   5.452   0.836  0.1538  0.3039 -0.5661
16204TIP3    H170027   5.538   5.407   0.917 -0.4226  1.4792 -0.0350
16204TIP3    H270028   5.605   5.531   0.864  0.3860  0.4872 -1.4185
16205TIP3   OH270029   0.957   1.824  15.339 -0.1915 -0.1238  0.1081
16205TIP3    H170030   1.033   1.861  15.385  0.6218 -0.5962 -0.8341
16205TIP3    H270031   0.882   1.857  15.388  0.5576  1.5317  0.2198
16206TIP3   OH270032   4.480   0.671  16.920 -0.3116  0.3201  0.2780
16206TIP3    H170033   4.511   0.754  16.884  0.5061  0.3507  1.0388
16206TIP3    H270034   4.395   0.657  16.877  0.2810  0.7206 -1.0939
16207TIP3   OH270035   3.273   0.914  11.705  0.1581 -0.1679 -0.2853
16207TIP3    H170036   3.274   0.957  11.619  3.2763 -0.3825 -0.4734
16207TIP3    H270037   3.244   0.982  11.765 -1.4412  0.1749 -1.3740
16208TIP3   OH270038   1.438   1.208  14.064 -0.2951 -0.0080  0.1029
16208TIP3    H170039   1.361   1.261  14.044  0.4812  0.9373 -0.5290
16208TIP3    H270040   1.506   1.243  14.006  1.6817  1.7832  3.2460
16209TIP3   OH270041   3.331   0.549   5.372  0.4322  0.1138  0.2123
16209TIP3    H170042   3.293   0.634   5.348 -0.3422 -0.2396  0.1323
16209TIP3    H270043   3.422   0.554   5.343  1.1771  1.8804  2.4859
16210TIP3   OH270044   3.422   2.522  16.317  0.1275 -0.5567  0.0675
16210TIP3    H170045   3.496   2.506  16.375 -0.0493  0.1888  0.5113
16210TIP3    H270046   3.462   2.540  16.232  0.5066  0.3857  0.4235
16211TIP3   OH270047   2.112   3.649  14.781 -0.1356 -0.4948  0.0563
16211TIP3    H170048   2.077   3.649  14.692  0.3559  0.5504 -0.1475
16211TIP3    H270049   2.198   3.689  14.773  0.1087 -0.8187  0.9356
16212TIP3   OH270050   0.419   4.626  13.861 -0.0250 -0.3062 -0.4521
16212TIP3    H170051   0.329   4.657  13.854 -0.7460 -1.7510  1.5472
16212TIP3    H270052   0.472   4.701  13.833 -1.8023  0.7478 -1.1766
16213TIP3   OH270053   6.710   5.027   0.055  0.2542  0.0392 -0.4096
16213TIP3    H170054   6.680   5.043  -0.034 -1.2260  1.1553  0.2371
16213TIP3    H270055   6.805   5.015   0.047 -0.0356 -1.4024 -2.2830
16214TIP3   OH270056   6.077   5.663  12.347 -0.0741 -0.2583  0.2449
16214TIP3    H170057   6.112   5.577  12.328  1.5819  0.5105 -0.3118
16214TIP3    H270058   6.040   5.655  12.436  3.4920 -0.6058  1.8666
16215TIP3   OH270059   1.513   1.446   4.056 -0.6283 -0.2419 -0.4536
16215TIP3    H170060   1.597   1.432   4.100 -0.5754  0.4491 -0.3298
16215TIP3    H270061   1.521   1.532   4.016 -0.2502 -1.2900 -2.8024
16216TIP3   OH270062   2.908   2.513  10.772 -0.4507 -0.6252  0.4544
16216TIP3    H170063   2.931   2.480  10.859 -0.4928  1.7222  1.4176
16216TIP3    H270064   2.972   2.473  10.714 -1.2032 -3.2713  1.3130
16217TIP3   OH270065   5.405   5.039   0.731  0.1385  0.0408  0.3231
16217TIP3    H170066   5.314   5.039   0.762 -0.5717 -2.1259 -1.4424
16217TIP3    H270067   5.399   5.006   0.641  2.6382  0.4609 -0.0642
16218TIP3   OH270068   0.878   4.742   1.853 -0.4275 -0.2759  0.1882
16218TIP3    H170069   0.812   4.789   1.903  1.0552  2.0196  0.1268
16218TIP3    H270070   0.843   4.739   1.764 -0.7662  0.2856  0.2974
16219TIP3   OH270071   5.198   0.116  15.869  0.1836  0.0761  0.5030
16219TIP3    H170072   5.221   0.045  15.929  1.0400  0.4471  0.6398
16219TIP3    H270073   5.151   0.180  15.923  2.6108  1.3127  1.3105
16220TIP3   OH270074   4.667   5.146   3.645 -0.1819 -0.3246  0.2111
16220TIP3    H170075   4.709   5.088   3.709 -0.1273  2.2042  2.6329
16220TIP3    H270076   4.712   5.230   3.655 -1.2333  0.5980 -2.1181
16221TIP3   OH270077   4.271   4.601  14.547 -0.2685 -0.5714 -0.0677
16221TIP3    H170078   4.275   4.544  14.470 -1.0690 -1.1842  0.3286
16221TIP3    H270079   4.256   4.541  14.620  0.7693 -0.0268  0.6169
16222TIP3   OH270080   3.085   6.732  14.136 -0.3006  0.0763  0.0533
16222TIP3    H170081   3.121   6.690  14.214 -1.4402 -2.8479 -0.8509
16222TIP3    H270082   3.151   6.718  14.068 -1.1188 -1.3059 -0.5055
16223TIP3   OH270083   1.205   4.990   2.713  0.4526 -0.5550  0.2656
16223TIP3    H170084   1.140   4.932   2.753 -1.5123  2.2731  1.5803
16223TIP3    H270085   1.154   5.048   2.656  2.1241  0.5179 -0.2230
16224TIP3   OH270086   0.703   2.610   1.977 -0.2779 -0.3468 -0.2607
16224TIP3    H170087   0.690   2.704   1.964 -1.2253 -0.6702 -1.8732
16224TIP3    H270088   0.614   2.575   1.991  0.2139 -0.7629  2.5015
16225TIP3   OH270089   4.625   5.754  13.081  0.1373  0.1054  0.3534
16225TIP3    H170090   4.602   5.815  13.152 -0.8649  0.5359 -0.3141
16225TIP3    H270091   4.634   5.810  13.004  1.9144 -0.2665  0.2434
16226TIP3   OH270092   4.392   3.025   4.405  0.3663 -0.7171  0.4272
16226TIP3    H170093   4.328   2.996   4.340  0.4149 -0.3129  0.1963
16226TIP3    H270094   4.385   2.961   4.476  1.3198 -2.0352 -0.5948
16227TIP3   OH270095   0.032   5.424  16.851 -0.4858 -0.3877 -0.3808
16227TIP3    H170096   0.024   5.500  16.795 -0.4459 -1.6829 -2.2255
16227TIP3    H270097  -0.010   5.450  16.934 -0.1615  1.7057 -0.8366
16228TIP3   OH270098   5.696   0.191  12.815  0.5073 -0.7525  0.6723
16228TIP3    H170099   5.680   0.140  12.735  0.2245  0.5130 -0.1104
16228TIP3    H270100   5.609   0.206  12.852  0.1713  2.0811 -1.0090
16229TIP3   OH270101   1.183   4.122  17.236 -0.1950 -0.0639  0.3559
16229TIP3    H170102   1.095   4.133  17.201  0.9234  1.5847 -2.2643
16229TIP3    H270103   1.194   4.196  17.297 -0.1064  0.6749 -0.5415
16230TIP3   OH270104   4.652   1.079  11.493  0.6261 -0.4714 -0.0852
16230TIP3    H170105   4.579   1.139  11.480 -0.2064 -1.5080 -0.2398
16230TIP3    H270106   4.675   1.089  11.585 -0.4354 -0.9609  0.2345
16231TIP3   OH270107   3.569   5.633   1.323 -0.1004  0.5513 -0.1116
16231TIP3    H170108   3.532   5.554   1.283 -1.2870  0.0846  1.7796
16231TIP3    H270109   3.660   5.610   1.342  0.0745  0.2951 -1.2148
16232TIP3   OH270110   4.374   6.307  12.667  0.3258 -0.0731  0.1579
16232TIP3    H170111   4.334   6.363  12.734  1.6392  0.8143  0.2273
16232TIP3    H270112   4.410   6.368  12.603  0.5089 -0.8796 -0.5245
16233TIP3   OH270113   4.570   1.704  15.799  0.3303  0.0933  0.1100
16233TIP3    H170114   4.660   1.709  15.831  0.9341  2.5984 -1.6967
16233TIP3    H270115   4.552   1.791  15.764 -2.3959 -0.7011 -0.6938
16234TIP3   OH270116   2.078   3.978  14.341  0.0642 -0.0479 -0.7603
16234TIP3    H170117   2.001   3.932  14.308 -1.5188  2.4366 -0.8328
16234TIP3    H270118   2.118   4.017  14.263  0.0188  0.5860 -0.4764
16235TIP3   OH270119   4.036   1.061  12.503 -0.5014 -0.3496 -0.2380
16235TIP3    H170120   3.979   0.991  12.468 -0.5390 -0.3454 -0.1853
16235TIP3    H270121   4.012   1.066  12.596 -1.8580  1.0220 -0.6164
16236TIP3   OH270122   4.708   2.734  12.796 -0.8295 -0.2623  0.0397
16236TIP3    H170123   4.762   2.724  12.874 -0.2768  1.5666 -0.0619
16236TIP3    H270124   4.770   2.727  12.723 -0.9524  0.2931 -0.1296
16237TIP3   OH270125   5.888   3.048  15.272 -0.8949  0.4992  0.1550
16237TIP3    H170126   5.907   3.002  15.191 -2.1184 -1.1564  0.7534
16237TIP3    H270127   5.916   2.987  15.341 -0.8414  1.4356  0.9864
16238TIP3   OH270128   2.406   4.836   0.606 -0.2572 -0.0302  0.0440
16238TIP3    H170129   2.318   4.869   0.624 -0.0423  1.5836 -1.4942
16238TIP3    H270130   2.432   4.883   0.527  2.6528  0.8126  1.3843
16239TIP3   OH270131   1.528   1.204  15.149  0.2349 -0.3418 -0.2129
16239TIP3    H170132   1.589   1.277  15.160  0.2820 -0.1709 -1.4500
16239TIP3    H270133   1.502   1.181  15.238  0.5743  0.8876  0.2306
16240TIP3   OH270134   2.868   0.036   2.432 -0.0786 -0.1002  0.2000
16240TIP3    H170135   2.796  -0.024   2.414 -0.4534  0.4436 -0.1418
16240TIP3    H270136   2.946  -0.019   2.432 -0.5033 -0.7256  0.7322
16241TIP3   OH270137   6.660   3.415   0.466  0.4954  0.2263  0.1039
16241TIP3    H170138   6.720   3.371   0.527  0.5290 -1.0019 -0.7691
16241TIP3    H270139   6.683   3.379   0.381 -0.4444  0.9174 -0.4537
16242TIP3   OH270140   0.317   4.738  12.284  0.3984  0.4229 -0.0302
16242TIP3    H170141   0.263   4.754  12.207  0.5883 -0.2360 -0.3094
16242TIP3    H270142   0.363   4.656  12.264 -0.5304 -0.4686  1.3082
16243TIP3   OH270143   2.689   2.144  12.933  0.1743  0.2890 -0.2619
16243TIP3    H170144   2.685   2.048  12.941  0.7726  0.2409 -0.4665
16243TIP3    H270145   2.703   2.159  12.840  0.7248  0.5508 -0.1386
16244TIP3   OH270146   5.681   2.297  13.136  0.0201 -0.0888 -0.1684
16244TIP3    H170147   5.691   2.227  13.073  1.1587 -0.4647  0.4110
16244TIP3    H270148   5.591   2.329  13.122  0.2210 -0.1906 -1.9066
16245TIP3   OH270149   6.690   0.167  16.549 -0.1731 -0.2925 -0.2248
16245TIP3    H170150   6.603   0.161  16.588 -0.0013  1.7651  0.6317
16245TIP3    H270151   6.750   0.165  16.624  0.4851 -1.0343 -0.7605
16246TIP3   OH270152   1.762   6.555   1.582  0.2036 -0.2362 -0.3587
16246TIP3    H170153   1.715   6.472   1.576 -0.4620  0.0540  0.6374
16246TIP3    H270154   1.847   6.538   1.541 -0.0103 -1.3402 -0.3586
16247TIP3   OH270155   3.662   3.432  12.604  0.5205 -0.0760  0.1686
16247TIP3    H170156   3.600   3.446  12.532  0.4292 -0.9011  0.0739
16247TIP3    H270157   3.618   3.369  12.661  1.8528 -1.8237 -0.6484
16248TIP3   OH270158   3.913   4.110  16.794  0.1392 -0.2251  0.7541
16248TIP3    H170159   3.871   4.042  16.741  0.5423 -0.8100  1.1742
16248TIP3    H270160   3.954   4.168  16.730 -1.7666  0.6883  0.2948
16249TIP3   OH270161   3.926   2.487  12.120  1.2319  0.3950 -0.2229
16249TIP3    H170162   4.010   2.523  12.090  1.1783 -0.3931 -1.3791
16249TIP3    H270163   3.862   2.556  12.101  1.9517  2.3630  3.5595
16250TIP3   OH270164   5.891   0.683  15.311  0.0917  0.1290  0.2704
16250TIP3    H170165   5.921   0.594  15.325 -1.3208 -0.5584 -0.8394
16250TIP3    H270166   5.952   0.719  15.246  1.0204  0.2112  1.1542
16251TIP3   OH270167   4.515   1.158  13.214  0.0447  0.4409  0.2240
16251TIP3    H170168   4.494   1.172  13.121  0.1409 -0.7712  0.0076
16251TIP3    H270169   4.441   1.109  13.249  0.2243  0.4840  0.6731
16252TIP3   OH270170   2.596   1.097   3.724 -0.0020  0.3140  0.3649
16252TIP3    H170171   2.572   1.021   3.776 -2.2017  0.7290  0.0734
16252TIP3    H270172   2.644   1.062   3.650  1.1323 -0.5166  1.4599
16253TIP3   OH270173   2.655   3.494   1.056 -0.1132  0.2056 -0.3142
16253TIP3    H170174   2.660   3.440   1.135  0.0312 -0.2857 -0.6564
16253TIP3    H270175   2.734   3.473   1.007 -1.2538 -1.2263 -1.6697
16254TIP3   OH270176   5.693   6.442   1.101 -0.0466  0.2089 -0.3698
16254TIP3    H170177   5.700   6.443   1.197  0.7044 -0.6847 -0.4051
16254TIP3    H270178   5.599   6.455   1.085 -0.3174 -0.4448  0.5218
16255TIP3   OH270179   5.530   1.079  11.235  0.6188  0.3233 -0.7454
16255TIP3    H170180   5.564   1.125  11.311 -0.9234  1.4880 -0.7194
16255TIP3    H270181   5.471   1.012  11.271  0.1200  0.6780 -0.8848
16256TIP3   OH270182   5.135   4.526  16.112  0.1598 -0.0400 -0.7817
16256TIP3    H170183   5.185   4.538  16.193  0.0927  1.6703 -0.9523
16256TIP3    H270184   5.068   4.594  16.116 -0.1567 -0.2703 -2.0303
16257TIP3   OH270185   4.810   6.709  17.354 -0.0227 -0.0261  0.3281
16257TIP3    H170186   4.768   6.624  17.366  1.8674 -1.2266 -0.9974
16257TIP3    H270187   4.900   6.696  17.382  0.1173  1.7784  0.8235
16258TIP3   OH270188   0.058   2.682  14.873  0.8372  0.9219 -0.1883
16258TIP3    H170189  -0.024   2.640  14.847  1.7924 -1.7369  0.7092
16258TIP3    H270190   0.097   2.713  14.792  0.8256 -1.5204 -1.2019
16259TIP3   OH270191   0.194   0.040   0.365  0.0834 -0.5190 -0.8610
16259TIP3    H170192   0.199   0.020   0.458  1.1373  1.0801 -0.5545
16259TIP3    H270193   0.101   0.059   0.350 -0.1998 -1.3680 -0.2914
16260TIP3   OH270194   5.247   6.674  17.284  0.2957 -0.4267  0.0175
16260TIP3    H170195   5.331   6.667  17.330  0.0977 -0.6657  0.3484
16260TIP3    H270196   5.181   6.658  17.352 -0.0557  0.6786 -0.0363
16261TIP3   OH270197   2.099   6.163   4.130 -0.9568 -0.3201 -0.0120
16261TIP3    H170198   2.134   6.096   4.189  0.0072  0.0632 -0.1165
16261TIP3    H270199   2.050   6.114   4.064 -0.1605 -0.9506 -0.1611
16262TIP3   OH270200   2.981   5.955   2.979 -0.1188 -0.2602  0.3893
16262TIP3    H170201   3.015   6.028   3.032  2.3310  0.0557 -1.4441
16262TIP3    H270202   2.971   5.883   3.041 -1.9107  1.3554  2.1150
16263TIP3   OH270203   0.682   4.082   3.221 -0.1218  0.4343 -0.1684
16263TIP3    H170204   0.594   4.055   3.194 -0.2394 -1.2508  1.7238
16263TIP3    H270205   0.722   4.116   3.140 -2.5266  1.4476 -1.0372
16264TIP3   OH270206   1.193   0.963   3.456  0.3467 -0.2446 -0.1177
16264TIP3    H170207   1.252   1.032   3.426 -0.0320 -0.8763 -2.5633
16264TIP3    H270208   1.250   0.887   3.468  0.4947  0.0010  0.7722
16265TIP3   OH270209   3.796   3.314  13.996 -0.0856 -0.3078 -0.4676
16265TIP3    H170210   3.784   3.303  13.902  0.4393 -0.7453 -0.4879
16265TIP3    H270211   3.882   3.277  14.014  0.5212  1.2084 -0.0671
16266TIP3   OH270212   2.706   4.279   4.172  0.2417 -0.6410 -0.2455
16266TIP3    H170213   2.790   4.290   4.127 -0.7282 -0.0375 -1.9995
16266TIP3    H270214   2.729   4.245   4.258  2.4752  1.7072  0.2118
16267TIP3   OH270215   3.401   4.508  13.327  0.3368  0.3050 -0.0687
16267TIP3    H170216   3.345   4.546  13.395  0.7509 -0.5594  0.7699
16267TIP3    H270217   3.368   4.547  13.245 -0.2026  1.3216  0.6018
16268TIP3   OH270218   5.932   0.934   3.260  0.1930 -0.0958  0.1700
16268TIP3    H170219   5.884   0.861   3.300 -0.5588 -1.3300 -2.6876
16268TIP3    H270220   6.024   0.907   3.264 -0.0259 -0.9871 -0.3213
16269TIP3   OH270221   6.440   5.178  15.692 -0.3839 -0.3459  0.4136
16269TIP3    H170222   6.354   5.136  15.685 -0.0093 -0.8481 -3.1816
16269TIP3    H270223   6.497   5.110  15.727 -1.0142 -0.7358  0.7072
16270TIP3   OH270224   0.718   3.380   1.703 -1.0703  0.3400  0.2783
16270TIP3    H170225   0.772   3.308   1.735  0.2110  0.5878 -1.2329
16270TIP3    H270226   0.780   3.446   1.673 -2.1895  0.9052 -0.9066
16271TIP3   OH270227   0.880   4.670  14.222 -0.4172 -0.4357 -0.2441
16271TIP3    H170228   0.898   4.755  14.261  1.3308  0.0685 -1.9987
16271TIP3    H270229   0.803   4.685  14.167  0.1360  0.1337 -0.8730
16272TIP3   OH270230   4.267   3.506   0.865 -0.1974  0.5306  0.0872
16272TIP3    H170231   4.249   3.443   0.935 -1.3855 -0.0960 -0.7364
16272TIP3    H270232   4.204   3.576   0.879  1.1063  1.5637  0.9834
16273TIP3   OH270233   5.932   5.376  14.069  0.3867  0.2887  0.1160
16273TIP3    H170234   5.860   5.437  14.087 -0.7492 -0.6371 -1.1419
16273TIP3    H270235   5.960   5.397  13.980  0.4269 -0.5705 -0.0814
16274TIP3   OH270236   1.864   3.026  16.658  1.1819 -0.3914 -0.2960
16274TIP3    H170237   1.956   3.046  16.640  0.8304  1.9075  0.1008
16274TIP3    H270238   1.816   3.071  16.588  0.2846 -0.0295  0.5390
16275TIP3   OH270239   2.352   0.855   4.171  0.2655  0.2533  0.2482
16275TIP3    H170240   2.444   0.831   4.182 -0.0972 -1.4111 -0.0320
16275TIP3    H270241   2.309   0.823   4.251 -0.1602  0.4274  0.0922
16276TIP3   OH270242   3.929   3.559  13.975  0.1058 -0.4722 -0.0045
16276TIP3    H170243   3.891   3.616  13.909 -0.5490  1.4789  1.9379
16276TIP3    H270244   3.864   3.490  13.987  0.2268 -0.8525 -1.3170
16277TIP3   OH270245   4.878   1.269  15.420 -0.0538 -0.7652 -0.1541
16277TIP3    H170246   4.948   1.226  15.468 -0.6360 -0.3454  1.1012
16277TIP3    H270247   4.842   1.200  15.363  1.5816 -0.8910 -1.1046
16278TIP3   OH270248   1.881   5.179   1.116 -0.1970 -0.1717  0.1968
16278TIP3    H170249   1.924   5.117   1.175 -0.0221  0.1983  0.4616
16278TIP3    H270250   1.795   5.194   1.155  0.2355  0.7383  0.8449
16279TIP3   OH270251   0.301   4.874   3.373 -0.6116 -0.0552 -0.2138
16279TIP3    H170252   0.211   4.845   3.386  0.7466 -3.7202  2.6359
16279TIP3    H270253   0.335   4.817   3.304  0.1444 -0.3182  0.3646
16280TIP3   OH270254   3.497   5.036   0.228 -0.6383  0.4100  0.0642
16280TIP3    H170255   3.494   5.121   0.272 -0.8048  0.3623  0.1472
16280TIP3    H270256   3.500   4.973   0.299  0.4720  0.3704  0.0046
16281TIP3   OH270257   4.001   3.403  12.563 -0.0934 -0.0459  0.1788
16281TIP3    H170258   3.937   3.455  12.515  0.3850 -0.6721 -1.1997
16281TIP3    H270259   3.959   3.385  12.647 -0.0698  2.9396  0.9298
16282TIP3   OH270260   3.427   2.059  12.742 -0.1562  1.2182  0.1594
16282TIP3    H170261   3.505   2.018  12.779 -0.3734 -0.1460 -0.7973
16282TIP3    H270262   3.451   2.150  12.729  1.1233  0.9223  0.3248
16283TIP3   OH270263   2.027   6.015   5.814 -0.3674 -0.2793 -0.0773
16283TIP3    H170264   2.081   6.094   5.817  0.5033 -0.7758 -1.5761
16283TIP3    H270265   1.967   6.030   5.740  1.5670 -2.0385 -2.1333
16284TIP3   OH270266   2.990   0.007  16.506 -0.4854 -0.1471 -0.8056
16284TIP3    H170267   2.896  -0.011  16.516 -0.5599  1.3731  2.8864
16284TIP3    H270268   3.033  -0.070  16.545 -0.1923 -0.4734 -1.7525
16285TIP3   OH270269   0.122   4.737   6.212  0.5128 -0.1668 -0.8125
16285TIP3    H170270   0.104   4.759   6.120  0.1815 -1.1521 -0.9918
16285TIP3    H270271   0.121   4.641   6.215  2.6532 -0.2226 -0.1893
16286TIP3   OH270272   0.963   3.676   0.063  0.8715 -0.2839 -0.1113
16286TIP3    H170273   0.894   3.622   0.023 -0.9595  2.9934 -1.8339
16286TIP3    H270274   1.036   3.671   0.002  0.7058 -0.7703 -0.2761
16287TIP3   OH270275   6.121   6.047   0.612 -0.3053  0.2492 -0.0101
16287TIP3    H170276   6.189   6.016   0.672 -2.4418  1.3417  3.2559
16287TIP3    H270277   6.155   6.129   0.577  0.0784  0.9156  1.7812
16288TIP3   OH270278   3.300   1.767  16.058 -0.2762  0.4232  0.2144
16288TIP3    H170279   3.226   1.709  16.040 -0.4198  0.7671 -0.3562
16288TIP3    H270280   3.376   1.710  16.059 -0.3194  0.3119 -1.1046
16289TIP3   OH270281   6.683   2.464  12.095  0.5480  0.7308 -0.2616
16289TIP3    H170282   6.709   2.387  12.045 -0.9990  0.0150 -0.0143
16289TIP3    H270283   6.587   2.458  12.101  0.4034  2.5492 -0.0473
16290TIP3   OH270284   0.680   1.525   1.072  0.5756  0.5061 -0.4024
16290TIP3    H170285   0.683   1.430   1.061  1.6770  0.5720 -0.8291
16290TIP3    H270286   0.605   1.553   1.019  0.3203 -0.1084 -0.3758
16291TIP3   OH270287   4.566   4.238  15.967  0.2378 -0.3706  0.1673
16291TIP3    H170288   4.585   4.200  16.053 -2.1762 -1.2030  0.4190
16291TIP3    H270289   4.573   4.165  15.906  3.1320  0.4504 -0.6260
16292TIP3   OH270290   4.318   5.541  12.847  0.1885  0.3412  0.1580
16292TIP3    H170291   4.356   5.511  12.764  0.3570 -1.9338  0.9741
16292TIP3    H270292   4.234   5.581  12.822  0.1431 -0.4720 -1.1141
16293TIP3   OH270293   5.713   2.457   2.774 -0.1243  0.2166  0.0454
16293TIP3    H170294   5.729   2.392   2.842 -2.9244 -0.5934  0.0609
16293TIP3    H270295   5.800   2.481   2.742  1.0860 -2.1091  1.3651
16294TIP3   OH270296   0.880   3.340  15.226 -0.4091 -0.1571 -0.0393
16294TIP3    H170297   0.901   3.308  15.314 -0.5249  0.7841  0.3407
16294TIP3    H270298   0.789   3.314  15.212 -0.5856  0.2291  0.3725
16295TIP3   OH270299   3.385   0.807   0.873 -0.0904 -0.2260 -0.2796
16295TIP3    H170300   3.294   0.782   0.883 -0.2589  0.6419  0.4808
16295TIP3    H270301   3.428   0.777   0.954  0.5385 -1.5701 -1.0721
16296TIP3   OH270302   4.571   1.732   5.180 -1.2432 -0.1718 -0.2752
16296TIP3    H170303   4.550   1.768   5.094 -0.4457 -0.7854 -0.7421
16296TIP3    H270304   4.666   1.721   5.179 -1.3243 -1.0302  0.3403
16297TIP3   OH270305   2.935   1.128   5.441  0.5632 -0.4351 -0.5676
16297TIP3    H170306   2.970   1.208   5.402 -0.1290 -0.0507 -0.4163
16297TIP3    H270307   2.846   1.151   5.467  0.6909 -0.9697  0.3783
16298TIP3   OH270308   4.968   5.707   4.099  0.5460 -0.2371 -0.5727
16298TIP3    H170309   5.057   5.732   4.076  0.0525  2.4757  0.1790
16298TIP3    H270310   4.974   5.679   4.191  0.3383  2.1292  0.2252
16299TIP3   OH270311   4.635   5.458  17.209  0.0870  0.0620  0.2470
16299TIP3    H170312   4.632   5.386  17.272  1.1709 -1.0159 -0.8803
16299TIP3    H270313   4.547   5.494  17.210 -0.2350 -0.6864  1.5018
16300TIP3   OH270314   5.888   5.196  13.554 -0.6971 -0.4532  0.1322
16300TIP3    H170315   5.942   5.153  13.621  0.3201 -0.5804 -0.7364
16300TIP3    H270316   5.812   5.229  13.602 -0.1474 -0.8144  1.2964
16301TIP3   OH270317   1.027   0.849   0.534  0.3288  0.0203 -0.0477
16301TIP3    H170318   1.012   0.915   0.602 -0.3521 -1.7225  1.6043
16301TIP3    H270319   0.942   0.841   0.489  0.1442 -0.3420  0.3554
16302TIP3   OH270320   0.146   1.567  13.293  0.0271  0.0315  0.2344
16302TIP3    H170321   0.224   1.525  13.329 -0.6622 -2.1421 -0.6272
16302TIP3    H270322   0.073   1.526  13.339 -0.6722  2.0878  1.0866
16303TIP3   OH270323   0.817   0.332  12.982  0.1639 -0.6621  0.1605
16303TIP3    H170324   0.800   0.280  13.060  1.0840 -1.6694 -0.2703
16303TIP3    H270325   0.777   0.282  12.911 -1.4379  0.6858  0.0543
16304TIP3   OH270326   3.538   1.798  16.595  0.0132 -0.3886 -0.2447
16304TIP3    H170327   3.577   1.819  16.680  2.2503  2.9797 -1.8920
16304TIP3    H270328   3.456   1.848  16.593  1.8146  2.8200 -1.3421
16305TIP3   OH270329   5.322   6.229   5.018 -0.0150  0.2361 -0.5090
16305TIP3    H170330   5.367   6.265   5.094 -1.3643 -0.2971  0.5781
16305TIP3    H270331   5.388   6.231   4.948  1.5708 -0.1565  0.9114
16306TIP3   OH270332   3.502   6.121  15.866  0.1549 -0.4503  0.2978
16306TIP3    H170333   3.482   6.214  15.864  0.7441 -0.3052  1.0949
16306TIP3    H270334   3.467   6.088  15.783 -0.3423  0.4126  0.1518
16307TIP3   OH270335   5.867   6.326   2.625 -0.3101  0.0473 -0.4224
16307TIP3    H170336   5.846   6.413   2.591 -4.3808 -0.9521 -0.9909
16307TIP3    H270337   5.882   6.340   2.719  0.5026  1.4892 -0.7404
16308TIP3   OH270338   6.696   0.732   3.262  0.1215  0.4048  0.1732
16308TIP3    H170339   6.789   0.741   3.284  0.4177 -2.9123  0.9052
16308TIP3    H270340   6.695   0.665   3.193 -1.7210  0.6394 -0.0700
16309TIP3   OH270341   6.386   5.006   0.408  0.2340  0.4235  0.6474
16309TIP3    H170342   6.424   4.943   0.347 -0.3717  0.8283 -0.1714
16309TIP3    H270343   6.304   4.965   0.437 -0.0725  0.7457  0.2505
16310TIP3   OH270344   3.387   5.140  14.850  0.1874 -0.2092 -0.1763
16310TIP3    H170345   3.344   5.187  14.920 -1.5109  1.2728 -2.0955
16310TIP3    H270346   3.425   5.208  14.795  0.8915 -1.2797 -1.0663
16311TIP3   OH270347   4.808   0.189  12.422 -0.6439 -0.1356  0.1811
16311TIP3    H170348   4.845   0.101  12.410 -0.0817  0.0056  0.7569
16311TIP3    H270349   4.786   0.192  12.515 -0.9997  0.2078  0.0846
16312TIP3   OH270350   4.609   2.076  15.924 -0.2712  0.4561 -0.3016
16312TIP3    H170351   4.552   2.034  15.859 -0.9967  1.3646 -0.2749
16312TIP3    H270352   4.600   2.020  16.002 -0.6124  0.2212 -0.5036
16313TIP3   OH270353   1.167   4.841  16.652  0.1932  0.6567  0.0255
16313TIP3    H170354   1.194   4.759  16.694  0.7211  0.3926 -0.7980
16313TIP3    H270355   1.138   4.897  16.724  2.3583  0.7325  0.9017
16314TIP3   OH270356   0.967   0.700   5.540  0.3280 -0.7205 -0.0063
16314TIP3    H170357   1.046   0.727   5.495  0.4265  0.1731  0.6888
16314TIP3    H270358   0.923   0.781   5.564 -0.8953 -1.1928 -0.5198
16315TIP3   OH270359   2.914   0.074  12.436 -0.1985 -0.4125  0.1418
16315TIP3    H170360   2.995   0.125  12.441 -0.8832  0.6946  0.1717
16315TIP3    H270361   2.941  -0.008  12.394  0.5974  0.6959 -1.6256
16316TIP3   OH270362   2.908   0.314   1.728  0.0919 -0.2342  0.1053
16316TIP3    H170363   2.973   0.283   1.665  0.5184 -2.2912  1.4531
16316TIP3    H270364   2.845   0.364   1.675  1.0883 -0.8127 -1.7221
16317TIP3   OH270365   5.714   2.433   6.787 -0.2472  0.8586 -0.2247
16317TIP3    H170366   5.727   2.521   6.751 -0.2611  1.2927  0.7999
16317TIP3    H270367   5.664   2.447   6.867 -0.0308 -0.0682  0.0878
16318TIP3   OH270368   1.953   5.426   1.911 -0.5714 -0.5331 -0.3704
16318TIP3    H170369   1.890   5.418   1.983  0.9481 -0.3926  1.0348
16318TIP3    H270370   1.980   5.518   1.913  2.2271 -1.2410  1.4122
16319TIP3   OH270371   0.065   2.390  17.069 -0.1378  0.7334 -0.1602
16319TIP3    H170372   0.139   2.401  17.010  1.8319 -0.9696  1.8080
16319TIP3    H270373  -0.004   2.353  17.015  0.0643  3.0875 -2.2409
16320TIP3   OH270374   6.233   3.606  16.641  0.0319 -0.3985  0.3966
16320TIP3    H170375   6.319   3.638  16.665  0.0659 -0.3361  0.1961
16320TIP3    H270376   6.223   3.524  16.690  1.2019 -1.6950 -1.4190
16321TIP3   OH270377   5.504   5.038   6.021  0.0246 -0.2986  0.4100
16321TIP3    H170378   5.430   5.085   5.983  0.5085 -0.2363 -0.4667
16321TIP3    H270379   5.495   4.949   5.988  0.5409 -0.2045  0.0041
16322TIP3   OH270380   1.881   3.845  14.150 -0.7331 -0.0394  0.1554
16322TIP3    H170381   1.879   3.853  14.055 -0.2578  2.2122  0.2974
16322TIP3    H270382   1.790   3.830  14.175 -0.7385 -1.6116 -0.6830
16323TIP3   OH270383   2.634   3.872   1.361 -0.4028  0.0956 -0.3479
16323TIP3    H170384   2.610   3.867   1.453 -2.3702  0.7099 -0.7884
16323TIP3    H270385   2.576   3.809   1.318 -1.2989  1.6263 -1.4690
16324TIP3   OH270386   6.509   3.565  13.982 -0.2577 -0.2056 -0.1254
16324TIP3    H170387   6.465   3.588  13.901  1.2849  2.2103 -0.3577
16324TIP3    H270388   6.602   3.570  13.962  0.1595  0.0509  1.6822
16325TIP3   OH270389   5.214   5.960   1.401  0.2412  0.2124  0.3681
16325TIP3    H170390   5.287   6.019   1.384 -0.7038  1.8894  1.7603
16325TIP3    H270391   5.217   5.944   1.496 -1.2908  0.5137  0.5017
16326TIP3   OH270392   6.207   3.776  12.316  0.0085 -0.4402  0.1503
16326TIP3    H170393   6.295   3.807  12.337 -0.5068  0.7064  0.7381
16326TIP3    H270394   6.163   3.772  12.401 -0.4645 -1.1606 -0.1216
16327TIP3   OH270395   3.579   0.457  17.107 -0.5804 -0.3551  0.6031
16327TIP3    H170396   3.617   0.502  17.032  0.2793 -0.8245  0.7455
16327TIP3    H270397   3.510   0.402  17.070  0.8853 -1.8215 -0.1020
16328TIP3   OH270398   5.110   5.969  13.870  0.1496  0.0406  0.0985
16328TIP3    H170399   5.193   5.922  13.883 -0.1285  0.0346  2.1314
16328TIP3    H270400   5.133   6.040  13.809  1.7588  0.2850  0.9244
16329TIP3   OH270401   0.649   4.613  16.675 -0.6028  0.2365 -0.1028
16329TIP3    H170402   0.601   4.531  16.667  2.4485 -1.8856  1.2205
16329TIP3    H270403   0.625   4.647  16.762 -1.6098  0.6085 -0.5125
16330TIP3   OH270404   6.343   3.124  14.700 -0.3281 -0.0249  0.3806
16330TIP3    H170405   6.369   3.214  14.680 -2.4015  0.5671  0.1373
16330TIP3    H270406   6.319   3.126  14.793 -2.4831  0.2765 -0.1244
16331TIP3   OH270407   1.072   5.760  10.829 -0.2112 -0.3646  0.2024
16331TIP3    H170408   1.120   5.687  10.867  1.6053  0.2165 -0.8797
16331TIP3    H270409   1.086   5.751  10.734  0.1565  1.4293  0.0580
16332TIP3   OH270410   3.985   4.468   5.687 -0.3696 -0.3840 -0.5199
16332TIP3    H170411   3.949   4.467   5.598 -3.6508 -0.7381  0.6588
16332TIP3    H270412   4.033   4.385   5.694  1.1939  0.3206 -2.3647
16333TIP3   OH270413   4.995   1.217  11.175  0.0704 -0.1653  0.0379
16333TIP3    H170414   4.901   1.210  11.157  0.6560 -0.9550 -3.4358
16333TIP3    H270415   5.020   1.303  11.141  0.5334  0.2892  1.4768
16334TIP3   OH270416   5.900   4.218  15.422  0.1275  0.1060  0.4714
16334TIP3    H170417   5.829   4.207  15.485  1.0140 -0.2499  1.4366
16334TIP3    H270418   5.955   4.287  15.460 -0.4922  1.4908 -1.0198
16335TIP3   OH270419   3.959   3.586  10.707 -0.2786 -0.0857 -0.0183
16335TIP3    H170420   3.890   3.520  10.717  1.1295 -2.2320 -3.0598
16335TIP3    H270421   4.041   3.535  10.708  1.2724  2.2131  2.0847
16336TIP3   OH270422   4.833   2.921   0.240 -0.2830 -0.1579  0.1733
16336TIP3    H170423   4.918   2.904   0.200 -1.0572 -1.8836 -0.8359
16336TIP3    H270424   4.850   2.990   0.305  2.2576 -1.8117  1.4022
16337TIP3   OH270425   4.402   3.212  17.219 -0.3905  0.1260 -0.1382
16337TIP3    H170426   4.463   3.146  17.252 -0.5843 -0.4455 -0.9148
16337TIP3    H270427   4.315   3.176  17.238 -0.5086 -0.2625 -1.3563
16338TIP3   OH270428   3.323   5.926   0.519  0.5498 -0.2063 -0.2597
16338TIP3    H170429   3.350   5.837   0.498  0.3316 -0.0981 -1.0696
16338TIP3    H270430   3.405   5.974   0.531  0.6673 -0.8786  1.9256
16339TIP3   OH270431   4.269   6.543  10.213  0.6201  1.1467  0.1147
16339TIP3    H170432   4.322   6.620  10.194  1.0504  0.9478  0.4912
16339TIP3    H270433   4.178   6.572  10.201  0.8089  0.7252 -3.5476
16340TIP3   OH270434   1.901   1.629   1.386  0.2357  0.0266  0.1752
16340TIP3    H170435   1.966   1.562   1.366  0.3564 -0.5937  2.3884
16340TIP3    H270436   1.936   1.709   1.346  1.3627 -0.6956 -0.3411
16341TIP3   OH270437   1.403   4.433   0.838  0.4113  0.1587 -0.3660
16341TIP3    H170438   1.371   4.353   0.796  0.7842  0.9481 -2.2738
16341TIP3    H270439   1.494   4.413   0.860  0.2140 -0.2638  0.0808
16342TIP3   OH270440   6.149   5.962  15.181 -0.0944  0.0919 -0.4920
16342TIP3    H170441   6.209   6.029  15.148  1.9752 -1.5495 -0.2507
16342TIP3    H270442   6.093   6.009  15.243  1.7618  1.4682  0.2245
16343TIP3   OH270443   4.369   6.673   4.594  0.1332 -0.5273 -0.0993
16343TIP3    H170444   4.299   6.737   4.583  1.6238  1.2940  0.4728
16343TIP3    H270445   4.387   6.674   4.688  0.2716 -1.7545 -0.0905
16344TIP3   OH270446   4.988   4.144   0.192 -0.4481 -0.2236 -0.0661
16344TIP3    H170447   4.912   4.152   0.135  0.3242  0.7062 -1.0019
16344TIP3    H270448   5.055   4.200   0.152  0.5099 -0.4742  1.1046
16345TIP3   OH270449   4.070   3.536  13.674  0.3954  0.0580 -0.6103
16345TIP3    H170450   3.985   3.568  13.644 -0.0287 -0.2006  0.2752
16345TIP3    H270451   4.075   3.446  13.640  1.2676  0.7652 -2.4735
16346TIP3   OH270452   5.820   6.095  12.700  0.4439  0.4322 -0.1574
16346TIP3    H170453   5.815   6.103  12.605  1.4131  1.5641 -0.1417
16346TIP3    H270454   5.883   6.162  12.726  0.3775 -0.0257  1.2638
16347TIP3   OH270455   5.925   5.891  14.528  0.0658  0.6080 -0.7098
16347TIP3    H170456   5.946   5.820  14.590 -0.4661  0.3820 -0.7840
16347TIP3    H270457   5.987   5.879  14.456  0.7742  0.9445 -0.1770
16348TIP3   OH270458   3.142   3.884  14.725 -0.1517 -0.1227  0.0717
16348TIP3    H170459   3.218   3.939  14.704 -1.5916  1.9100 -0.2000
16348TIP3    H270460   3.067   3.940  14.705 -1.7231 -1.8646  0.8364
16349TIP3   OH270461   6.446   2.612  15.394  0.0439 -0.2158  0.2656
16349TIP3    H170462   6.419   2.520  15.395  0.6732 -0.4425 -1.1623
16349TIP3    H270463   6.375   2.657  15.349  0.4810 -0.2810 -0.5068
16350TIP3   OH270464   2.955   1.093   0.639 -0.2297  0.6306 -0.5102
16350TIP3    H170465   2.977   1.171   0.588  2.5647  0.8129  0.8057
16350TIP3    H270466   2.914   1.127   0.718  0.2395  0.7039 -0.2993
16351TIP3   OH270467   4.014   2.758   3.353 -0.0848 -0.2470  0.3744
16351TIP3    H170468   4.088   2.745   3.412  0.3302 -0.2566 -0.1459
16351TIP3    H270469   3.966   2.832   3.391  0.1963 -0.2338  0.7054
16352TIP3   OH270470   0.177   2.959   6.340  0.0965  0.2750  0.4618
16352TIP3    H170471   0.155   2.949   6.248  0.7909  3.4984 -0.1451
16352TIP3    H270472   0.256   2.906   6.352 -0.7503 -1.2538 -0.3884
16353TIP3   OH270473   4.624   0.668   3.163  0.2231  0.1224 -0.2238
16353TIP3    H170474   4.714   0.635   3.162 -0.2968 -1.6049 -3.0579
16353TIP3    H270475   4.633   0.763   3.148  1.5822  0.2254  1.1079
16354TIP3   OH270476   5.008   0.716   2.929  0.0073  0.0768  0.5176
16354TIP3    H170477   4.959   0.707   3.011 -2.1963 -0.5512 -0.7761
16354TIP3    H270478   4.979   0.800   2.893  1.0034  0.3749  0.3684
16355TIP3   OH270479   0.332   2.531  12.995  0.1143  0.2401 -0.0644
16355TIP3    H170480   0.333   2.608  12.938  0.4564  1.3822  1.4232
16355TIP3    H270481   0.281   2.466  12.946  0.1365  1.2610 -1.5256
16356TIP3   OH270482   2.114   1.093   2.278  0.1795  0.0916 -0.3466
16356TIP3    H170483   2.131   1.129   2.365  2.1523 -1.0668 -0.1876
16356TIP3    H270484   2.188   1.123   2.225 -0.4012 -0.1616 -1.3182
16357TIP3   OH270485   6.372   3.919   2.412 -0.6314  0.2056 -0.1432
16357TIP3    H170486   6.438   3.931   2.344 -1.5774  2.4546 -0.7539
16357TIP3    H270487   6.418   3.939   2.494 -0.2892  0.6513 -0.4433
16358TIP3   OH270488   3.615   1.820  13.322  0.1539  0.2946 -1.0055
16358TIP3    H170489   3.680   1.781  13.381 -0.0901 -1.8311 -2.0277
16358TIP3    H270490   3.531   1.785  13.353 -0.2587  1.2221 -1.0527
16359TIP3   OH270491   4.225   3.838  12.757  0.0133 -0.6562  0.1294
16359TIP3    H170492   4.189   3.893  12.827 -0.8216 -0.4789 -0.4237
16359TIP3    H270493   4.159   3.769  12.745  0.6750 -1.3256  0.2731
16360TIP3   OH270494   2.247   6.751   0.137 -0.1522  0.4997 -0.1646
16360TIP3    H170495   2.159   6.789   0.132 -1.8755 -2.9906  0.0623
16360TIP3    H270496   2.263   6.716   0.049  1.9329  2.6915 -0.7502
16361TIP3   OH270497   3.655   5.451  12.506  0.0568 -0.2812  0.4407
16361TIP3    H170498   3.750   5.454  12.499 -0.0055  1.8059 -0.2316
16361TIP3    H270499   3.624   5.518  12.445 -1.6723  1.3581  2.8865
16362TIP3   OH270500   0.315   3.937  13.414  0.7882  0.0285  0.1150
16362TIP3    H170501   0.333   3.847  13.439  0.1329 -0.0633  0.2824
16362TIP3    H270502   0.226   3.953  13.446  0.9217  0.7500  0.1380
16363TIP3   OH270503   2.727   5.368   4.859 -0.0970 -0.1990 -0.7671
16363TIP3    H170504   2.758   5.429   4.926 -1.0411 -0.1059 -0.3932
16363TIP3    H270505   2.781   5.289   4.873  0.9758  0.4539 -1.1157
16364TIP3   OH270506   6.256   6.450   5.562 -0.3364 -0.5362  0.1536
16364TIP3    H170507   6.216   6.500   5.491 -2.4854 -3.8606 -1.2202
16364TIP3    H270508   6.331   6.503   5.589 -0.9819  2.1817 -2.7511
16365TIP3   OH270509   6.370   2.058   4.420  0.1500 -0.2264  0.3789
16365TIP3    H170510   6.408   2.145   4.407  3.1152 -1.5273 -0.5857
16365TIP3    H270511   6.370   2.045   4.515  0.4738  0.5079  0.4825
16366TIP3   OH270512   6.409   5.424   1.918 -0.0762 -0.1367 -0.4447
16366TIP3    H170513   6.428   5.495   1.857  1.6937  0.1364  0.3809
16366TIP3    H270514   6.386   5.467   2.000 -1.4889 -0.5201 -0.6060
16367TIP3   OH270515   1.398   1.698   6.481  0.6960 -0.1969  0.4347
16367TIP3    H170516   1.393   1.620   6.537  2.1399 -0.0773  0.7756
16367TIP3    H270517   1.323   1.751   6.507 -0.5258 -1.6236 -0.0607
16368TIP3   OH270518   3.908   6.618   6.257 -0.0624 -0.3386 -0.1895
16368TIP3    H170519   3.840   6.655   6.313 -0.7862  0.3850 -1.5045
16368TIP3    H270520   3.902   6.523   6.272 -0.9577 -0.2431  0.1391
16369TIP3   OH270521   6.738   3.533  16.637  0.1467  0.1793  0.8288
16369TIP3    H170522   6.752   3.447  16.597 -1.1113 -0.0326  0.8099
16369TIP3    H270523   6.801   3.591  16.593  0.4190 -0.5499  0.2459
16370TIP3   OH270524   4.513   2.591  13.537  0.0724  0.2030  0.1707
16370TIP3    H170525   4.445   2.654  13.514 -0.4669 -0.5840 -0.4480
16370TIP3    H270526   4.494   2.568  13.628  0.2216  0.8691  0.3701
16371TIP3   OH270527   0.241   0.773   4.429 -0.7606 -0.0499 -0.2642
16371TIP3    H170528   0.202   0.721   4.500 -2.9330  1.5173 -0.1999
16371TIP3    H270529   0.278   0.709   4.369 -0.3617 -1.4897  1.4393
16372TIP3   OH270530   3.911   5.131  15.824 -0.3973  0.4442 -0.0216
16372TIP3    H170531   3.909   5.132  15.920 -0.1569 -0.3216  0.0010
16372TIP3    H270532   3.892   5.221  15.798  2.0673  1.2842  0.8031
16373TIP3   OH270533   6.424   4.251   5.740 -0.1931  0.8440  0.1507
16373TIP3    H170534   6.427   4.289   5.828 -2.0232  3.0778 -0.6754
16373TIP3    H270535   6.409   4.325   5.682 -1.2491 -0.8355 -1.8400
16374TIP3   OH270536   5.682   5.269   4.549 -0.1390 -0.2799 -0.1815
16374TIP3    H170537   5.760   5.315   4.581 -0.1260 -0.1065 -0.4612
16374TIP3    H270538   5.618   5.277   4.620  0.4845 -1.4289  0.5524
16375TIP3   OH270539   6.314   6.601   0.052  0.3082  0.0712  0.1341
16375TIP3    H170540   6.237   6.547   0.068 -0.6928  1.9437  2.2715
16375TIP3    H270541   6.385   6.539   0.037 -1.3388 -1.7321 -0.6299
16376TIP3   OH270542   4.082   1.704   2.018  0.1419  0.5116 -0.6038
16376TIP3    H170543   4.154   1.737   1.964 -0.5554  1.4029 -1.0200
16376TIP3    H270544   4.123   1.683   2.102  1.2095 -0.7047 -1.3858
16377TIP3   OH270545   5.538   1.147   4.569 -0.2603  0.0986 -0.8324
16377TIP3    H170546   5.580   1.085   4.509  5.4667 -0.5513  3.0309
16377TIP3    H270547   5.504   1.091   4.639 -2.6861  1.0854 -1.1305
16378TIP3   OH270548   0.355   3.710  13.776 -0.0666  0.1595 -0.1502
16378TIP3    H170549   0.450   3.707  13.772 -0.0660  0.4197 -0.3520
16378TIP3    H270550   0.334   3.802  13.791 -0.2602 -0.0063  0.6876
16379TIP3   OH270551   1.227   2.029  11.595 -0.3235 -0.1166  0.3946
16379TIP3    H170552   1.289   2.060  11.529 -0.5243  0.0294  0.2728
16379TIP3    H270553   1.213   2.104  11.652 -1.0012  0.1033 -0.0446
16380TIP3   OH270554   1.614   1.775  14.901 -0.6283 -0.9312  0.2618
16380TIP3    H170555   1.581   1.755  14.813 -1.4710 -0.6568  0.5117
16380TIP3    H270556   1.669   1.700  14.924 -0.1124 -0.8474 -0.6404
16381TIP3   OH270557   1.718   4.711   4.217  0.0657  0.7297  0.2195
16381TIP3    H170558   1.771   4.742   4.290 -0.0993 -1.0951  1.1579
16381TIP3    H270559   1.762   4.632   4.187  0.3301  1.6243 -1.9419
16382TIP3   OH270560   0.558   6.515   0.581  0.0369 -0.0371  0.2170
16382TIP3    H170561   0.589   6.457   0.650  0.9798  1.5815  1.2392
16382TIP3    H270562   0.464   6.499   0.577  0.5336 -3.4214 -1.3551
16383TIP3   OH270563   2.434   4.111  16.825  0.0381  0.2614 -0.5689
16383TIP3    H170564   2.487   4.140  16.899  2.8616 -1.0495 -1.8936
16383TIP3    H270565   2.456   4.173  16.755  0.6447 -0.8790 -1.4199
16384TIP3   OH270566   5.072   1.636  10.726  0.0291  0.1465 -0.3444
16384TIP3    H170567   5.034   1.592  10.650 -1.1258  1.3600 -0.5073
16384TIP3    H270568   5.019   1.714  10.737  0.8072  0.5014  1.1186
16385TIP3   OH270569   3.738   4.631   0.295  0.4545 -0.3773 -0.1993
16385TIP3    H170570   3.748   4.536   0.291  3.4064 -0.1335 -0.7343
16385TIP3    H270571   3.779   4.657   0.377  0.6706  0.5248 -0.5797
16386TIP3   OH270572   5.418   5.247   4.627 -0.2027 -0.1615 -0.0463
16386TIP3    H170573   5.415   5.258   4.722 -1.1886 -0.0192 -0.0754
16386TIP3    H270574   5.367   5.168   4.610  2.5538 -2.0452 -0.2586
16387TIP3   OH270575   6.121   1.788  11.523  0.3587 -0.1809  0.1396
16387TIP3    H170576   6.103   1.719  11.460  0.9673  0.8340 -1.1959
16387TIP3    H270577   6.154   1.743  11.600 -1.7718 -1.5752  0.3291
16388TIP3   OH270578   3.682   1.308   3.511  0.3584 -0.3209 -0.2247
16388TIP3    H170579   3.684   1.395   3.470  0.8561 -0.2646 -0.0867
16388TIP3    H270580   3.649   1.323   3.599 -1.8239 -0.5891 -0.9262
16389TIP3   OH270581   2.771   1.774   4.838  0.0070 -0.1681 -0.3012
16389TIP3    H170582   2.762   1.699   4.898  0.3657  0.3421  0.4068
16389TIP3    H270583   2.861   1.768   4.807  0.3614  0.5393  0.5505
16390TIP3   OH270584   6.494   5.252  14.739  0.3582  0.4499  0.2249
16390TIP3    H170585   6.558   5.210  14.797 -0.0382  1.4276  1.3977
16390TIP3    H270586   6.514   5.216  14.652  2.1068  0.2834  0.6607
16391TIP3   OH270587   0.864   4.642  11.916 -0.4099 -0.4786 -0.5239
16391TIP3    H170588   0.823   4.680  11.994  0.7678  0.9599 -0.5786
16391TIP3    H270589   0.793   4.641  11.851 -0.9288 -0.0299  0.0195
16392TIP3   OH270590   2.664   5.382   5.545  0.2038  0.0998 -0.3267
16392TIP3    H170591   2.754   5.415   5.539  0.0861  0.9594  1.9003
16392TIP3    H270592   2.610   5.461   5.557 -0.1898 -0.5947  4.1539
16393TIP3   OH270593   4.384   0.064  11.862 -0.5411 -0.7169  0.5307
16393TIP3    H170594   4.402   0.052  11.955 -1.5372  1.0064  0.9875
16393TIP3    H270595   4.463   0.108  11.828 -0.1954 -1.3099  0.5513
16394TIP3   OH270596   4.371   6.239  15.000  0.4621  0.2203  0.3478
16394TIP3    H170597   4.311   6.283  15.060  0.6393  0.0620  0.6453
16394TIP3    H270598   4.360   6.284  14.917  0.2597  0.4839  0.5173
16395TIP3   OH270599   3.989   1.293   0.974 -0.1735  0.0891  0.2983
16395TIP3    H170600   4.068   1.278   0.922 -0.4495  1.4117 -0.5595
16395TIP3    H270601   3.995   1.230   1.045  1.1989 -0.4563 -0.2625
16396TIP3   OH270602   2.058   5.181   2.955  0.3460 -0.3689 -0.9160
16396TIP3    H170603   2.017   5.261   2.921 -2.1358 -1.9301 -1.9044
16396TIP3    H270604   2.005   5.157   3.031  1.1686 -0.9790 -0.5259
16397TIP3   OH270605   5.897   4.853   2.112  0.2911 -0.4060 -0.6643
16397TIP3    H170606   5.805   4.878   2.123  0.9772  2.5629 -0.6301
16397TIP3    H270607   5.896   4.758   2.109 -2.6586 -0.5190  0.3710
16398TIP3   OH270608   4.878   4.291  11.591  0.7626 -0.0468  0.2245
16398TIP3    H170609   4.957   4.238  11.583  0.9785  0.2902  0.1171
16398TIP3    H270610   4.899   4.357  11.657  0.9661  0.7292 -0.5906
16399TIP3   OH270611   4.064   5.996  13.763 -0.2628 -0.4211  0.0987
16399TIP3    H170612   3.999   5.973  13.830 -2.0663 -0.3980 -1.5698
16399TIP3    H270613   4.110   5.914  13.746 -1.1702 -0.9149 -0.0592
16400TIP3   OH270614   4.903   0.714   1.757 -0.3802 -0.7001 -0.0871
16400TIP3    H170615   4.955   0.636   1.741  0.4805 -0.1621  0.0265
16400TIP3    H270616   4.930   0.776   1.689 -1.0014 -0.4727 -0.1381
16401TIP3   OH270617   5.441   2.409  15.581 -0.6217 -0.3215 -0.2809
16401TIP3    H170618   5.507   2.474  15.558  0.1782 -0.8463  0.4880
16401TIP3    H270619   5.464   2.331  15.531  0.2456 -0.9809  1.0795
16402TIP3   OH270620   5.245   0.260  10.656 -0.8531  0.1533  0.0709
16402TIP3    H170621   5.206   0.180  10.692  0.0975 -0.2785  0.1799
16402TIP3    H270622   5.241   0.249  10.561  0.8803 -0.8844  0.0573
16403TIP3   OH270623   0.883   5.480  12.757 -0.3794  0.3223  0.2165
16403TIP3    H170624   0.849   5.401  12.714  1.5544 -1.4082  1.6277
16403TIP3    H270625   0.818   5.500  12.824  0.2755 -1.7441  1.5857
16404TIP3   OH270626   5.275   5.377   2.085 -0.1263 -0.1486  0.4667
16404TIP3    H170627   5.288   5.297   2.035 -0.2099 -0.5912  1.1456
16404TIP3    H270628   5.354   5.430   2.068 -0.1749 -0.2744 -0.1576
16405TIP3   OH270629   3.258   6.272   1.679  0.2035  1.2008  0.0619
16405TIP3    H170630   3.166   6.296   1.661 -0.8535 -1.5390  1.2784
16405TIP3    H270631   3.268   6.288   1.773 -0.0400 -1.2425  0.5676
16406TIP3   OH270632   5.875   0.201  11.640  0.4350  0.4565 -0.5029
16406TIP3    H170633   5.956   0.232  11.680 -0.3569 -0.2088  1.7307
16406TIP3    H270634   5.821   0.170  11.713 -1.7178  0.5552 -1.9394
16407TIP3   OH270635   6.397   2.156  12.034 -0.0343  0.3480 -0.2304
16407TIP3    H170636   6.443   2.173  12.116  1.8061  0.2792 -1.1969
16407TIP3    H270637   6.386   2.242  11.995 -0.7270  0.3596 -0.0190
16408TIP3   OH270638   2.279   3.653   2.303 -0.0685  0.1538  0.0978
16408TIP3    H170639   2.372   3.653   2.323  0.6782 -1.5672 -2.7373
16408TIP3    H270640   2.271   3.709   2.225 -0.9913 -1.4039 -0.9880
16409TIP3   OH270641   5.153   2.224  15.420  0.2197  0.0886 -0.6705
16409TIP3    H170642   5.233   2.206  15.371  1.3805  0.5174  0.9642
16409TIP3    H270643   5.156   2.162  15.493 -1.4038 -0.4716 -1.0370
16410TIP3   OH270644   3.969   2.227   4.416  0.0464 -0.2975 -0.0382
16410TIP3    H170645   3.934   2.303   4.370 -1.8631  0.3403  2.2919
16410TIP3    H270646   4.032   2.263   4.478  0.6309 -0.8547 -0.2962
16411TIP3   OH270647   0.668   5.006  14.378 -0.0872 -0.2947 -0.1744
16411TIP3    H170648   0.680   5.084  14.433  0.4723 -1.3218  1.2244
16411TIP3    H270649   0.758   4.978  14.358 -0.2839 -0.6765 -0.5207
16412TIP3   OH270650   4.098   1.797  16.189  0.1774 -0.0938 -0.2410
16412TIP3    H170651   4.132   1.756  16.269  0.4434  1.7538  0.6586
16412TIP3    H270652   4.171   1.796  16.128  0.2429 -0.7499 -0.1538
16413TIP3   OH270653   3.318   6.024  14.536  0.4403  0.0792  0.9014
16413TIP3    H170654   3.242   6.067  14.576  0.9782  1.3755  0.5989
16413TIP3    H270655   3.294   5.932  14.531 -2.4476  0.8357 -2.1876
16414TIP3   OH270656   3.477   1.832   3.953 -0.3257  0.4921  0.1720
16414TIP3    H170657   3.532   1.882   4.014 -0.9962  2.5173 -0.7972
16414TIP3    H270658   3.396   1.816   4.001 -0.4261  1.0882  0.2064
16415TIP3   OH270659   1.020   4.161   0.299  0.3156  0.3283  0.1527
16415TIP3    H170660   1.016   4.077   0.345  0.2178 -0.0679 -0.5763
16415TIP3    H270661   1.113   4.186   0.303  0.4083  0.0015  0.0345
16416TIP3   OH270662   5.067   4.877  15.024  0.3160 -0.5549 -0.0017
16416TIP3    H170663   5.001   4.828  14.975  0.6056  0.3380 -1.3506
16416TIP3    H270664   5.063   4.841  15.113 -2.5300 -0.0006  0.1893
16417TIP3   OH270665   6.651   4.441   1.027 -0.1194  0.0757  0.5116
16417TIP3    H170666   6.599   4.450   1.106 -0.3589  0.1723  0.3426
16417TIP3    H270667   6.596   4.391   0.967 -0.8966  1.9768 -0.4421
16418TIP3   OH270668   0.059   3.207  17.119  0.0002  0.1202 -0.1188
16418TIP3    H170669  -0.034   3.199  17.139  0.1489  0.0895  0.5862
16418TIP3    H270670   0.087   3.284  17.168  0.2662  0.3464 -0.6243
16419TIP3   OH270671   0.646   5.974  13.022 -0.0871  0.1852  0.1235
16419TIP3    H170672   0.680   5.913  13.087 -0.5409 -0.9643 -0.6949
16419TIP3    H270673   0.715   6.040  13.013  0.5903 -0.4314  0.7128
16420TIP3   OH270674   0.135   0.448  15.539  0.3847 -0.3547 -0.3316
16420TIP3    H170675   0.067   0.470  15.475 -0.8607  0.8505  1.3196
16420TIP3    H270676   0.175   0.368  15.504 -1.6236 -0.9089 -1.5681
16421TIP3   OH270677   6.397   5.221   1.419  0.1233  0.6874 -0.0201
16421TIP3    H170678   6.316   5.270   1.411  0.3087  1.4011  1.9153
16421TIP3    H270679   6.371   5.137   1.457  0.2569  0.8561  0.4539
16422TIP3   OH270680   5.181   0.887   1.691  0.2295 -0.3135 -0.3143
16422TIP3    H170681   5.241   0.957   1.665  0.5380 -0.5875 -0.3470
16422TIP3    H270682   5.237   0.820   1.729 -0.0705 -0.5224 -0.2360
16423TIP3   OH270683   5.106   1.744   1.180 -0.0568  0.4352  0.2528
16423TIP3    H170684   5.101   1.787   1.265  3.5976 -0.6252  1.1492
16423TIP3    H270685   5.114   1.816   1.118  0.8332  1.1655  1.1889
16424TIP3   OH270686   5.558   4.692   1.998 -0.4982 -0.0694 -0.2879
16424TIP3    H170687   5.603   4.690   1.913  1.3189  2.1179  0.5294
16424TIP3    H270688   5.537   4.784   2.012 -2.0259 -0.5763  1.0660
16425TIP3   OH270689   3.194   1.629   5.057 -0.2735 -0.1016  0.3562
16425TIP3    H170690   3.129   1.560   5.067  0.4557 -1.1558 -1.6804
16425TIP3    H270691   3.242   1.607   4.977  0.8659  2.0586  0.3455
16426TIP3   OH270692   5.942   3.808   1.898 -0.1035  0.3727  0.2510
16426TIP3    H170693   5.937   3.713   1.910 -2.5709  0.4757  0.4283
16426TIP3    H270694   6.033   3.830   1.918  0.2245 -1.7955  1.3894
16427TIP3   OH270695   0.409   2.134   0.649 -0.3713 -0.0329 -0.0865
16427TIP3    H170696   0.336   2.104   0.594 -0.6608 -1.3458  0.9535
16427TIP3    H270697   0.470   2.175   0.588 -0.9734 -0.8710 -1.2986
16428TIP3   OH270698   2.018   0.333  11.791 -0.2476 -0.9804 -0.3724
16428TIP3    H170699   2.082   0.330  11.719  1.2431 -0.2692  0.8792
16428TIP3    H270700   1.976   0.418  11.781 -1.3408 -1.6097 -1.4368
16429TIP3   OH270701   6.238   6.665   4.475 -0.3153 -0.2195 -0.1741
16429TIP3    H170702   6.306   6.655   4.541  0.5207  1.7225 -0.6596
16429TIP3    H270703   6.197   6.579   4.469  1.3946 -1.1670  0.8906
16430TIP3   OH270704   1.973   0.027   2.891  0.0590 -0.1878 -0.3578
16430TIP3    H170705   1.914   0.045   2.818 -0.8915 -1.7811 -0.0259
16430TIP3    H270706   2.052  -0.009   2.849 -0.3306 -0.7305 -0.6388
16431TIP3   OH270707   3.387   0.092   6.628  0.1130 -0.1295  0.3955
16431TIP3    H170708   3.386   0.175   6.581  1.2520  0.8662  1.9880
16431TIP3    H270709   3.356   0.028   6.565  2.2728  0.9634 -1.9649
16432TIP3   OH270710   4.708   5.260   4.574 -0.2042  0.1746  0.1512
16432TIP3    H170711   4.769   5.313   4.625 -0.2140 -0.8549  1.2901
16432TIP3    H270712   4.621   5.292   4.601 -0.2073 -0.3044  0.7251
16433TIP3   OH270713   2.137   1.873  16.204  0.1727 -0.2131  0.2060
16433TIP3    H170714   2.043   1.883  16.187  0.4065  0.5396 -0.7509
16433TIP3    H270715   2.154   1.930  16.279  0.0210  0.3665 -0.1916
16434TIP3   OH270716   2.368   2.972  11.132  0.3313  0.2367  0.6289
16434TIP3    H170717   2.421   3.024  11.071 -0.4216 -0.1675 -0.3879
16434TIP3    H270718   2.431   2.941  11.197  0.9343  1.7746  0.8371
16435TIP3   OH270719   1.464   1.150  16.961 -0.5662 -0.0929 -0.9084
16435TIP3    H170720   1.523   1.174  16.891 -0.3904 -1.6785 -1.3462
16435TIP3    H270721   1.441   1.233  17.003 -0.2355  0.8241 -2.4706
16436TIP3   OH270722   1.714   1.880  13.243 -0.4526 -0.0576  0.8989
16436TIP3    H170723   1.656   1.809  13.270  2.4717 -1.5302  3.9283
16436TIP3    H270724   1.714   1.941  13.316 -2.0457  2.6773 -1.1991
16437TIP3   OH270725   5.446   2.229  10.975 -0.2872  0.3128 -0.2965
16437TIP3    H170726   5.474   2.319  10.992 -1.2441  0.8531 -1.3998
16437TIP3    H270727   5.437   2.225  10.880 -1.0275 -0.7201 -0.1970
16438TIP3   OH270728   2.468   4.479  12.817  0.0496  0.4667  0.4434
16438TIP3    H170729   2.393   4.537  12.829  0.4752  0.5767  3.1210
16438TIP3    H270730   2.444   4.400  12.866  0.9022 -0.2799 -0.3135
16439TIP3   OH270731   5.919   2.643   5.405 -0.2112  0.4300 -0.1546
16439TIP3    H170732   5.825   2.641   5.426  0.4177 -0.1013  3.2487
16439TIP3    H270733   5.943   2.550   5.397  0.3142  0.4582  0.8759
16440TIP3   OH270734   3.856   1.495   2.048  0.1995 -0.0956 -0.4631
16440TIP3    H170735   3.891   1.485   1.959  0.8148 -1.5982 -0.0843
16440TIP3    H270736   3.923   1.547   2.094  1.3491 -1.7856 -0.1222
16441TIP3   OH270737   5.185   3.084  15.768 -0.0222 -0.0822 -0.5296
16441TIP3    H170738   5.128   3.116  15.839  1.3358 -1.1354  1.1199
16441TIP3    H270739   5.133   3.097  15.688 -1.6608  1.0624  0.6472
16442TIP3   OH270740   2.577   3.154   1.936  0.3102 -0.1847  1.2296
16442TIP3    H170741   2.514   3.169   2.007  0.4445  0.0493  1.3001
16442TIP3    H270742   2.636   3.229   1.940 -0.1402  0.2300  0.3770
16443TIP3   OH270743   4.485   2.128   0.671  0.3581 -0.0438  0.7888
16443TIP3    H170744   4.521   2.045   0.702  0.6991  0.0809  0.7312
16443TIP3    H270745   4.514   2.135   0.580 -1.5387 -0.9303  0.0534
16444TIP3   OH270746   0.330   1.489   5.901  0.2419  0.0146 -0.2798
16444TIP3    H170747   0.256   1.429   5.912  0.4447 -0.1591  0.1415
16444TIP3    H270748   0.361   1.474   5.812  0.3778 -0.5989 -0.1271
16445TIP3   OH270749   4.380   3.110  15.908 -0.4360 -0.7510  0.4255
16445TIP3    H170750   4.359   3.181  15.969  1.8371  0.0930  0.3262
16445TIP3    H270751   4.323   3.038  15.934 -2.1776  0.8077  1.1135
16446TIP3   OH270752   2.913   0.609  16.257 -0.2744 -0.1456 -0.4702
16446TIP3    H170753   2.898   0.525  16.299  0.3025 -0.6206 -1.1758
16446TIP3    H270754   2.881   0.598  16.167 -0.4228  0.4695 -0.5010
16447TIP3   OH270755   3.020   3.270  13.764  0.2076 -0.2343 -0.5523
16447TIP3    H170756   2.993   3.290  13.675  0.3901 -0.2980 -0.6211
16447TIP3    H270757   3.090   3.332  13.783 -1.2178  1.1972  0.2861
16448TIP3   OH270758   3.042   3.373   2.013  0.4860  0.5436  0.2915
16448TIP3    H170759   3.086   3.289   1.998  0.9642  1.1819 -2.4758
16448TIP3    H270760   3.056   3.422   1.932 -0.9301  2.7991  1.3118
16449TIP3   OH270761   5.610   5.859   1.452  0.1491  0.0912 -1.0001
16449TIP3    H170762   5.643   5.888   1.537  0.5087  1.7596 -1.6625
16449TIP3    H270763   5.543   5.923   1.429 -2.0306 -1.9428 -0.7305
16450TIP3   OH270764   4.077   4.847   2.329 -0.0027  0.0119  0.2614
16450TIP3    H170765   4.053   4.784   2.260  0.1850 -1.1810  1.2628
16450TIP3    H270766   3.993   4.879   2.362 -0.1084 -0.0336  0.0397
16451TIP3   OH270767   3.630   1.231   2.848  0.1243 -0.1215  0.3655
16451TIP3    H170768   3.545   1.200   2.817  0.3674 -0.7969  0.3419
16451TIP3    H270769   3.655   1.169   2.916  0.3509  0.3918  0.7568
16452TIP3   OH270770   0.526   4.760   3.516  0.0024 -0.1667  0.5581
16452TIP3    H170771   0.501   4.775   3.607  1.8041 -0.9812  1.2278
16452TIP3    H270772   0.455   4.800   3.465 -1.4193 -0.3510  2.2940
16453TIP3   OH270773   5.096   4.024  11.736 -0.5745 -0.2109 -0.2219
16453TIP3    H170774   5.128   4.056  11.820 -0.3178 -0.8073 -0.0913
16453TIP3    H270775   5.100   4.101  11.678  0.3418 -0.0847 -0.0005
16454TIP3   OH270776   1.348   5.787   3.166 -0.7437  0.4432 -0.0914
16454TIP3    H170777   1.278   5.741   3.213  1.0820 -0.5731  1.7674
16454TIP3    H270778   1.395   5.718   3.119 -1.0296  1.1389 -1.4446
16455TIP3   OH270779   0.882   0.324  11.606  0.3650  0.4926  0.4272
16455TIP3    H170780   0.802   0.295  11.561  1.1102 -0.7620 -0.1540
16455TIP3    H270781   0.945   0.254  11.589  0.8509  0.1994  2.9848
16456TIP3   OH270782   6.597   5.967   4.664  0.2610  0.3307  0.1763
16456TIP3    H170783   6.626   5.928   4.581 -1.6225  0.1976 -0.4602
16456TIP3    H270784   6.502   5.960   4.662  0.1912 -1.0092  3.0095
16457TIP3   OH270785   4.456   1.803  12.173 -0.3771 -0.1831  0.4337
16457TIP3    H170786   4.422   1.717  12.149 -1.6581  0.5348 -0.4558
16457TIP3    H270787   4.515   1.827  12.100 -0.3974 -0.1020  0.4442
16458TIP3   OH270788   4.868   4.659  15.782  0.4308 -0.4855 -0.0273
16458TIP3    H170789   4.827   4.574  15.797 -1.2551  0.1463 -0.7484
16458TIP3    H270790   4.801   4.710  15.736  0.9524  1.6152  1.3806
16459TIP3   OH270791   4.586   2.334   4.244  0.2054  0.2420 -0.0802
16459TIP3    H170792   4.564   2.295   4.160 -1.0067  0.1875  0.2517
16459TIP3    H270793   4.667   2.382   4.228 -0.1443  0.4297 -1.3322
16460TIP3   OH270794   6.224   2.116   0.456  0.1469 -0.4876 -0.1262
16460TIP3    H170795   6.153   2.175   0.482  0.0397  0.8634 -3.0574
16460TIP3    H270796   6.188   2.028   0.468 -1.4195  0.1458  0.0058
16461TIP3   OH270797   6.486   5.032  14.507  0.4892  0.0982 -0.7801
16461TIP3    H170798   6.558   4.975  14.479  0.7584 -0.2108  0.5139
16461TIP3    H270799   6.427   4.976  14.557  0.1037  0.6752 -0.5692
16462TIP3   OH270800   5.823   5.481  15.123 -0.4006  0.2873 -0.5205
16462TIP3    H170801   5.822   5.447  15.033 -2.5584 -2.4216  0.3723
16462TIP3    H270802   5.735   5.517  15.135 -0.4867 -0.3273  0.7918
16463TIP3   OH270803   0.626   0.837   2.897  0.7259  0.4891 -0.5868
16463TIP3    H170804   0.718   0.823   2.921  0.4041  0.8812  0.9646
16463TIP3    H270805   0.629   0.903   2.828  1.5983  0.6504 -0.4022
16464TIP3   OH270806   5.015   0.750   4.383 -0.4162 -0.7395 -0.0373
16464TIP3    H170807   5.005   0.801   4.302  0.9936  0.6496  0.6131
16464TIP3    H270808   5.085   0.689   4.363 -1.9067 -2.3120 -0.7171
16465TIP3   OH270809   4.001   3.979   1.074 -0.1625  0.5049  0.6616
16465TIP3    H170810   3.912   3.965   1.108 -0.6508 -1.1305 -1.0971
16465TIP3    H270811   3.988   4.006   0.983  1.1060 -0.3985  0.1828
16466TIP3   OH270812   6.188   5.937   5.091 -0.2786 -0.3777 -0.4871
16466TIP3    H170813   6.243   5.892   5.027 -1.4805 -1.1520 -1.0097
16466TIP3    H270814   6.133   5.996   5.038 -2.3401 -2.1057 -0.4037
16467TIP3   OH270815   1.166   6.718   3.700 -0.2314 -0.5089  0.5432
16467TIP3    H170816   1.141   6.761   3.619 -1.9965 -2.4670 -0.0346
16467TIP3    H270817   1.262   6.720   3.700 -0.1726 -0.7313 -1.7467
16468TIP3   OH270818   0.227   1.256  11.259 -0.0805  0.7051 -0.3135
16468TIP3    H170819   0.287   1.187  11.233 -1.3684 -0.3309 -0.6236
16468TIP3    H270820   0.266   1.336  11.225  1.2375  0.0965 -0.2817
16469TIP3   OH270821   0.373   0.233   0.233 -0.4222  0.2656 -0.2778
16469TIP3    H170822   0.303   0.176   0.265  0.0672 -0.1827  0.0086
16469TIP3    H270823   0.447   0.217   0.292  0.0976  0.3380 -0.8915
16470TIP3   OH270824   2.099   2.645  13.923  0.5112  0.3905  0.2702
16470TIP3    H170825   2.026   2.583  13.923  1.3805 -0.6354  0.6295
16470TIP3    H270826   2.167   2.604  13.975  1.6468  0.9995 -0.6835
16471TIP3   OH270827   4.778   4.073   2.238  0.3075 -0.3121  0.3004
16471TIP3    H170828   4.848   4.017   2.274  0.3495  0.3157  1.2270
16471TIP3    H270829   4.820   4.120   2.166  1.5005  1.6141  2.1211
16472TIP3   OH270830   2.231   0.699   0.822  0.5998 -0.6501  0.1680
16472TIP3    H170831   2.163   0.648   0.778  0.1630 -0.5632  0.7290
16472TIP3    H270832   2.239   0.660   0.909  2.4020 -1.6854 -0.3980
16473TIP3   OH270833   5.226   0.973  14.974  0.5970  0.0473 -0.3051
16473TIP3    H170834   5.302   0.943  14.924  0.9026  3.3565 -2.1411
16473TIP3    H270835   5.256   0.978  15.064  1.2396 -2.4091 -0.2971
16474TIP3   OH270836   5.627   4.514  11.953  0.4231 -0.1717 -0.2499
16474TIP3    H170837   5.692   4.576  11.919 -0.4012 -0.3292 -2.2307
16474TIP3    H270838   5.674   4.464  12.019  3.4739 -2.6325 -3.8644
16475TIP3   OH270839   4.288   0.940  13.265 -0.7611  0.2083 -0.5249
16475TIP3    H170840   4.218   1.004  13.261 -1.7767 -0.8177  0.0340
16475TIP3    H270841   4.244   0.855  13.254 -0.1132 -0.7143  2.7672
16476TIP3   OH270842   3.430   5.914   2.622 -0.2809  0.0338  0.1877
16476TIP3    H170843   3.366   5.851   2.656 -1.5900  0.8470 -0.6778
16476TIP3    H270844   3.381   5.966   2.559  1.3087  0.5715 -0.6555
16477TIP3   OH270845   5.402   0.284  12.869 -0.3548  0.1988  0.0086
16477TIP3    H170846   5.358   0.349  12.814 -1.1290  1.0278  1.5162
16477TIP3    H270847   5.342   0.271  12.943  0.4274 -1.2009  0.4397
16478TIP3   OH270848   5.626   1.162   6.055 -0.1829  0.1843 -0.3138
16478TIP3    H170849   5.583   1.175   6.139 -0.4954  0.0426 -0.4483
16478TIP3    H270850   5.718   1.181   6.071 -0.4053  1.2107 -0.1863
16479TIP3   OH270851   6.280   4.060   0.437  0.2762 -0.1058  0.5477
16479TIP3    H170852   6.213   4.128   0.427 -0.3304 -0.8484 -0.6429
16479TIP3    H270853   6.279   4.013   0.354  0.3511 -1.8711  1.5041
16480TIP3   OH270854   3.329   4.505   1.772 -0.2448 -0.9604  0.2440
16480TIP3    H170855   3.346   4.423   1.725 -0.0699  0.0085 -1.4577
16480TIP3    H270856   3.399   4.564   1.745 -0.1627 -0.3333  1.7255
16481TIP3   OH270857   2.151   3.934   5.563 -0.3951 -0.6455 -0.1342
16481TIP3    H170858   2.110   3.850   5.586  1.5024 -1.7887 -0.6368
16481TIP3    H270859   2.143   3.938   5.467  0.8315 -1.0310 -0.2725
16482TIP3   OH270860   6.291   3.961  17.167 -0.0308  0.5681 -0.2630
16482TIP3    H170861   6.229   4.023  17.128  0.3127  1.4780  0.5958
16482TIP3    H270862   6.242   3.918  17.236 -0.3669 -0.3849 -1.0700
16483TIP3   OH270863   1.678   3.319   5.462 -0.4076  0.4084 -0.5418
16483TIP3    H170864   1.649   3.395   5.410  3.5358  2.5745  0.0326
16483TIP3    H270865   1.695   3.251   5.397  1.1387  1.9117 -1.8046
16484TIP3   OH270866   4.146   6.094   0.324  0.7382 -0.1479 -0.1522
16484TIP3    H170867   4.113   6.173   0.282 -1.6595 -0.7045  0.5045
16484TIP3    H270868   4.092   6.085   0.403  0.8736 -2.4571 -0.2526
16485TIP3   OH270869   6.315   0.601   2.979 -0.2144 -0.2654 -0.4732
16485TIP3    H170870   6.220   0.604   2.992 -0.4066 -3.0991 -0.5242
16485TIP3    H270871   6.351   0.589   3.068 -0.1168 -1.2776 -0.6282
16486TIP3   OH270872   0.693   4.125   4.278 -0.0068  0.2233  0.1030
16486TIP3    H170873   0.618   4.138   4.220 -0.7075  0.0622  0.9532
16486TIP3    H270874   0.754   4.195   4.255 -0.9289  1.0766  0.1868
16487TIP3   OH270875   0.741   1.277  16.240  0.4913 -0.0117 -0.8154
16487TIP3    H170876   0.789   1.219  16.300  1.6849  2.9277  1.2656
16487TIP3    H270877   0.660   1.298  16.287 -0.2597 -0.4689 -1.8646
16488TIP3   OH270878   4.665   6.671   6.040 -0.7124  0.1314 -0.5072
16488TIP3    H170879   4.600   6.602   6.052 -1.2984  0.8427  0.5469
16488TIP3    H270880   4.696   6.659   5.950 -1.4722 -0.9131 -0.6499
16489TIP3   OH270881   4.714   0.096  14.353  0.2663 -0.3355  0.3566
16489TIP3    H170882   4.673   0.076  14.437 -2.0352  1.0582 -0.3621
16489TIP3    H270883   4.705   0.016  14.301 -1.4754 -0.1101  0.2685
16490TIP3   OH270884   5.710   1.461   2.454 -0.1395  0.7478  0.6197
16490TIP3    H170885   5.653   1.528   2.492 -0.4646  1.0471 -0.3804
16490TIP3    H270886   5.730   1.493   2.366 -1.1319 -0.9292 -0.2698
16491TIP3   OH270887   1.687   4.937  11.425 -0.2175  0.0018 -0.0100
16491TIP3    H170888   1.701   5.030  11.444 -1.0668  0.0061  0.6265
16491TIP3    H270889   1.739   4.891  11.491  1.2573 -0.0133 -1.1070
16492TIP3   OH270890   5.584   4.414   3.840 -0.1604  0.6715  0.1713
16492TIP3    H170891   5.576   4.452   3.927  0.6803  0.4294  0.3611
16492TIP3    H270892   5.607   4.487   3.783  0.3599  0.6429  0.3431
16493TIP3   OH270893   2.218   0.188   0.540 -0.2879  0.0280 -0.0373
16493TIP3    H170894   2.290   0.157   0.485  0.9036  1.7448  0.4383
16493TIP3    H270895   2.217   0.283   0.526 -1.8094  0.1627  0.7612
16494TIP3   OH270896   3.911   3.979   1.889 -0.3846 -0.0004  0.2962
16494TIP3    H170897   3.967   3.909   1.922 -2.0610 -1.3406  0.4595
16494TIP3    H270898   3.917   3.973   1.794  0.7147  0.7073  0.3089
16495TIP3   OH270899   4.773   5.254  10.874  0.3427  0.0763  0.3365
16495TIP3    H170900   4.839   5.278  10.809  1.0425 -0.2068  0.9186
16495TIP3    H270901   4.727   5.335  10.893  0.4382  0.2531 -0.1692
16496TIP3   OH270902   4.353   3.788   6.104  0.4644 -0.0874 -0.2737
16496TIP3    H170903   4.413   3.715   6.114 -0.0814 -0.4230  0.5874
16496TIP3    H270904   4.385   3.855   6.165 -0.8425 -0.8171  1.2824
16497TIP3   OH270905   0.308   3.736   5.452  0.0238  0.3991 -0.2850
16497TIP3    H170906   0.327   3.758   5.361  0.6680  1.1223  0.0083
16497TIP3    H270907   0.252   3.807   5.483  0.1318  0.3684 -0.0131
16498TIP3   OH270908   5.397   0.694   1.784 -0.7609  0.5825  0.1091
16498TIP3    H170909   5.460   0.633   1.747 -0.3233  0.1665  1.4834
16498TIP3    H270910   5.440   0.779   1.779 -1.0438  0.6807 -1.0523
16499TIP3   OH270911   3.294   1.592   4.778 -0.6039 -0.2999 -0.3088
16499TIP3    H170912   3.384   1.608   4.748 -0.6295  0.0039 -0.2182
16499TIP3    H270913   3.289   1.496   4.787 -0.8161 -0.4698 -1.9753
16500TIP3   OH270914   2.165   1.028   4.455 -0.2639 -0.7739  0.1855
16500TIP3    H170915   2.141   0.936   4.468  1.1459 -1.0144  1.5019
16500TIP3    H270916   2.112   1.076   4.518  0.6716 -0.9929  1.1782
16501TIP3   OH270917   1.308   0.641   6.611  0.1193 -0.0509  0.3123
16501TIP3    H170918   1.390   0.614   6.569  0.6152  0.6302  0.8323
16501TIP3    H270919   1.240   0.605   6.554  0.7563 -1.4039  0.3452
16502TIP3   OH270920   2.913   5.847  12.116 -0.2645  0.1163 -0.0552
16502TIP3    H170921   2.937   5.913  12.181 -1.7311 -1.4151  2.1793
16502TIP3    H270922   2.986   5.846  12.054  0.8648  2.1588  1.1556
16503TIP3   OH270923   6.487   2.151  11.606 -0.3398  0.0008 -0.3759
16503TIP3    H170924   6.478   2.246  11.609  0.9517  0.1286  1.0668
16503TIP3    H270925   6.400   2.119  11.585 -0.7191  1.5123 -1.2169
16504TIP3   OH270926   1.319   3.064   2.634 -0.1418  0.0196  0.1477
16504TIP3    H170927   1.238   3.075   2.585 -0.2505 -0.4500  0.2199
16504TIP3    H270928   1.388   3.087   2.572 -0.3521  1.0920  0.2874
16505TIP3   OH270929   1.874   0.447   2.128 -0.2866  0.0735  0.4760
16505TIP3    H170930   1.847   0.536   2.151 -0.7679 -0.3348  1.5047
16505TIP3    H270931   1.805   0.390   2.163  0.3381 -0.7538  0.3968
16506TIP3   OH270932   5.776   3.862  11.947  0.3635 -0.1425  0.3653
16506TIP3    H170933   5.768   3.922  11.872 -1.1811  0.3057  0.8491
16506TIP3    H270934   5.868   3.836  11.947  0.5204  0.2798 -1.3539
16507TIP3   OH270935   1.935   5.831  12.152  0.3971  0.0482 -0.0575
16507TIP3    H170936   1.957   5.757  12.095 -0.4719 -0.5249  0.3168
16507TIP3    H270937   1.840   5.823  12.166  0.2757  1.2740 -0.0493
16508TIP3   OH270938   1.044   4.927  15.489 -0.1697  0.4921 -0.0791
16508TIP3    H170939   1.137   4.938  15.508  0.4262  0.1764 -2.4997
16508TIP3    H270940   1.000   4.991  15.546  1.5214  0.7042  1.0366
16509TIP3   OH270941   3.223   5.560   2.119 -0.3345 -0.6892 -0.4002
16509TIP3    H170942   3.140   5.512   2.129 -0.9824  0.7462  1.9274
16509TIP3    H270943   3.198   5.642   2.076 -0.1971 -0.1459  0.5294
16510TIP3   OH270944   5.171   2.247  16.709 -0.1681 -0.3342  0.1298
16510TIP3    H170945   5.264   2.239  16.729 -0.6043 -0.2746  2.4790
16510TIP3    H270946   5.134   2.162  16.733 -0.7095 -0.4635 -1.0792
16511TIP3   OH270947   2.368   1.160  11.332 -0.1810  0.2432 -0.3188
16511TIP3    H170948   2.391   1.219  11.403  0.7938  0.7670 -1.0425
16511TIP3    H270949   2.286   1.196  11.297 -0.1708  0.5345 -0.0489
16512TIP3   OH270950   4.106   4.391  15.572  0.7460  0.0923 -0.1867
16512TIP3    H170951   4.114   4.482  15.600 -1.6154  0.3882 -0.2364
16512TIP3    H270952   4.112   4.394  15.477  0.7372  0.1973 -0.1841
16513TIP3   OH270953   3.416   0.166   4.565  0.5311 -0.3333  0.3696
16513TIP3    H170954   3.334   0.143   4.521  0.2352 -1.9745  1.6682
16513TIP3    H270955   3.462   0.083   4.576  2.7221  0.6264 -0.9135
16514TIP3   OH270956   3.667   4.329   1.825  0.0727  0.4163  0.2358
16514TIP3    H170957   3.644   4.236   1.827 -0.8187  0.6265 -0.0153
16514TIP3    H270958   3.677   4.350   1.732 -2.1437  1.1288  0.1049
16515TIP3   OH270959   5.379   0.517  11.103  0.0287 -0.1214 -0.3077
16515TIP3    H170960   5.342   0.554  11.023 -0.4124 -2.0661 -1.0544
16515TIP3    H270961   5.344   0.428  11.107  1.5025 -0.6930  1.0706
16516TIP3   OH270962   5.177   4.571  17.001 -0.4061  0.1639  0.2028
16516TIP3    H170963   5.265   4.593  16.973 -0.9927 -0.0418 -1.9813
16516TIP3    H270964   5.122   4.641  16.966 -1.4803 -1.3375 -1.3250
16517TIP3   OH270965   5.063   2.996  17.321  0.1141  0.7825 -0.0396
16517TIP3    H170966   5.055   3.077  17.271  2.3874  2.8326  2.5705
16517TIP3    H270967   5.146   2.957  17.292 -0.9407 -0.6851 -1.2480
16518TIP3   OH270968   1.333   5.163   2.017 -0.6278  0.2240  0.5613
16518TIP3    H170969   1.283   5.088   2.051 -0.5600 -0.0326  0.1168
16518TIP3    H270970   1.317   5.233   2.079 -0.0894 -0.3737  1.3928
16519TIP3   OH270971   0.062   3.789  14.558  0.2174 -0.4319 -0.0778
16519TIP3    H170972   0.073   3.844  14.636 -1.7198 -1.9314  1.3413
16519TIP3    H270973   0.016   3.846  14.496 -0.4020  0.0579  0.7932
16520TIP3   OH270974   5.694   2.616   5.119  0.3162 -0.2734 -0.0610
16520TIP3    H170975   5.689   2.538   5.174  1.6134 -0.7769 -0.6104
16520TIP3    H270976   5.687   2.689   5.180 -3.5168 -0.6909  0.2440
16521TIP3   OH270977   6.055   6.113   0.291  0.3229  0.0924 -0.4632
16521TIP3    H170978   6.090   6.159   0.368  1.0004  0.7067 -1.1215
16521TIP3    H270979   6.126   6.117   0.227 -0.7000  0.7214 -1.5890
16522TIP3   OH270980   6.123   0.619   2.473 -0.1973 -0.3152 -0.2882
16522TIP3    H170981   6.205   0.667   2.468  0.0263 -0.5521  0.8624
16522TIP3    H270982   6.065   0.675   2.525  0.1966 -1.4382  1.4114
16523TIP3   OH270983   1.416   2.672   5.671  0.9424  0.2556 -0.2581
16523TIP3    H170984   1.491   2.651   5.726  0.9275  0.7388 -0.0566
16523TIP3    H270985   1.438   2.635   5.586 -0.0062 -2.5842  0.6089
16524TIP3   OH270986   5.521   0.881  15.137 -0.0996  0.8049  0.4361
16524TIP3    H170987   5.501   0.802  15.085  1.8242  1.6277 -1.6895
16524TIP3    H270988   5.546   0.847  15.223  0.2272 -0.8775 -0.2817
16525TIP3   OH270989   6.428   6.357   4.415 -0.3627 -0.3219  0.1906
16525TIP3    H170990   6.485   6.394   4.347 -0.7402  1.7467  0.9330
16525TIP3    H270991   6.440   6.262   4.406  1.1064 -0.0542 -1.4458
16526TIP3   OH270992   2.873   4.438  17.306 -0.2542  0.1382 -0.1959
16526TIP3    H170993   2.860   4.503  17.376 -1.3329 -0.6429  0.3727
16526TIP3    H270994   2.956   4.461  17.267  0.1718  0.8769  1.0740
16527TIP3   OH270995   6.662   5.379   4.840  0.2093  0.0728  0.7277
16527TIP3    H170996   6.679   5.309   4.904  2.5780  0.1443  0.2542
16527TIP3    H270997   6.747   5.418   4.824 -0.6762  1.4380 -0.9337
16528TIP3   OH270998   1.956   4.916   2.471  0.3429  0.0250  0.4364
16528TIP3    H170999   1.992   4.973   2.539  1.0517 -0.4012  0.4312
16528TIP3    H271000   1.861   4.923   2.481  0.4367  0.2508  1.2316
16529TIP3   OH271001   3.371   3.841   6.019  0.3192  0.0819 -0.2486
16529TIP3    H171002   3.466   3.848   6.030  0.2877 -0.4578  0.4552
16529TIP3    H271003   3.334   3.868   6.103 -0.2529  2.0473 -1.0852
16530TIP3   OH271004   3.125   5.428  12.568  0.2356  0.0303 -0.0015
16530TIP3    H171005   3.037   5.392  12.575 -0.6413  1.2903 -3.0095
16530TIP3    H271006   3.164   5.383  12.494  1.6268  0.4662  0.4363
16531TIP3   OH271007   4.526   5.078   5.237  0.2048 -0.3936  0.5484
16531TIP3    H171008   4.527   5.060   5.331 -0.6894 -0.1531  0.6120
16531TIP3    H271009   4.591   5.148   5.225  0.0180 -0.1310  1.0485
16532TIP3   OH271010   4.829   2.141  16.544  0.0171 -0.2092 -0.4170
16532TIP3    H171011   4.905   2.185  16.503 -0.5483 -0.6796 -2.0700
16532TIP3    H271012   4.753   2.179  16.500 -0.6182 -0.9900 -0.0150
16533TIP3   OH271013   3.798   4.077  17.193  0.8480  0.0697 -0.2890
16533TIP3    H171014   3.747   4.110  17.267  0.6587  0.3665 -0.5503
16533TIP3    H271015   3.764   3.988  17.179 -0.3794  0.6425 -1.1542
16534TIP3   OH271016   0.695   1.809  16.781 -0.4093 -0.3418  0.6733
16534TIP3    H171017   0.617   1.759  16.758  0.9393 -1.6283 -1.4615
16534TIP3    H271018   0.755   1.796  16.707  1.7139  0.8685  2.0612
16535TIP3   OH271019   1.059   0.064   7.012  0.2049 -0.1687  0.1328
16535TIP3    H171020   0.974   0.059   6.968 -0.3585  0.8616  1.0607
16535TIP3    H271021   1.110   0.127   6.960  0.8484 -1.6268 -1.0871
16536TIP3   OH271022   6.450   1.813  11.725  0.2698  0.1067 -0.1848
16536TIP3    H171023   6.479   1.738  11.777 -0.0756  1.3627  1.9602
16536TIP3    H271024   6.357   1.823  11.748  0.4450  1.5000  0.0358
16537TIP3   OH271025   4.215   4.163  11.734 -0.5104  0.4185 -0.0678
16537TIP3    H171026   4.174   4.239  11.693  2.1100  1.0295 -1.8603
16537TIP3    H271027   4.285   4.139  11.673 -0.9099 -3.1516  0.7036
16538TIP3   OH271028   5.386   1.776   5.116 -0.5850 -0.3701  0.3317
16538TIP3    H171029   5.372   1.867   5.142 -1.4275 -0.4972  0.3552
16538TIP3    H271030   5.309   1.754   5.063 -0.8364 -1.3400  1.0651
16539TIP3   OH271031   5.250   2.427   0.274 -0.1817 -0.1469 -0.2758
16539TIP3    H171032   5.342   2.421   0.299  0.5040  1.7412 -2.1249
16539TIP3    H271033   5.217   2.504   0.320 -0.7677 -0.5982  0.0854
16540TIP3   OH271034   3.275   2.838  14.142 -0.5025 -0.0402 -0.9198
16540TIP3    H171035   3.355   2.787  14.157 -1.3532 -0.9762  0.7467
16540TIP3    H271036   3.225   2.828  14.223 -2.2779  0.5955 -1.8868
16541TIP3   OH271037   3.798   0.577  11.587 -0.0746 -0.5709  0.4390
16541TIP3    H171038   3.723   0.543  11.636 -0.3417 -1.4563 -0.5599
16541TIP3    H271039   3.760   0.638  11.524  0.2623  0.5003  1.2448
16542TIP3   OH271040   3.883   2.317  10.597 -0.0833  0.6603  0.0215
16542TIP3    H171041   3.851   2.299  10.685  2.0789 -0.8000  0.5879
16542TIP3    H271042   3.813   2.286  10.539 -0.4473 -0.7982  1.1873
16543TIP3   OH271043   2.836   5.769  13.843 -0.1169  0.2673  0.4557
16543TIP3    H171044   2.774   5.825  13.799 -1.4254  0.2063  2.1133
16543TIP3    H271045   2.848   5.808  13.930  1.7858 -0.0034  0.3722
16544TIP3   OH271046   0.261   1.787   1.029  0.1320  0.0870 -0.1411
16544TIP3    H171047   0.316   1.862   1.005  0.1717  0.8798  2.1630
16544TIP3    H271048   0.297   1.756   1.113 -1.4083 -0.9340  0.1928
16545TIP3   OH271049   6.251   5.254  12.709  0.1563 -0.1659 -0.6315
16545TIP3    H171050   6.312   5.265  12.636  1.2823 -1.3761  0.0847
16545TIP3    H271051   6.283   5.314  12.776 -1.5941  1.8563 -1.5091
16546TIP3   OH271052   2.738   5.670  11.699  0.6470  0.1932  0.1902
16546TIP3    H171053   2.759   5.760  11.675 -0.4134  0.2536 -0.5920
16546TIP3    H271054   2.659   5.649  11.649  0.4480 -0.9243  0.9187
16547TIP3   OH271055   3.347   1.086  11.525  0.1739 -0.5215  0.6636
16547TIP3    H171056   3.362   1.103  11.432 -0.1537  0.4185  0.7783
16547TIP3    H271057   3.425   1.120  11.569 -0.3686  0.5002  0.8681
16548TIP3   OH271058   6.206   5.026  16.580 -0.1013  0.3221  0.6228
16548TIP3    H171059   6.165   5.108  16.609 -0.1733  0.8138 -0.7903
16548TIP3    H271060   6.283   5.016  16.636  0.3284  1.7569  0.3075
16549TIP3   OH271061   6.541   3.388   6.140 -0.0168 -0.1200  0.3157
16549TIP3    H171062   6.465   3.405   6.196 -0.5214  0.6447 -0.5787
16549TIP3    H271063   6.611   3.365   6.202  0.8277  5.2126  1.9302
16550TIP3   OH271064   1.359   6.488   5.015  0.4047 -0.1060 -0.4729
16550TIP3    H171065   1.416   6.436   4.960  0.8748  1.1320 -1.2000
16550TIP3    H271066   1.271   6.456   4.996  0.5447  0.4297 -2.1020
16551TIP3   OH271067   3.820   2.854   0.828 -0.3822 -0.7194  0.1381
16551TIP3    H171068   3.839   2.904   0.908  1.1712 -0.5268 -0.3276
16551TIP3    H271069   3.731   2.879   0.805  0.4163  2.1762 -0.2654
16552TIP3   OH271070   3.037   1.170   2.183  0.1591  0.3610  0.0844
16552TIP3    H171071   3.071   1.192   2.270  0.2740  0.4852  0.0089
16552TIP3    H271072   2.983   1.092   2.197 -0.2286  0.6731  0.3471
16553TIP3   OH271073   4.030   6.725   0.573  0.1685  0.0244 -0.7179
16553TIP3    H171074   4.086   6.759   0.642  0.1942  1.1092 -1.2566
16553TIP3    H271075   3.941   6.742   0.604  0.1722  0.1657 -0.7861
16554TIP3   OH271076   4.613   4.889   1.950 -0.1504  0.2481  0.5262
16554TIP3    H171077   4.622   4.971   1.902 -0.5035  1.5423  2.5996
16554TIP3    H271078   4.701   4.850   1.945  0.3979  1.4169  0.6909
16555TIP3   OH271079   4.027   6.417   4.564  0.2897  0.1202 -0.7282
16555TIP3    H171080   4.012   6.334   4.610  0.1581  1.1179  1.1093
16555TIP3    H271081   4.108   6.451   4.601  0.8226  0.4186 -2.1067
16556TIP3   OH271082   3.436   5.373   5.882  0.0105 -0.3200 -0.3927
16556TIP3    H171083   3.514   5.416   5.917  0.1593 -0.4263 -0.5896
16556TIP3    H271084   3.367   5.390   5.946  0.0834  0.1581 -0.4430
16557TIP3   OH271085   0.670   2.931  14.950 -0.2288 -0.1080  0.1708
16557TIP3    H171086   0.603   2.992  14.920  0.0958  0.3486  0.3660
16557TIP3    H271087   0.713   2.901  14.870 -0.5639 -0.2855  0.0566
16558TIP3   OH271088   6.158   4.448  12.438  0.2956 -0.2984 -0.6290
16558TIP3    H171089   6.117   4.501  12.370 -0.8817  0.1810  0.4298
16558TIP3    H271090   6.216   4.388  12.390  0.3243  0.7548 -1.9587
16559TIP3   OH271091   1.067   0.782  17.119 -0.4736  0.1630 -0.6978
16559TIP3    H171092   1.033   0.712  17.064 -0.4329  1.0824 -1.9223
16559TIP3    H271093   1.144   0.814  17.073  2.3082 -1.9375  2.0675
16560TIP3   OH271094   1.357   0.550  14.399 -0.4422 -0.2708 -0.4143
16560TIP3    H171095   1.261   0.551  14.403 -0.5065 -1.0678 -1.3841
16560TIP3    H271096   1.385   0.524  14.487 -1.1736 -1.3216 -0.4699
16561TIP3   OH271097   3.813   4.106   2.340 -0.2825 -0.7232 -0.6588
16561TIP3    H171098   3.781   4.146   2.259 -2.5374 -0.7546  0.1349
16561TIP3    H271099   3.906   4.127   2.342 -0.5945  1.1186 -2.1885
16562TIP3   OH271100   6.164   0.700  11.860 -0.2443  0.0214  0.1229
16562TIP3    H171101   6.107   0.686  11.785 -1.6340 -0.8316  1.2803
16562TIP3    H271102   6.171   0.795  11.868  0.2900  0.1193 -1.3257
16563TIP3   OH271103   1.395   6.599  14.487 -0.6315  0.6065 -0.1682
16563TIP3    H171104   1.409   6.574  14.396 -0.8487  1.2300 -0.3822
16563TIP3    H271105   1.479   6.582  14.530 -0.5608  0.2129 -0.4605
16564TIP3   OH271106   2.316   1.863   4.354  0.2510 -0.1217  1.0240
16564TIP3    H171107   2.345   1.914   4.429 -3.9840  1.4623  1.8316
16564TIP3    H271108   2.320   1.923   4.280 -1.1001  0.2572  1.2245
16565TIP3   OH271109   5.802   3.753   3.760 -0.7549  0.0991 -0.2799
16565TIP3    H171110   5.895   3.754   3.781 -0.3638  1.6823 -1.8526
16565TIP3    H271111   5.759   3.789   3.838  0.0198  0.1216  0.1386
16566TIP3   OH271112   6.360   6.719   3.393 -0.1197  0.0205  0.1396
16566TIP3    H171113   6.448   6.705   3.360  0.7211 -0.1190  2.3153
16566TIP3    H271114   6.316   6.635   3.383  1.8946 -1.7767  4.3214
16567TIP3   OH271115   5.971   4.942  16.420 -0.5374  0.1339  0.0979
16567TIP3    H171116   5.983   4.857  16.378  0.9638 -0.5535  1.8241
16567TIP3    H271117   6.053   4.988  16.404  0.0248 -0.0992  2.0891
16568TIP3   OH271118   2.102   0.774   1.860 -0.0644 -1.1341 -0.6204
16568TIP3    H171119   2.172   0.755   1.797 -1.4702 -2.4043 -1.8815
16568TIP3    H271120   2.049   0.695   1.861 -1.2963 -0.3370  0.5808
16569TIP3   OH271121   5.689   5.932  15.411 -0.5900 -0.4073  0.8225
16569TIP3    H171122   5.620   5.920  15.476  0.0749 -2.1274  1.2721
16569TIP3    H271123   5.748   5.996  15.449 -2.1925  1.5688  0.1660
16570TIP3   OH271124   5.430   1.611  13.864  0.1017 -0.4077 -0.3284
16570TIP3    H171125   5.434   1.622  13.769  1.1789 -0.4320 -0.2924
16570TIP3    H271126   5.336   1.601  13.882 -0.2916  1.3534 -1.1716
16571TIP3   OH271127   1.018   3.885   0.891 -0.0204 -0.1287 -0.5794
16571TIP3    H171128   1.011   3.868   0.985  1.7994  1.7678 -0.0323
16571TIP3    H271129   0.931   3.914   0.865 -0.0216  1.5175  1.0615
16572TIP3   OH271130   2.087   0.900  15.733 -0.2279  0.2285  0.7696
16572TIP3    H171131   2.053   0.963  15.668  0.0233 -0.9153 -0.5253
16572TIP3    H271132   2.015   0.839  15.747  0.0173 -0.0299  0.9084
16573TIP3   OH271133   1.600   6.055  14.293  0.6518  0.4349 -0.4473
16573TIP3    H171134   1.528   5.994  14.280  0.7361  0.0033  0.9720
16573TIP3    H271135   1.594   6.081  14.385  3.8617 -1.6902  0.5228
16574TIP3   OH271136   2.279   0.047   2.999 -0.1160  0.4587 -0.7614
16574TIP3    H171137   2.212  -0.000   3.049 -1.5269  3.2109  0.1777
16574TIP3    H271138   2.283   0.001   2.915 -1.2742 -1.3713  0.1157
16575TIP3   OH271139   2.466   0.768  11.603  0.0821  0.4163  0.5905
16575TIP3    H171140   2.536   0.780  11.667  1.2854 -0.6431 -0.4692
16575TIP3    H271141   2.512   0.758  11.519 -1.2974 -0.8523 -0.0560
16576TIP3   OH271142   3.947   2.720  14.824 -0.1881  0.8244  0.3697
16576TIP3    H171143   4.023   2.664  14.814 -0.2993  0.5674  0.9023
16576TIP3    H271144   3.950   2.780  14.749  0.7806  1.1107  0.6265
16577TIP3   OH271145   5.653   5.591   1.550  0.5123 -0.0096 -0.1900
16577TIP3    H171146   5.741   5.554   1.544  1.3869  1.5079  1.9985
16577TIP3    H271147   5.658   5.674   1.504 -0.9987 -1.6339 -3.6325
16578TIP3   OH271148   6.249   2.646   4.263 -0.8655  0.3468  0.1135
16578TIP3    H171149   6.211   2.702   4.196  0.2160  1.7581  0.6089
16578TIP3    H271150   6.175   2.616   4.315 -1.5612  0.5583 -0.7436
16579TIP3   OH271151   5.680   6.002   1.070 -0.7474 -0.3094 -0.0363
16579TIP3    H171152   5.750   6.032   1.012 -0.9392  2.3886  0.9869
16579TIP3    H271153   5.604   5.991   1.013  0.5645 -4.5549 -1.4270
16580TIP3   OH271154   1.135   3.826   5.857  0.1673  0.1958  0.6518
16580TIP3    H171155   1.099   3.901   5.903 -0.8291  0.0458  0.1334
16580TIP3    H271156   1.114   3.751   5.913  0.4185  0.2001  0.7549
16581TIP3   OH271157   6.473   5.199  15.069  1.0673 -0.0301 -0.1536
16581TIP3    H171158   6.544   5.180  15.007  0.2562  0.0009 -1.1251
16581TIP3    H271159   6.461   5.293  15.062  0.7767 -0.0696 -0.1674
16582TIP3   OH271160   2.848   5.724  13.073  0.2299 -0.1501  0.5469
16582TIP3    H171161   2.904   5.801  13.084 -0.7048  0.6514 -0.0878
16582TIP3    H271162   2.900   5.663  13.022  0.2549  0.9256 -0.7768
16583TIP3   OH271163   6.701   4.409  16.680  0.2881  0.5808 -0.1153
16583TIP3    H171164   6.781   4.418  16.628  0.0786 -1.0192 -0.7840
16583TIP3    H271165   6.635   4.458  16.630 -0.5865 -3.1196 -3.0660
16584TIP3   OH271166   4.235   1.239  16.000 -0.1517  0.5121 -0.4843
16584TIP3    H171167   4.290   1.316  16.013 -2.2743  2.2592 -1.1207
16584TIP3    H271168   4.212   1.242  15.907 -1.1474 -0.2401 -0.2798
16585TIP3   OH271169   4.685   6.360  13.064 -0.2728 -0.0555 -0.2751
16585TIP3    H171170   4.596   6.391  13.043 -0.0945 -0.2387 -1.3552
16585TIP3    H271171   4.738   6.439  13.065 -0.3354 -0.0133 -0.2696
16586TIP3   OH271172   3.304   2.874   3.459 -0.9102  0.5647  0.2258
16586TIP3    H171173   3.383   2.924   3.443 -0.4142 -0.6517 -1.4712
16586TIP3    H271174   3.320   2.829   3.541  0.7584 -0.6630 -0.7061
16587TIP3   OH271175   4.281   0.707  16.750 -0.4324  0.3861 -0.2357
16587TIP3    H171176   4.191   0.738  16.757 -0.3399  1.3115 -2.3036
16587TIP3    H271177   4.289   0.675  16.660  0.4545 -2.7032  0.8298
16588TIP3   OH271178   4.918   3.668  12.048 -0.2306  0.4572  0.3077
16588TIP3    H171179   4.962   3.604  12.104  0.7346  0.8464  0.0140
16588TIP3    H271180   4.948   3.647  11.959  0.4236  1.5594  0.2516
16589TIP3   OH271181   0.935   0.500  15.401  0.4560 -0.6338 -0.4143
16589TIP3    H171182   0.888   0.448  15.467  1.3776 -1.8397 -0.6774
16589TIP3    H271183   0.879   0.576  15.386 -1.5044 -2.0924 -0.8497
16590TIP3   OH271184   4.895   2.665  12.588  0.0854 -0.2364 -0.2876
16590TIP3    H171185   4.826   2.706  12.535 -0.2678 -0.3922  0.0431
16590TIP3    H271186   4.941   2.608  12.527 -0.6963 -0.8662 -0.2981
16591TIP3   OH271187   2.057   1.699  13.438 -0.5199  0.1233  0.1159
16591TIP3    H171188   1.964   1.695  13.462 -0.2728  1.5788  1.4976
16591TIP3    H271189   2.059   1.756  13.361 -0.7972 -0.2464 -0.1707
16592TIP3   OH271190   5.265   1.283  14.463  0.1415 -0.3256 -0.0988
16592TIP3    H171191   5.324   1.299  14.390  0.0485  1.7516  0.2116
16592TIP3    H271192   5.269   1.364  14.515 -3.8627  0.5191 -0.7577
16593TIP3   OH271193   6.374   1.564  13.006  0.2692 -0.6594  0.4394
16593TIP3    H171194   6.447   1.622  12.983  1.4759 -1.7596  1.2988
16593TIP3    H271195   6.403   1.520  13.086 -2.3296  0.5871  2.2143
16594TIP3   OH271196   4.080   0.323   1.025 -0.4090 -0.3594 -0.4521
16594TIP3    H171197   3.993   0.294   0.997 -0.4081 -0.3419 -0.4726
16594TIP3    H271198   4.068   0.416   1.048 -0.4393 -0.4089 -0.2668
16595TIP3   OH271199   6.133   4.822   5.103 -0.6390 -0.3745 -0.2127
16595TIP3    H171200   6.111   4.772   5.182 -2.7841  1.3439  0.3805
16595TIP3    H271201   6.208   4.875   5.128 -1.1058 -0.0781  0.5862
16596TIP3   OH271202   1.238   0.370  13.872 -0.3716 -0.1339  0.6443
16596TIP3    H171203   1.150   0.333  13.876 -0.9502  0.9315 -1.1829
16596TIP3    H271204   1.258   0.376  13.778  0.1502  3.0173  0.8371
16597TIP3   OH271205   2.075   0.310  12.514 -0.5107 -0.0096  0.3970
16597TIP3    H171206   1.986   0.335  12.488 -0.1715 -0.1803 -1.0166
16597TIP3    H271207   2.084   0.344  12.603 -0.9220  2.7882 -0.5034
16598TIP3   OH271208   1.332   2.667   2.645  0.3743 -0.4362 -0.1233
16598TIP3    H171209   1.386   2.642   2.570  1.6709  0.6689  0.3884
16598TIP3    H271210   1.359   2.607   2.715  1.4755  0.5294  0.3192
16599TIP3   OH271211   5.831   5.037  16.900 -0.2055 -0.0186  0.4883
16599TIP3    H171212   5.834   5.006  16.810 -0.7090  0.3519  0.3390
16599TIP3    H271213   5.768   4.980  16.944  0.0151 -0.1787  0.6059
16600TIP3   OH271214   5.951   0.634   5.257  0.7951  0.4221  0.3781
16600TIP3    H171215   6.015   0.578   5.214 -0.0780  0.8174 -1.5542
16600TIP3    H271216   5.881   0.574   5.284  1.4399  0.1429  1.4337
16601TIP3   OH271217   1.862   1.159  11.494  0.2415 -0.8965  0.1597
16601TIP3    H171218   1.906   1.165  11.579 -2.9749 -1.2981  2.0352
16601TIP3    H271219   1.770   1.178  11.514 -0.7295 -1.4809 -3.1958
16602TIP3   OH271220   1.164   0.845  13.596 -0.1472 -0.0054  0.1017
16602TIP3    H171221   1.258   0.851  13.583 -0.0213 -2.1646 -0.3321
16602TIP3    H271222   1.129   0.925  13.556  1.5869  1.7641  1.9196
16603TIP3   OH271223   3.111   0.369   3.075  0.7977 -0.1428 -0.3479
16603TIP3    H171224   3.028   0.410   3.049 -0.0028 -2.2137 -1.3292
16603TIP3    H271225   3.154   0.434   3.130 -0.5665  1.7804 -1.4501
16604TIP3   OH271226   3.542   5.984  13.830 -0.1067  0.2334  0.5591
16604TIP3    H171227   3.498   6.015  13.909 -0.6935  0.1391  0.2739
16604TIP3    H271228   3.539   5.888  13.838  0.1252  0.2282  0.5822
16605TIP3   OH271229   6.330   0.953  11.853 -0.6669  0.2355  0.0236
16605TIP3    H171230   6.293   0.988  11.935  2.3286 -0.6471  1.9181
16605TIP3    H271231   6.425   0.963  11.864 -0.0824 -1.6257 -2.5853
16606TIP3   OH271232   6.263   1.056  12.596 -0.0616  0.2629  0.2124
16606TIP3    H171233   6.247   1.086  12.507 -2.6321  0.2274  0.6040
16606TIP3    H271234   6.291   0.965  12.586  1.9451  0.8999 -0.6200
16607TIP3   OH271235   1.514   0.116   5.194 -0.1230 -0.5673 -0.1045
16607TIP3    H171236   1.542   0.204   5.168 -2.1219 -0.1595 -1.0562
16607TIP3    H271237   1.507   0.068   5.111  1.2140 -1.7405  0.4248
16608TIP3   OH271238   4.190   4.730  14.160  0.1741  0.0200 -0.2200
16608TIP3    H171239   4.132   4.798  14.193 -0.0724 -0.7474  0.9711
16608TIP3    H271240   4.255   4.777  14.107 -0.1648  1.1404  0.3417
16609TIP3   OH271241   0.331   0.159   1.747 -0.3411 -0.5030  0.2705
16609TIP3    H171242   0.300   0.070   1.735 -0.8841 -0.0798 -1.9231
16609TIP3    H271243   0.424   0.157   1.723 -0.3084 -0.5141  0.3980
16610TIP3   OH271244   0.274   0.656  15.647 -0.2281  0.1498  0.1723
16610TIP3    H171245   0.229   0.740  15.652 -0.2586  0.1583 -0.2116
16610TIP3    H271246   0.228   0.608  15.577  0.4925  0.2469 -0.3835
16611TIP3   OH271247   2.302   5.093  16.337  0.4479  0.7475  0.0365
16611TIP3    H171248   2.389   5.110  16.300  0.7429 -1.2476 -0.3031
16611TIP3    H271249   2.266   5.180  16.355  1.8375  1.6621 -1.3643
16612TIP3   OH271250   5.170   3.091  12.406 -0.6845 -0.3022 -0.1891
16612TIP3    H171251   5.195   3.044  12.486 -1.8372  1.3337  1.2059
16612TIP3    H271252   5.209   3.177  12.416 -1.9907  0.3784 -0.6919
16613TIP3   OH271253   3.204   0.786  10.499 -0.5413 -0.4717 -0.1238
16613TIP3    H171254   3.243   0.838  10.570 -1.1111 -1.6995  1.1426
16613TIP3    H271255   3.240   0.823  10.419 -1.6212  2.4844  0.6304
16614TIP3   OH271256   2.911   4.225  17.016 -0.0243 -0.2619 -0.3591
16614TIP3    H171257   2.888   4.150  16.961 -0.5209 -0.5312  0.1999
16614TIP3    H271258   2.943   4.186  17.097  0.6534  0.1326 -0.4248
16615TIP3   OH271259   2.714   2.358   3.051  0.1457  0.4504 -0.2473
16615TIP3    H171260   2.647   2.422   3.026 -0.0908  1.3833  2.4315
16615TIP3    H271261   2.722   2.367   3.146  3.7301  0.0077 -0.3674
16616TIP3   OH271262   6.528   5.940  14.091  0.5815 -0.3186 -0.0343
16616TIP3    H171263   6.578   5.929  14.010 -1.6135 -0.1709 -1.5002
16616TIP3    H271264   6.467   5.866  14.092  0.2087 -0.0317  1.2342
16617TIP3   OH271265   5.525   1.230  15.646 -0.0730  0.7424  0.2037
16617TIP3    H171266   5.457   1.210  15.710 -2.1194  0.7689 -1.8271
16617TIP3    H271267   5.506   1.173  15.572  4.5087 -2.1177  0.8688
16618TIP3   OH271268   1.174   6.569  16.757 -0.1872 -0.4985 -0.7307
16618TIP3    H171269   1.242   6.584  16.692 -0.2290 -1.3017 -0.9758
16618TIP3    H271270   1.111   6.512  16.713  0.9273 -3.0186  0.6812
16619TIP3   OH271271   5.901   1.888   1.116 -0.5481  0.0297 -0.0449
16619TIP3    H171272   5.867   1.906   1.028 -1.5033 -0.4177  0.2182
16619TIP3    H271273   5.917   1.794   1.117  0.2502  0.1549  0.0090
16620TIP3   OH271274   2.119   3.434  13.690  0.1570  0.2905 -0.2186
16620TIP3    H171275   2.083   3.395  13.770 -2.0405  1.4983 -0.5226
16620TIP3    H271276   2.190   3.490  13.721  0.5087 -0.5948  0.6658
16621TIP3   OH271277   0.537   4.543  14.482 -0.4805 -0.1968  0.2027
16621TIP3    H171278   0.617   4.491  14.488  1.0695  2.2191  2.3866
16621TIP3    H271279   0.528   4.562  14.388  0.3351 -2.1331 -0.3113
16622TIP3   OH271280   4.999   3.965  12.972 -0.2695  0.1443  0.0496
16622TIP3    H171281   5.037   3.963  13.059  1.5023  0.8808 -0.6656
16622TIP3    H271282   5.059   3.914  12.918 -1.6676 -0.8310 -0.6578
16623TIP3   OH271283   5.887   6.081   5.327 -0.7809  0.1059  0.5298
16623TIP3    H171284   5.949   6.009   5.327  0.1356  0.8366 -1.1051
16623TIP3    H271285   5.892   6.118   5.415 -0.8055 -1.3995  1.1942
16624TIP3   OH271286   4.307   5.433   0.202  0.4288  0.5196 -0.1258
16624TIP3    H171287   4.216   5.418   0.177  0.7018  0.2803 -1.0209
16624TIP3    H271288   4.357   5.376   0.143  1.2329  1.7362 -0.6430
16625TIP3   OH271289   1.212   2.127   1.565  0.2231  0.2867  0.4015
16625TIP3    H171290   1.259   2.144   1.484 -0.3146  2.0615  0.4262
16625TIP3    H271291   1.258   2.178   1.631  0.1342 -0.4520  1.0529
16626TIP3   OH271292   4.516   2.543   3.560 -0.3837  0.0551  0.1804
16626TIP3    H171293   4.534   2.492   3.481  1.7352  0.1392  0.5318
16626TIP3    H271294   4.566   2.624   3.548 -2.2619  1.3236  0.4191
16627TIP3   OH271295   1.748   5.945   4.236 -0.1716 -0.3798 -0.4776
16627TIP3    H171296   1.728   6.036   4.216 -0.4333 -0.4640 -0.6054
16627TIP3    H271297   1.778   5.908   4.154 -0.7411 -0.5886 -0.6000
16628TIP3   OH271298   3.105   0.827   1.620 -0.2129  0.0715 -0.0673
16628TIP3    H171299   3.043   0.896   1.642 -2.3281 -1.8904  0.6186
16628TIP3    H271300   3.104   0.769   1.697 -1.5741 -2.7270 -1.9957
16629TIP3   OH271301   2.680   0.567  17.149  0.4045  0.0601 -0.3670
16629TIP3    H171302   2.589   0.556  17.119 -0.3343 -0.9737  2.0017
16629TIP3    H271303   2.672   0.602  17.237  2.3513  0.3875 -0.2847
16630TIP3   OH271304   1.806   2.335  12.270 -0.6460  0.0982 -0.8663
16630TIP3    H171305   1.837   2.365  12.184  1.7032  0.7111  0.1030
16630TIP3    H271306   1.830   2.242  12.272  1.7228  0.6485  0.0156
16631TIP3   OH271307   1.740   3.177   0.418 -0.2586  0.5875 -0.3651
16631TIP3    H171308   1.646   3.192   0.432  0.3041  2.7287  1.7975
16631TIP3    H271309   1.748   3.158   0.325 -2.9471 -0.7993 -0.4174
16632TIP3   OH271310   5.277   6.019   3.087 -0.1016  0.1539 -0.2161
16632TIP3    H171311   5.219   6.095   3.079  1.0310  1.0399 -0.3532
16632TIP3    H271312   5.346   6.035   3.023 -0.3479 -1.5025 -0.9498
16633TIP3   OH271313   4.931   1.269  14.488  0.2205 -0.6406 -0.5186
16633TIP3    H171314   4.892   1.325  14.421  0.9497  0.5539  0.0187
16633TIP3    H271315   4.915   1.315  14.571  1.9041 -0.5608 -0.1845
16634TIP3   OH271316   4.412   4.779   4.529  0.3186 -0.3189  0.5082
16634TIP3    H171317   4.441   4.841   4.596 -0.1456 -1.7222  2.0485
16634TIP3    H271318   4.352   4.830   4.474 -0.6443  0.4203  2.1933
16635TIP3   OH271319   4.943   1.377  17.205  0.4062 -0.2801  0.1151
16635TIP3    H171320   4.864   1.325  17.217 -0.0840  0.3352 -0.3872
16635TIP3    H271321   5.014   1.319  17.233 -0.2766 -0.5622  1.3278
16636TIP3   OH271322   5.716   0.942  14.938 -0.7285  0.0278 -0.1525
16636TIP3    H171323   5.658   0.945  15.014 -1.4509 -0.8668 -0.6444
16636TIP3    H271324   5.723   1.033  14.909  1.1992  0.6970  2.1662
16637TIP3   OH271325   1.366   6.445  12.080  0.3834 -0.6125  0.2680
16637TIP3    H171326   1.411   6.512  12.028  0.0470 -1.5081 -1.2328
16637TIP3    H271327   1.437   6.397  12.122  0.9184 -2.0024 -2.0663
16638TIP3   OH271328   3.680   5.057   5.160  0.0175  0.1282  0.0391
16638TIP3    H171329   3.602   5.035   5.108  0.7170  0.8851 -1.4013
16638TIP3    H271330   3.653   5.046   5.251 -1.3257 -1.0485 -0.4781
16639TIP3   OH271331   4.064   0.767  13.531  0.3376 -0.4235  0.6774
16639TIP3    H171332   4.038   0.682  13.497 -1.6993  0.1058  0.8103
16639TIP3    H271333   4.014   0.778  13.612  1.5178  0.3862  1.3350
16640TIP3   OH271334   5.072   6.567  15.790 -0.1650  0.0585 -0.2293
16640TIP3    H171335   5.084   6.603  15.877 -0.7436 -0.6837  0.1686
16640TIP3    H271336   4.977   6.568  15.777 -0.0418  1.3454 -1.3715
16641TIP3   OH271337   2.860   6.155   6.333 -0.1292 -0.1920 -0.2537
16641TIP3    H171338   2.869   6.134   6.426  1.1424 -2.8240 -0.8864
16641TIP3    H271339   2.771   6.126   6.311 -0.0537 -0.5372 -0.1033
16642TIP3   OH271340   0.907   6.343  14.394  0.7145 -0.0996  0.4034
16642TIP3    H171341   0.964   6.350  14.317  0.8928 -1.3183  0.3972
16642TIP3    H271342   0.825   6.307  14.360  0.3478  0.5407  0.5971
16643TIP3   OH271343   1.740   4.947  15.235  0.4893  0.3270 -0.1369
16643TIP3    H171344   1.691   4.946  15.318 -0.8999  1.3315 -0.8843
16643TIP3    H271345   1.700   4.878  15.183  0.9892  0.0627 -0.1710
16644TIP3   OH271346   5.359   1.022   3.061  0.0834 -0.0333 -0.0029
16644TIP3    H171347   5.301   0.965   3.111  0.4002 -1.0516 -0.7525
16644TIP3    H271348   5.308   1.101   3.046 -0.9876 -0.7586 -0.3254
16645TIP3   OH271349   4.667   5.699  11.732 -0.1931 -0.2012 -0.2874
16645TIP3    H171350   4.633   5.626  11.783 -1.1837  0.4788  0.0484
16645TIP3    H271351   4.607   5.707  11.658 -0.3098  0.4864 -0.1280
16646TIP3   OH271352   4.226   0.646   0.427 -1.0287  0.0041 -0.4512
16646TIP3    H171353   4.272   0.725   0.400  0.8780 -1.1620 -0.7851
16646TIP3    H271354   4.259   0.629   0.516 -1.9024 -0.0911 -0.1344
16647TIP3   OH271355   2.574   3.106  11.016 -0.6855 -0.2578 -0.4372
16647TIP3    H171356   2.616   3.083  11.099 -1.8325 -0.5038  0.1009
16647TIP3    H271357   2.637   3.163  10.972  0.1948 -0.6106  0.3353
16648TIP3   OH271358   6.129   0.188   3.695  0.1921 -0.1202  0.5435
16648TIP3    H171359   6.152   0.192   3.788 -0.1357 -1.1307  0.6825
16648TIP3    H271360   6.113   0.279   3.670  2.1751  0.3850  0.9799
16649TIP3   OH271361   0.573   2.981   0.921  0.3289 -0.5493  0.3507
16649TIP3    H171362   0.594   2.891   0.945 -1.9503 -1.1404  0.3685
16649TIP3    H271363   0.622   3.035   0.983 -0.0081 -1.8460  1.8077
16650TIP3   OH271364   1.852   0.930   0.375 -0.5515 -0.3612  0.6617
16650TIP3    H171365   1.791   1.003   0.382 -0.2938 -0.2210  1.5325
16650TIP3    H271366   1.895   0.942   0.290  1.1541  1.8034  1.7388
16651TIP3   OH271367   1.937   6.424  13.867 -0.5626  0.0301 -0.9781
16651TIP3    H171368   1.948   6.514  13.897  0.0982 -0.2286 -0.4379
16651TIP3    H271369   1.889   6.432  13.784 -1.7843  0.7864 -0.2252
16652TIP3   OH271370   5.209   0.947   5.120 -0.1239  0.1677  0.6089
16652TIP3    H171371   5.185   0.938   5.027  2.9554 -0.2277 -0.2774
16652TIP3    H271372   5.140   0.902   5.167 -1.3632 -0.3591 -1.5528
16653TIP3   OH271373   1.557   3.430  12.184  0.3419  0.7332 -0.0423
16653TIP3    H171374   1.632   3.484  12.210 -0.1612  0.5252  1.9403
16653TIP3    H271375   1.572   3.346  12.227  0.4075 -0.3083 -1.9843
16654TIP3   OH271376   2.422   3.782   6.872  0.5877  0.5178  0.3466
16654TIP3    H171377   2.384   3.696   6.850 -0.1424  0.5647  1.3682
16654TIP3    H271378   2.454   3.771   6.962 -0.2391  1.5443  0.7802
16655TIP3   OH271379   5.086   6.362  11.631 -0.1213 -0.0976  0.2592
16655TIP3    H171380   5.021   6.432  11.620  0.0717 -0.0721 -0.8018
16655TIP3    H271381   5.155   6.402  11.685 -0.3676  0.2891  0.2904
16656TIP3   OH271382   3.106   3.864   2.786 -0.0576  0.3277 -0.0167
16656TIP3    H171383   3.193   3.905   2.782  0.9512 -1.6894 -0.1771
16656TIP3    H271384   3.123   3.775   2.817 -1.8254 -0.7804 -1.9686
16657TIP3   OH271385   2.876   2.241  14.757 -0.5273 -0.2189  0.5202
16657TIP3    H171386   2.854   2.327  14.723  1.4655 -0.2709 -1.1366
16657TIP3    H271387   2.865   2.182  14.682  0.3141 -1.0066  0.9965
16658TIP3   OH271388   3.686   5.754   2.550  0.1824 -0.6144  1.0524
16658TIP3    H171389   3.678   5.677   2.606 -1.8034  0.4926  2.4155
16658TIP3    H271390   3.629   5.819   2.590  0.3844  0.9826 -1.0700
16659TIP3   OH271391   2.613   0.695   0.015  1.3430 -0.1213  0.0649
16659TIP3    H171392   2.650   0.726   0.097 -0.5655 -0.6739  1.1873
16659TIP3    H271393   2.530   0.654   0.039  0.3493  0.3555 -2.2045
16660TIP3   OH271394   2.230   3.949   2.327  0.0872 -0.0967 -0.0728
16660TIP3    H171395   2.292   3.897   2.378  2.2450  1.3712 -1.0273
16660TIP3    H271396   2.181   3.886   2.275  2.5026 -1.2345 -1.0947
16661TIP3   OH271397   3.954   3.321   3.775 -1.0484 -0.0027  0.0753
16661TIP3    H171398   3.885   3.386   3.761 -2.8586 -1.8361 -0.0097
16661TIP3    H271399   3.983   3.299   3.687 -1.1386 -0.0231  0.0502
16662TIP3   OH271400   6.630   2.076   3.849  0.2947 -0.2417  0.3476
16662TIP3    H171401   6.552   2.043   3.804  1.3388 -0.0208 -1.7115
16662TIP3    H271402   6.638   2.021   3.926 -0.0072 -2.5239 -1.1656
16663TIP3   OH271403   0.748   2.583   3.701  0.1020 -0.6564 -0.3878
16663TIP3    H171404   0.800   2.526   3.643 -1.3651 -0.9533 -1.4659
16663TIP3    H271405   0.676   2.614   3.646 -1.0207 -0.4743  1.1149
16664TIP3   OH271406   6.333   2.285   2.266  0.1906  0.6503 -0.9172
16664TIP3    H171407   6.294   2.302   2.181 -1.7645 -0.1061 -0.2247
16664TIP3    H271408   6.269   2.231   2.312  2.4090 -1.3447  0.0329
16665TIP3   OH271409   5.858   0.079   5.106 -0.4727 -0.6291  0.5734
16665TIP3    H171410   5.771   0.044   5.128 -0.8220 -0.4377 -0.4444
16665TIP3    H271411   5.905   0.004   5.069 -0.4397 -0.5672  0.4902
16666TIP3   OH271412   3.048   6.650  12.264 -0.6921 -0.0635  0.0307
16666TIP3    H171413   3.112   6.715  12.235 -0.1318 -0.1683  0.9867
16666TIP3    H271414   3.044   6.587  12.191  1.3770 -0.8329  0.4965
16667TIP3   OH271415   5.544   6.287   3.181  0.0085  0.4395  0.5099
16667TIP3    H171416   5.508   6.322   3.099  3.7638 -0.3992 -1.7478
16667TIP3    H271417   5.531   6.358   3.244 -0.7383  2.2119 -1.4836
16668TIP3   OH271418   4.852   4.622  13.037  0.3626 -0.6342  0.0977
16668TIP3    H171419   4.782   4.567  13.070 -0.2025  1.4415  2.7110
16668TIP3    H271420   4.915   4.627  13.108  1.4526  0.3396 -0.8819
16669TIP3   OH271421   4.588   4.593  15.642  0.0517 -0.5448 -0.2232
16669TIP3    H171422   4.565   4.547  15.722  0.2586 -1.2485 -0.5553
16669TIP3    H271423   4.519   4.570  15.580 -0.0947 -0.0275 -0.2546
16670TIP3   OH271424   3.752   5.857   6.536  0.1345  0.0918 -0.3058
16670TIP3    H171425   3.661   5.851   6.507 -0.3548 -1.7673  1.4001
16670TIP3    H271426   3.749   5.913   6.614  0.1882 -1.1517  0.6120
16671TIP3   OH271427   6.625   5.424  11.382  0.2652 -0.0383 -0.1437
16671TIP3    H171428   6.706   5.448  11.427 -0.5923  0.4617  1.2277
16671TIP3    H271429   6.593   5.347  11.430 -1.3279  1.2731  1.0274
16672TIP3   OH271430   1.450   0.862   1.487 -0.3491  0.8720  0.0848
16672TIP3    H171431   1.490   0.948   1.471 -0.5402  1.1060  0.8593
16672TIP3    H271432   1.443   0.856   1.582 -0.3106 -0.0175  0.0393
16673TIP3   OH271433   4.887   2.333  11.392  0.1200  0.1760  1.0390
16673TIP3    H171434   4.872   2.396  11.321 -0.2745  0.4151  1.3331
16673TIP3    H271435   4.822   2.264  11.378  1.3623 -0.8280 -0.0213
16674TIP3   OH271436   0.285   3.986  14.161 -0.1638  0.0079  0.7526
16674TIP3    H171437   0.264   3.930  14.236 -1.8692  0.8432  0.9444
16674TIP3    H271438   0.355   3.939  14.116 -1.0384 -1.9393  1.2829
16675TIP3   OH271439   3.638   4.478   3.362  0.2234 -0.3007  0.0156
16675TIP3    H171440   3.659   4.411   3.296  2.2503  0.0842  0.1971
16675TIP3    H271441   3.654   4.561   3.317  0.8298 -0.0158  0.7410
16676TIP3   OH271442   1.524   3.487   3.067 -0.0546  0.0147 -0.7599
16676TIP3    H171443   1.608   3.529   3.087 -0.4432  1.1317 -1.3979
16676TIP3    H271444   1.494   3.453   3.152  0.8612 -0.0759 -0.4589
16677TIP3   OH271445   2.301   3.055  11.941  0.1003 -0.2552 -0.4033
16677TIP3    H171446   2.301   2.977  11.997 -0.0463 -1.2070 -1.6781
16677TIP3    H271447   2.372   3.039  11.879  0.4212  0.8919 -0.3503
16678TIP3   OH271448   1.379   5.716   5.443 -0.4401 -0.2603  0.1778
16678TIP3    H171449   1.453   5.739   5.499 -0.0711 -0.8596 -0.0494
16678TIP3    H271450   1.350   5.630   5.475 -0.4745 -0.4291 -0.2946
16679TIP3   OH271451   3.924   2.900  13.147 -0.4321 -0.2170 -0.6974
16679TIP3    H171452   3.831   2.885  13.130 -0.3404 -2.2402  0.3023
16679TIP3    H271453   3.947   2.837  13.215  1.2462  1.5375  0.4828
16680TIP3   OH271454   1.277   0.804  12.337 -0.0456 -0.0745  0.4839
16680TIP3    H171455   1.289   0.836  12.426  0.5289 -1.8839  1.1104
16680TIP3    H271456   1.193   0.839  12.309 -1.1560 -0.9843  2.4778
16681TIP3   OH271457   0.694   2.335   1.832 -0.7392 -0.1270  0.0081
16681TIP3    H171458   0.764   2.384   1.788 -0.0223 -0.9014  0.2686
16681TIP3    H271459   0.633   2.403   1.860  0.0835  0.6073  0.0997
16682TIP3   OH271460   2.670   6.569   3.845 -0.2328  0.0955 -0.3155
16682TIP3    H171461   2.663   6.665   3.844  0.8154  0.2352  1.2765
16682TIP3    H271462   2.713   6.548   3.762  2.9630  1.4281  0.8164
16683TIP3   OH271463   5.016   3.730   1.455  0.6942  0.4051  0.1867
16683TIP3    H171464   4.939   3.787   1.460 -0.0339 -0.6739  3.2004
16683TIP3    H271465   4.980   3.643   1.436  1.4091  0.2362 -0.4408
16684TIP3   OH271466   0.459   2.907   3.846  0.0338  0.0653  0.3190
16684TIP3    H171467   0.422   2.824   3.874 -0.6245  0.7168  1.4696
16684TIP3    H271468   0.456   2.904   3.751  0.3059 -1.3370  0.3342
16685TIP3   OH271469   4.099   1.059  13.462 -0.3841  0.5632  0.4322
16685TIP3    H171470   4.026   1.096  13.512 -0.2149 -0.5305  1.5257
16685TIP3    H271471   4.104   0.968  13.491 -0.3233 -0.1475 -1.6513
16686TIP3   OH271472   5.852   3.195  10.687  0.8599 -0.7580 -0.0799
16686TIP3    H171473   5.888   3.231  10.768 -0.2585  0.9309 -0.2710
16686TIP3    H271474   5.759   3.183  10.707  0.8550 -1.7918 -0.6553
16687TIP3   OH271475   4.833   4.371  13.739 -0.2327 -0.0956  0.6759
16687TIP3    H171476   4.835   4.323  13.656 -0.5994 -0.1163  0.6748
16687TIP3    H271477   4.892   4.323  13.797  1.1127  0.7066  0.0040
16688TIP3   OH271478   2.137   3.629   3.580  0.5013  0.3193 -0.0719
16688TIP3    H171479   2.232   3.612   3.581  0.3250 -0.8015  2.0162
16688TIP3    H271480   2.098   3.542   3.565 -0.2221  1.0047 -2.6658
16689TIP3   OH271481   3.848   0.146  12.859 -0.0173 -0.4004  0.0857
16689TIP3    H171482   3.809   0.209  12.920  1.0419  2.0421 -1.6103
16689TIP3    H271483   3.823   0.179  12.773  3.3627 -0.3106 -0.9770
16690TIP3   OH271484   0.032   1.662  15.140  0.5497 -0.1933  0.0284
16690TIP3    H171485   0.016   1.676  15.047  0.3892  0.1822  0.1094
16690TIP3    H271486   0.122   1.693  15.154  2.0316 -3.6866 -0.7297
16691TIP3   OH271487   4.922   6.358  13.674  0.4093 -0.6722 -0.4624
16691TIP3    H171488   4.992   6.306  13.715  0.0675 -1.5454 -0.9486
16691TIP3    H271489   4.958   6.383  13.589  1.1552  1.2179  0.3477
16692TIP3   OH271490   2.984   4.251   0.451  0.1056 -0.0684 -0.2764
16692TIP3    H171491   2.966   4.187   0.520  3.5181  0.7488  1.5976
16692TIP3    H271492   2.999   4.198   0.372 -0.1257 -1.3261  0.4983
16693TIP3   OH271493   1.663   6.211  16.702 -0.1921  0.3602 -1.1465
16693TIP3    H171494   1.693   6.252  16.783 -1.2485 -0.3321 -0.3898
16693TIP3    H271495   1.740   6.164  16.670 -0.2774 -1.0257  0.5294
16694TIP3   OH271496   4.992   0.924   3.672  0.5518 -0.6943 -0.0167
16694TIP3    H171497   4.997   1.006   3.721  0.3305 -0.8534  0.2734
16694TIP3    H271498   4.899   0.911   3.655  0.6412 -0.5393 -0.6609
16695TIP3   OH271499   1.341   2.554   1.594 -0.5592  1.0873 -0.2171
16695TIP3    H171500   1.420   2.565   1.647 -0.1216  4.2890 -1.3251
16695TIP3    H271501   1.280   2.619   1.629 -1.5958  0.7044 -1.2597
16696TIP3   OH271502   5.299   5.184  13.540  0.1204 -0.2810 -0.4945
16696TIP3    H171503   5.335   5.270  13.565 -0.0415 -0.4266  0.2667
16696TIP3    H271504   5.278   5.193  13.447 -0.9449  0.8745 -0.1723
16697TIP3   OH271505   5.126   0.076  12.006  0.2453  0.1723  0.0318
16697TIP3    H171506   5.099  -0.015  12.014  0.5988  0.0370 -0.2576
16697TIP3    H271507   5.049   0.122  11.975  0.3980 -0.2454 -1.0109
16698TIP3   OH271508   4.270   3.033   5.522  0.5186  0.3262 -0.0836
16698TIP3    H171509   4.344   2.989   5.480  0.0673 -0.2903 -0.2396
16698TIP3    H271510   4.252   3.108   5.466  0.5654  0.0735 -0.4427
16699TIP3   OH271511   5.660   4.759  12.329 -0.0313  0.2648  0.0561
16699TIP3    H171512   5.589   4.780  12.267  0.0126 -0.6243 -0.3057
16699TIP3    H271513   5.712   4.693  12.284 -0.0188 -0.4196  1.0634
16700TIP3   OH271514   3.462   2.106  16.672 -0.9686  0.1002 -0.1662
16700TIP3    H171515   3.528   2.061  16.620 -2.4425  1.3945 -3.4046
16700TIP3    H271516   3.378   2.074  16.638 -2.0344  1.2177  1.2480
16701TIP3   OH271517   0.343   1.621   0.136 -0.2881  0.4957  0.7316
16701TIP3    H171518   0.310   1.686   0.074  0.9973  0.2824 -0.2297
16701TIP3    H271519   0.326   1.658   0.222 -1.4598  1.1346  0.2385
16702TIP3   OH271520   5.054   1.326   4.305 -0.1096  0.2828 -0.1196
16702TIP3    H171521   5.027   1.376   4.228 -0.3004  0.4441  0.0472
16702TIP3    H271522   4.975   1.323   4.359 -0.3450 -0.9394 -0.5120
16703TIP3   OH271523   0.507   4.668   0.368 -0.3393 -0.0504 -0.0928
16703TIP3    H171524   0.584   4.611   0.360 -1.3845 -1.8486  1.7601
16703TIP3    H271525   0.524   4.720   0.447  0.0544  1.4239 -1.0992
16704TIP3   OH271526   6.131   4.955   4.404  0.0354  0.7857  0.0469
16704TIP3    H171527   6.214   4.913   4.383 -0.6081 -0.2713 -0.4205
16704TIP3    H271528   6.088   4.895   4.465 -1.0321  0.5909 -0.8750
16705TIP3   OH271529   5.759   0.309  13.587  0.4095  0.2591  0.0759
16705TIP3    H171530   5.763   0.214  13.596  1.3275  0.4382  2.2288
16705TIP3    H271531   5.684   0.336  13.640  0.4904  0.7635 -0.0553
16706TIP3   OH271532   4.093   1.855  11.542  0.0599  0.1350  0.3072
16706TIP3    H171533   4.030   1.783  11.537  0.6564 -0.3943  0.3175
16706TIP3    H271534   4.094   1.891  11.453 -0.0766 -0.0129  0.2435
16707TIP3   OH271535   6.497   0.644   2.721 -0.1227 -0.0672  0.0422
16707TIP3    H171536   6.535   0.727   2.750 -0.7810  0.4360 -0.4804
16707TIP3    H271537   6.452   0.610   2.798  1.5254 -0.7859  0.7376
16708TIP3   OH271538   2.153   0.173  16.169 -0.4376  0.6403 -0.3271
16708TIP3    H171539   2.067   0.132  16.171 -0.6902  1.1696 -0.2158
16708TIP3    H271540   2.201   0.130  16.240 -1.4040  2.0206  1.2362
16709TIP3   OH271541   4.850   2.641  13.030  0.3088  0.9397 -0.2389
16709TIP3    H171542   4.805   2.699  13.091 -1.1916  0.9009 -1.2466
16709TIP3    H271543   4.821   2.553  13.054  1.0421  0.7730  0.0500
16710TIP3   OH271544   1.385   4.303  16.797  0.5133  0.2395  0.5359
16710TIP3    H171545   1.355   4.310  16.887  0.3044 -2.4304  0.7596
16710TIP3    H271546   1.355   4.216  16.768  1.9430  0.3630 -1.5652
16711TIP3   OH271547   4.447   0.860  17.294 -0.4394 -0.2253  0.0301
16711TIP3    H171548   4.442   0.848  17.199  0.8437 -0.0405 -0.0759
16711TIP3    H271549   4.405   0.945  17.309 -0.9673 -0.4138 -0.3129
16712TIP3   OH271550   0.609   3.659  14.854 -0.4004  0.5481  0.1585
16712TIP3    H171551   0.701   3.682  14.863  0.1282 -1.2585 -0.1037
16712TIP3    H271552   0.607   3.564  14.867 -1.4699 -0.3426 -4.6459
16713TIP3   OH271553   4.501   6.336  14.051 -0.2752 -0.0324 -0.0663
16713TIP3    H171554   4.569   6.378  13.998 -0.8782  2.1462  0.7681
16713TIP3    H271555   4.543   6.258  14.086  1.7782  1.1184  0.2156
16714TIP3   OH271556   4.938   1.512   0.958 -0.1671 -0.0015 -0.3889
16714TIP3    H171557   4.898   1.574   0.898 -1.5322  0.7625  1.2105
16714TIP3    H271558   4.865   1.478   1.009  0.8729 -0.9469  0.5214
16715TIP3   OH271559   6.197   1.553   1.591  0.0388 -0.2231  0.3192
16715TIP3    H171560   6.171   1.597   1.672  1.4506  0.0050  0.6807
16715TIP3    H271561   6.292   1.540   1.600  0.0792 -0.9918 -0.9193
16716TIP3   OH271562   3.816   3.095   0.600  0.2895  0.1056 -0.2724
16716TIP3    H171563   3.887   3.156   0.620  0.6731  0.1357 -1.6729
16716TIP3    H271564   3.741   3.128   0.651  0.6645  1.3773 -0.5132
16717TIP3   OH271565   4.488   3.107  12.527  0.1765 -0.2365  0.4163
16717TIP3    H171566   4.509   3.178  12.587 -0.0856  0.4950 -0.3481
16717TIP3    H271567   4.554   3.112  12.459 -1.4699  1.0979 -1.1671
16718TIP3   OH271568   1.147   2.576   4.068 -0.5780 -0.0768  0.2090
16718TIP3    H171569   1.157   2.545   3.978  1.2450  0.7258  0.0972
16718TIP3    H271570   1.236   2.579   4.103 -0.6483  3.9343  0.5336
16719TIP3   OH271571   1.740   4.462  13.489  0.0023  0.1485  0.4465
16719TIP3    H171572   1.666   4.410  13.519 -0.3606  0.4266  0.0446
16719TIP3    H271573   1.725   4.550  13.524 -0.2653  0.3985 -0.2654
16720TIP3   OH271574   6.510   6.080   1.207  0.1292 -0.6501 -0.0573
16720TIP3    H171575   6.542   6.144   1.144 -1.7829  1.3368  0.8296
16720TIP3    H271576   6.539   6.114   1.292 -1.7061 -0.3986  0.5072
16721TIP3   OH271577   5.723   2.499   1.055 -0.3510 -0.1713 -0.1014
16721TIP3    H171578   5.680   2.481   1.139  0.3007  2.3422  0.8846
16721TIP3    H271579   5.651   2.516   0.995 -0.8479  0.8592  0.7322
16722TIP3   OH271580   4.490   2.317  16.243  0.3035  0.3394 -0.5166
16722TIP3    H171581   4.550   2.310  16.169  1.0735  1.4804 -0.0313
16722TIP3    H271582   4.474   2.411  16.252  0.2165  0.2147  0.7530
16723TIP3   OH271583   2.498   0.274  16.953 -0.5313 -0.5330  0.0507
16723TIP3    H171584   2.591   0.256  16.939 -0.5753 -1.6111  1.0024
16723TIP3    H271585   2.494   0.368  16.969  0.6388 -0.7338  1.7945
16724TIP3   OH271586   6.651   2.599  16.375 -0.5868  0.3405  0.0147
16724TIP3    H171587   6.626   2.507  16.367 -2.2254  0.5977  1.4236
16724TIP3    H271588   6.575   2.647  16.343  1.4036  1.3317 -3.7950
16725TIP3   OH271589   1.280   0.993  16.436  0.3859  0.2590  0.2498
16725TIP3    H171590   1.185   0.994  16.450  0.4407 -0.2754  0.6954
16725TIP3    H271591   1.312   1.070  16.482  0.2304  0.1248  0.5840
16726TIP3   OH271592   5.406   1.907   0.746 -0.0655 -0.0209  0.1856
16726TIP3    H171593   5.483   1.928   0.693  0.3620  0.2191  0.8854
16726TIP3    H271594   5.378   1.992   0.782 -0.8686 -0.0497 -0.3280
16727TIP3   OH271595   0.028   2.657  11.390 -0.2598  0.2256 -0.0874
16727TIP3    H171596  -0.052   2.607  11.408 -0.5271  0.9252  0.7169
16727TIP3    H271597   0.083   2.644  11.467  0.7814 -0.9313 -0.9831
16728TIP3   OH271598   6.443   0.603   5.754  0.3547  0.3679 -0.2407
16728TIP3    H171599   6.358   0.634   5.720 -1.1120 -1.8688  1.1139
16728TIP3    H271600   6.502   0.609   5.680 -1.0416  1.7708 -1.3127
16729TIP3   OH271601   0.126   4.440  13.957  0.4523  0.3948 -0.1613
16729TIP3    H171602   0.052   4.471  13.905 -0.3761 -0.8553  0.2303
16729TIP3    H271603   0.153   4.516  14.009 -0.8075  0.7649 -0.0286
16730TIP3   OH271604   3.879   4.390  15.106  0.5707  0.3222  0.5594
16730TIP3    H171605   3.884   4.301  15.140  1.0348  0.1786  0.1262
16730TIP3    H271606   3.861   4.379  15.013  1.2378  0.6656  0.3869
16731TIP3   OH271607   1.111   1.442   4.685  0.0147 -0.5446 -0.2808
16731TIP3    H171608   1.107   1.369   4.748 -2.4342 -0.0115  0.3132
16731TIP3    H271609   1.046   1.418   4.618 -0.5096  0.8642 -0.2957
16732TIP3   OH271610   6.726   6.401  16.632  0.1717  0.0806 -0.3698
16732TIP3    H171611   6.714   6.459  16.707 -0.8177 -3.0285  2.0662
16732TIP3    H271612   6.645   6.409  16.582 -0.9411 -0.8524  1.2172
16733TIP3   OH271613   3.390   5.561  13.373  0.4922  0.4359 -0.1314
16733TIP3    H171614   3.440   5.495  13.324 -0.5788  0.1427 -0.8667
16733TIP3    H271615   3.454   5.600  13.432  1.7566  0.5697 -1.5336
16734TIP3   OH271616   0.360   3.821  11.877  0.4651  0.1645  0.5823
16734TIP3    H171617   0.328   3.871  11.802 -0.7408  0.8415  1.5146
16734TIP3    H271618   0.350   3.730  11.851 -2.3467  0.3162  0.7879
16735TIP3   OH271619   3.932   2.814  12.754 -0.5268 -0.1147  0.0431
16735TIP3    H171620   3.907   2.725  12.731 -1.8783  0.2978 -0.1788
16735TIP3    H271621   3.859   2.869  12.724  0.5849  1.1574 -0.4612
16736TIP3   OH271622   1.557   0.806   5.053  0.0523  0.3417  0.3020
16736TIP3    H171623   1.628   0.870   5.051  0.8825 -0.5781 -0.4835
16736TIP3    H271624   1.567   0.757   4.971 -0.8930 -0.4518  0.6459
16737TIP3   OH271625   1.180   5.662   5.900 -0.4498  0.4473 -0.0485
16737TIP3    H171626   1.135   5.589   5.943  0.0512 -0.1454 -0.5094
16737TIP3    H271627   1.219   5.712   5.971 -1.3610  0.6595  0.3229
16738TIP3   OH271628   1.227   2.535  13.241 -0.1933 -0.0225  0.3776
16738TIP3    H171629   1.173   2.585  13.181 -1.1708 -2.8419 -1.3028
16738TIP3    H271630   1.271   2.471  13.185  1.2146 -0.8471  2.3261
16739TIP3   OH271631   0.727   4.181   3.682  0.3389 -0.2626  0.0832
16739TIP3    H171632   0.711   4.250   3.618 -0.7716  0.2564  0.8896
16739TIP3    H271633   0.705   4.100   3.636  0.6239  0.0063 -0.5344
16740TIP3   OH271634   5.404   5.586  11.295  0.0221 -0.5740  0.2330
16740TIP3    H171635   5.467   5.531  11.342 -2.3428 -2.5948  1.3405
16740TIP3    H271636   5.442   5.598  11.208  1.4283 -2.6317  0.4934
16741TIP3   OH271637   4.540   2.373   5.981 -0.0479 -0.2055  0.5105
16741TIP3    H171638   4.586   2.340   6.058 -0.7661  0.9201  1.4498
16741TIP3    H271639   4.496   2.296   5.945 -0.1455 -0.6508  1.5357
16742TIP3   OH271640   1.057   6.722   2.538 -0.4474 -0.1054 -0.2468
16742TIP3    H171641   1.052   6.627   2.549  0.0601 -0.1500 -0.4003
16742TIP3    H271642   0.966   6.752   2.546 -0.4646 -0.4426  1.2696
16743TIP3   OH271643   3.180   3.049  13.556 -0.5221 -0.3300  0.2040
16743TIP3    H171644   3.138   3.123  13.513  2.8758  0.4810 -2.0869
16743TIP3    H271645   3.237   3.088  13.621  0.1067 -1.0470  0.0969
16744TIP3   OH271646   2.322   3.633   5.211 -0.5802  0.2486 -0.4451
16744TIP3    H171647   2.273   3.552   5.221 -0.7608  0.3706 -0.3368
16744TIP3    H271648   2.255   3.702   5.208 -0.5389  0.2514 -2.2804
16745TIP3   OH271649   2.691   4.442  15.253  0.0344  0.0782  0.1563
16745TIP3    H171650   2.772   4.490  15.236 -0.1393  0.1790 -0.4185
16745TIP3    H271651   2.717   4.350  15.252  0.1695  0.1162  0.1094
16746TIP3   OH271652   3.406   1.018   4.283 -0.1974 -0.1901  0.1172
16746TIP3    H171653   3.464   1.073   4.230  0.1042 -0.3321  0.2980
16746TIP3    H271654   3.422   0.929   4.250 -1.3097 -0.0893 -0.7704
16747TIP3   OH271655   0.679   2.052   5.886 -0.5475  0.4194 -0.8865
16747TIP3    H171656   0.593   2.013   5.871 -0.4752  1.0554 -3.3942
16747TIP3    H271657   0.660   2.134   5.931 -1.1371  0.0160 -0.3753
16748TIP3   OH271658   6.428   0.451  11.375 -0.4231  0.3189  0.5265
16748TIP3    H171659   6.517   0.461  11.343 -0.3878 -1.9174 -0.2215
16748TIP3    H271660   6.437   0.434  11.468 -0.1703  1.2020  0.6747
16749TIP3   OH271661   0.222   3.286  14.032  0.3781  0.8212 -0.0517
16749TIP3    H171662   0.281   3.351  13.994  0.9535  1.0071  1.1260
16749TIP3    H271663   0.264   3.202  14.014 -0.5782  0.6760 -1.9585
16750TIP3   OH271664   0.613   6.441   3.593 -0.0683  0.3946 -0.2786
16750TIP3    H171665   0.686   6.458   3.534 -0.1733  1.7479 -0.0406
16750TIP3    H271666   0.542   6.497   3.562 -0.3081  0.7075  0.7843
16751TIP3   OH271667   6.719   0.696  13.003 -0.3465  0.1269  0.1193
16751TIP3    H171668   6.777   0.771  13.005 -0.4840  0.2744 -0.9676
16751TIP3    H271669   6.686   0.693  12.914  0.5800 -1.9155 -0.2291
16752TIP3   OH271670   0.292   6.155   1.671  0.6196  0.2060  0.0437
16752TIP3    H171671   0.274   6.078   1.725 -3.2327  2.0428  1.7891
16752TIP3    H271672   0.255   6.133   1.585  2.6785 -1.0377 -0.5988
16753TIP3   OH271673   6.302   3.989   0.172  0.0830  0.0405  0.5395
16753TIP3    H171674   6.337   3.901   0.161 -1.1074 -0.2880 -0.8838
16753TIP3    H271675   6.229   3.994   0.111  0.0252  1.9695  0.7015
16754TIP3   OH271676   4.670   1.765   2.401  0.0320  0.0983 -0.1305
16754TIP3    H171677   4.719   1.731   2.326  0.0413 -0.1924  0.0051
16754TIP3    H271678   4.580   1.739   2.384  0.0318  0.0462 -0.0465
16755TIP3   OH271679   1.900   4.237  15.818 -0.0740 -0.2428  0.3654
16755TIP3    H171680   1.852   4.319  15.830  0.1115  0.2116 -1.7191
16755TIP3    H271681   1.984   4.263  15.780  0.9329 -1.2367  1.8142
16756TIP3   OH271682   5.346   2.897   0.060 -0.0502  0.1430 -0.5898
16756TIP3    H171683   5.378   2.897  -0.030 -2.2197 -0.1214 -1.4054
16756TIP3    H271684   5.278   2.830   0.062  0.6408 -0.6073  1.5471
16757TIP3   OH271685   3.545   1.446   4.054  0.2721 -0.6326 -0.1027
16757TIP3    H171686   3.587   1.524   4.090 -1.2007  0.3553 -0.4609
16757TIP3    H271687   3.457   1.474   4.030 -0.2379 -2.3618 -0.4214
16758TIP3   OH271688   1.092   2.362  17.294  0.2701 -0.3385 -0.1064
16758TIP3    H171689   1.138   2.386  17.374  0.4395 -1.6107  0.1987
16758TIP3    H271690   1.000   2.374  17.314  0.3084 -0.7332  0.3131
16759TIP3   OH271691   2.047   4.443   3.554  0.3076 -0.3605  0.2016
16759TIP3    H171692   2.012   4.416   3.470  2.8518  1.6114 -1.6708
16759TIP3    H271693   2.108   4.373   3.578  0.7770 -0.1888 -0.4563
16760TIP3   OH271694   2.178   5.654  16.143 -0.2022  0.5751  0.2716
16760TIP3    H171695   2.179   5.749  16.126 -0.2526  0.9095  1.9379
16760TIP3    H271696   2.130   5.646  16.226  2.0418 -0.6387  1.5497
16761TIP3   OH271697   1.543   0.860   2.366 -0.2623  1.0173 -0.0900
16761TIP3    H171698   1.508   0.783   2.412 -0.1857  0.1725 -1.3932
16761TIP3    H271699   1.617   0.888   2.419  0.5481 -0.6418 -0.2781
16762TIP3   OH271700   4.536   3.616  11.419  0.2562  0.4758 -0.6155
16762TIP3    H171701   4.477   3.553  11.459 -1.0999  1.8425 -0.3847
16762TIP3    H271702   4.511   3.618  11.327  0.2082  0.7663 -0.5974
16763TIP3   OH271703   3.016   1.096   2.798  0.4931 -0.0892  0.0541
16763TIP3    H171704   2.960   1.173   2.786 -0.2913 -0.7635 -0.7165
16763TIP3    H271705   3.096   1.117   2.751 -0.4543 -0.4985 -1.8310
16764TIP3   OH271706   2.140   3.667  12.271 -0.3256  0.7027  0.4094
16764TIP3    H171707   2.195   3.724  12.324  2.9874 -0.4402 -1.4687
16764TIP3    H271708   2.159   3.579  12.303 -0.5305  0.2266 -0.7195
16765TIP3   OH271709   0.958   4.583   6.532 -0.3484  0.6468 -0.1404
16765TIP3    H171710   0.978   4.645   6.603 -1.9176  0.5041  0.4806
16765TIP3    H271711   0.867   4.556   6.549 -0.4868 -0.0227 -1.7487
16766TIP3   OH271712   0.846   5.988  13.602  0.0017  0.1219  0.8011
16766TIP3    H171713   0.797   5.989  13.684  0.2849  0.3206  0.9710
16766TIP3    H271714   0.929   6.030  13.624 -0.2467  0.9514  0.2025
16767TIP3   OH271715   5.910   3.686  16.648 -0.4368 -0.3785 -0.6740
16767TIP3    H171716   6.005   3.673  16.648 -0.5976 -1.8194 -1.6522
16767TIP3    H271717   5.887   3.696  16.740  0.5462 -1.1133 -0.3259
16768TIP3   OH271718   1.740   3.362   1.557 -0.1871 -0.2899  0.7299
16768TIP3    H171719   1.770   3.450   1.533 -0.4924  0.1692  1.9526
16768TIP3    H271720   1.816   3.306   1.540 -0.1477  0.1216 -0.5269
16769TIP3   OH271721   4.364   5.701  13.991  0.1187  0.1703 -0.5950
16769TIP3    H171722   4.343   5.614  13.957  0.9394  0.0516 -0.8153
16769TIP3    H271723   4.370   5.688  14.086  1.2742 -0.2454 -0.7120
16770TIP3   OH271724   6.461   0.031  12.399 -0.1927 -1.1723 -0.5047
16770TIP3    H171725   6.473   0.123  12.372  0.8581 -1.6439 -1.7710
16770TIP3    H271726   6.488   0.030  12.491  1.3133 -0.4799 -0.9009
16771TIP3   OH271727   1.477   5.519  12.837  0.5212 -0.0630 -0.6193
16771TIP3    H171728   1.474   5.433  12.879  2.1898 -0.4657 -1.2443
16771TIP3    H271729   1.424   5.509  12.759  0.0707 -0.2855 -0.2902
16772TIP3   OH271730   2.151   0.739   2.810 -0.0581  0.2005  0.3681
16772TIP3    H171731   2.074   0.794   2.795  1.5106  2.0877 -1.2567
16772TIP3    H271732   2.181   0.715   2.722  1.0484 -0.7675  0.9754
16773TIP3   OH271733   5.986   4.770  12.788 -0.2453 -0.2387 -0.0084
16773TIP3    H171734   6.039   4.720  12.726 -0.5632 -1.0519  0.3664
16773TIP3    H271735   6.025   4.753  12.873 -2.3665 -2.6849  0.6042
16774TIP3   OH271736   2.050   0.518   0.691 -0.4251  0.0266  0.4915
16774TIP3    H171737   1.959   0.545   0.684 -0.5857 -0.4533  0.7024
16774TIP3    H271738   2.082   0.519   0.601 -0.3944  0.9991  0.4963
16775TIP3   OH271739   3.965   6.143   0.559 -0.1141 -0.2365  0.3084
16775TIP3    H171740   3.951   6.131   0.653  1.6804  0.5300  0.7195
16775TIP3    H271741   3.994   6.233   0.549  1.2116 -0.7376 -0.7691
16776TIP3   OH271742   2.740   3.597   5.587  0.7032  0.1614 -0.0228
16776TIP3    H171743   2.792   3.526   5.625  1.7746  0.5292 -0.7415
16776TIP3    H271744   2.712   3.563   5.502  1.3991  0.6583 -0.4614
16777TIP3   OH271745   5.563   2.216   2.883 -0.0739 -0.2323  0.6534
16777TIP3    H171746   5.633   2.158   2.853  1.5913  1.5267  1.0050
16777TIP3    H271747   5.503   2.222   2.808  1.2818 -0.0672 -0.4567
16778TIP3   OH271748   1.570   5.060  15.469  0.4168  0.2052 -0.0195
16778TIP3    H171749   1.599   5.024  15.553  0.9542  0.9169  0.1006
16778TIP3    H271750   1.537   4.984  15.421 -1.4131  0.0096  1.4422
16779TIP3   OH271751   0.333   3.752  15.480 -0.0051 -0.9175 -0.9979
16779TIP3    H171752   0.423   3.721  15.491  0.4707  0.5015 -0.6943
16779TIP3    H271753   0.337   3.811  15.404 -1.0183 -2.0452 -1.9819
16780TIP3   OH271754   0.224   1.365  12.378  0.4405  0.3790  0.3637
16780TIP3    H171755   0.306   1.316  12.386 -0.7471 -1.8357 -0.0781
16780TIP3    H271756   0.206   1.397  12.466  0.2599 -1.8390  1.1992
16781TIP3   OH271757   0.493   3.462   5.993  0.2119 -0.4957 -0.3931
16781TIP3    H171758   0.514   3.524   6.062  0.4596 -0.5109 -0.4537
16781TIP3    H271759   0.414   3.496   5.952  0.3170 -0.2505 -0.3903
16782TIP3   OH271760   4.791   3.364   1.172 -0.1603  0.8028  0.4543
16782TIP3    H171761   4.778   3.285   1.120 -0.2357  0.2884  1.2241
16782TIP3    H271762   4.705   3.383   1.210  0.3457 -0.1887  2.2210
16783TIP3   OH271763   1.828   5.705  11.416 -0.1515  0.3536  0.2286
16783TIP3    H171764   1.773   5.769  11.370  0.6304  0.8151 -0.0750
16783TIP3    H271765   1.831   5.630  11.357  3.6516  2.1677 -2.2549
16784TIP3   OH271766   1.011   6.375  15.310 -0.1327  0.4301 -0.3683
16784TIP3    H171767   0.936   6.336  15.356  1.4424 -1.8663  0.3761
16784TIP3    H271768   1.009   6.336  15.223  0.5374 -0.1110 -0.1450
16785TIP3   OH271769   2.640   1.939   0.469 -0.8071  0.1911  0.3851
16785TIP3    H171770   2.622   1.906   0.381 -0.4049  2.7155 -0.7424
16785TIP3    H271771   2.734   1.925   0.482 -0.9819 -0.7360  0.6794
16786TIP3   OH271772   6.736   5.385  13.284 -0.3891 -0.1813 -0.6575
16786TIP3    H171773   6.689   5.302  13.296  0.4423 -0.6635 -0.6814
16786TIP3    H271774   6.706   5.439  13.357 -0.8776 -0.5289 -0.5909
16787TIP3   OH271775   3.938   4.120  15.174  0.6596 -0.0705  0.5542
16787TIP3    H171776   3.960   4.056  15.241 -1.0436 -0.6402  0.5935
16787TIP3    H271777   3.914   4.068  15.097 -1.2812  0.4684  0.7499
16788TIP3   OH271778   4.851   4.918   4.693  0.6194 -0.1309 -0.3994
16788TIP3    H171779   4.779   4.929   4.631 -0.3641  2.5174  1.0808
16788TIP3    H271780   4.825   4.842   4.746  0.2427 -0.8170 -1.5168
16789TIP3   OH271781   0.999   2.260  12.610  0.1160  0.1417  0.1685
16789TIP3    H171782   1.018   2.195  12.678 -0.3345  1.1441  1.3016
16789TIP3    H271783   1.031   2.221  12.529  0.4846 -1.1835  0.9248
16790TIP3   OH271784   1.845   0.101   2.635  0.3530  0.0602 -0.3124
16790TIP3    H171785   1.754   0.073   2.641  0.0759  0.4918 -1.8975
16790TIP3    H271786   1.890   0.026   2.596  1.1045 -0.8889  2.2053
16791TIP3   OH271787   2.594   2.658  16.690  0.0138 -0.1284 -0.1813
16791TIP3    H171788   2.656   2.626  16.757 -0.3772 -1.4490 -0.4304
16791TIP3    H271789   2.523   2.697  16.741  1.1423  1.6829  0.1115
16792TIP3   OH271790   6.248   4.638  15.608 -0.2414 -0.2110  0.4684
16792TIP3    H171791   6.206   4.697  15.670  0.6539 -0.8773  1.7439
16792TIP3    H271792   6.300   4.696  15.551 -0.2890  0.3296  0.9654
16793TIP3   OH271793   2.466   6.321  16.393 -0.0188 -0.0351 -0.3674
16793TIP3    H171794   2.454   6.416  16.391 -0.9276 -0.1342  0.1548
16793TIP3    H271795   2.480   6.297  16.301  0.4536  0.6283 -0.4744
16794TIP3   OH271796   3.810   2.666  15.797  0.5443  0.4406 -0.2142
16794TIP3    H171797   3.825   2.630  15.884 -0.3134 -0.5767 -0.4678
16794TIP3    H271798   3.718   2.648  15.778  0.4339  1.5807 -0.9169
16795TIP3   OH271799   2.053   2.194   5.501  0.2182 -0.3010 -0.3332
16795TIP3    H171800   2.086   2.179   5.590 -0.5328 -0.4481 -0.0740
16795TIP3    H271801   2.052   2.289   5.492  2.0820 -0.2949 -0.8770
16796TIP3   OH271802   6.577   2.645   1.757  0.6607 -0.8649 -0.6919
16796TIP3    H171803   6.629   2.720   1.730  2.1008 -0.8763  1.7229
16796TIP3    H271804   6.597   2.577   1.692  0.6363  0.2937 -1.9500
16797TIP3   OH271805   6.248   5.851   5.866  0.1137  0.2111  0.0266
16797TIP3    H171806   6.159   5.817   5.871 -0.8024  2.3885 -0.2761
16797TIP3    H271807   6.298   5.798   5.930 -1.5434 -0.5677  0.7289
16798TIP3   OH271808   1.343   3.926  14.157  0.0749 -1.0636 -0.1504
16798TIP3    H171809   1.366   3.835  14.141 -0.2331 -0.8463 -2.0555
16798TIP3    H271810   1.428   3.972  14.159  0.1858 -1.2754  0.0167
16799TIP3   OH271811   4.926   4.471  13.426  0.0438 -0.0054  0.5360
16799TIP3    H171812   4.838   4.433  13.430 -0.1199  0.3192  0.1124
16799TIP3    H271813   4.984   4.395  13.423 -0.3235 -0.2734 -1.1161
16800TIP3   OH271814   3.104   0.909   4.408  0.1823  0.6100  0.4739
16800TIP3    H171815   3.152   0.861   4.341 -0.5339  0.0748  0.3304
16800TIP3    H271816   3.049   0.843   4.451  0.6318  0.9346  1.5999
16801TIP3   OH271817   1.300   5.246  11.086 -0.2954  0.2166 -0.2241
16801TIP3    H171818   1.256   5.164  11.111 -1.2248  0.9765  0.7064
16801TIP3    H271819   1.242   5.285  11.020  1.1015 -0.7552 -2.1431
16802TIP3   OH271820   0.306   5.135  14.618 -0.0689  0.2473 -0.2137
16802TIP3    H171821   0.332   5.084  14.694 -0.4029  0.8005  0.2882
16802TIP3    H271822   0.249   5.203  14.654 -0.6491  0.2012 -1.0310
16803TIP3   OH271823   6.544   0.917   0.532 -0.5954  0.3055 -0.1401
16803TIP3    H171824   6.503   0.957   0.609  2.1637  0.7071  1.2161
16803TIP3    H271825   6.527   0.978   0.461  0.2414  2.0037  1.0669
16804TIP3   OH271826   5.412   3.464   5.131 -0.3333 -0.5291  0.0057
16804TIP3    H171827   5.373   3.384   5.168  0.5132 -1.5213 -1.1503
16804TIP3    H271828   5.473   3.494   5.199 -2.4324  0.5896  1.4860
16805TIP3   OH271829   3.347   2.989   0.343  0.0663  0.4102  0.2215
16805TIP3    H171830   3.321   2.901   0.370 -0.7349  0.4522 -0.3588
16805TIP3    H271831   3.281   3.046   0.382  0.6337  0.7739  0.6710
16806TIP3   OH271832   4.666   4.349   2.476  0.0808 -0.3874 -0.1338
16806TIP3    H171833   4.755   4.357   2.441 -0.7155  3.9117 -1.8057
16806TIP3    H271834   4.672   4.383   2.565  0.2741 -1.2072  0.1732
16807TIP3   OH271835   2.300   1.766   3.894 -0.2425 -0.4267 -0.6465
16807TIP3    H171836   2.239   1.702   3.931  0.5862 -0.0579  1.5041
16807TIP3    H271837   2.377   1.716   3.870  0.5867 -0.2790  1.4539
16808TIP3   OH271838   4.356   3.651  15.402 -0.4522  0.5847  0.5740
16808TIP3    H171839   4.424   3.606  15.351 -0.7055  0.6331  0.1833
16808TIP3    H271840   4.389   3.740  15.412 -0.2060  0.4609  0.8620
16809TIP3   OH271841   4.327   5.729  14.950  0.3912 -0.4031  0.4384
16809TIP3    H171842   4.391   5.681  15.002  0.0358 -2.1330 -0.6383
16809TIP3    H271843   4.275   5.661  14.908 -0.8761  0.9555 -0.2858
16810TIP3   OH271844   1.614   4.676   3.133 -0.0076  0.2183 -0.1713
16810TIP3    H171845   1.528   4.718   3.127  0.1962  0.6756  0.0984
16810TIP3    H271846   1.648   4.679   3.044  1.0496  2.8457  0.2452
16811TIP3   OH271847   2.580   4.866  11.084 -0.5848  0.3630 -0.5187
16811TIP3    H171848   2.622   4.951  11.090 -0.3456  0.1308  2.5270
16811TIP3    H271849   2.653   4.803  11.082 -0.7619  0.1473 -2.5433
16812TIP3   OH271850   5.081   5.783  13.646  0.3173  0.2504 -0.7830
16812TIP3    H171851   5.175   5.800  13.659  0.6116  0.1687 -2.5358
16812TIP3    H271852   5.046   5.866  13.615 -0.2626  0.3387  0.0636
16813TIP3   OH271853   4.311   5.428  16.910  0.5197 -0.2875 -0.4069
16813TIP3    H171854   4.400   5.463  16.902  0.6366 -0.5348 -0.2091
16813TIP3    H271855   4.256   5.489  16.861  0.6391  0.4579  0.3770
16814TIP3   OH271856   0.851   5.421  16.681  0.3798  0.2225  0.1203
16814TIP3    H171857   0.773   5.463  16.717 -0.6798  0.7853 -2.6127
16814TIP3    H271858   0.842   5.431  16.586  2.8241 -1.4314 -0.3687
16815TIP3   OH271859   5.092   0.177   3.361  0.3452 -0.4060 -0.1902
16815TIP3    H171860   5.058   0.143   3.278  0.9073  0.4275 -0.7673
16815TIP3    H271861   5.014   0.209   3.407  0.2930  1.6065 -1.5512
16816TIP3   OH271862   5.162   2.842  16.044  0.0640  0.1180  0.5696
16816TIP3    H171863   5.121   2.860  15.960 -0.1466  0.4698  0.7475
16816TIP3    H271864   5.091   2.846  16.108 -0.0885 -1.7546  0.5878
16817TIP3   OH271865   2.034   5.709  15.472  0.3610  0.7367 -0.3250
16817TIP3    H171866   2.043   5.799  15.442 -2.9380  1.2491 -0.0784
16817TIP3    H271867   2.087   5.704  15.551  0.5490  2.4627 -0.3158
16818TIP3   OH271868   4.354   3.897   0.344  0.3832 -0.4807 -0.1188
16818TIP3    H171869   4.341   3.814   0.391 -1.4417  1.2022  2.6293
16818TIP3    H271870   4.348   3.873   0.252  0.4304 -3.4624  0.5447
16819TIP3   OH271871   4.820   2.345   0.298  0.5380 -0.2895  0.2554
16819TIP3    H171872   4.754   2.412   0.316  2.1992  1.5667 -0.1845
16819TIP3    H271873   4.776   2.262   0.317 -1.1138  0.9740  2.3921
16820TIP3   OH271874   4.833   1.093  14.853  0.2982 -0.8075  0.0165
16820TIP3    H171875   4.880   1.014  14.879  0.7790 -0.6233 -0.2630
16820TIP3    H271876   4.852   1.156  14.923  0.3566 -0.7807 -0.0223
16821TIP3   OH271877   2.012   3.192   5.699  0.2183 -0.4954 -0.2102
16821TIP3    H171878   2.085   3.131   5.708 -0.5126 -1.6314 -1.5508
16821TIP3    H271879   1.996   3.225   5.787  0.4704 -2.4440  0.6024
16822TIP3   OH271880   0.989   1.278   5.550  0.7958 -0.4071 -0.4261
16822TIP3    H171881   1.062   1.271   5.489  1.0340  1.5361 -0.4094
16822TIP3    H271882   0.955   1.367   5.538 -0.4629 -0.6794  0.8053
16823TIP3   OH271883   0.140   6.372   4.564 -0.4762  0.5329  0.2766
16823TIP3    H171884   0.126   6.460   4.529 -2.6631 -0.5385 -1.7998
16823TIP3    H271885   0.192   6.386   4.643 -0.4186  3.6334 -0.1797
16824TIP3   OH271886   6.210   2.221  15.554 -0.1831  0.2541 -0.7138
16824TIP3    H171887   6.138   2.227  15.618 -1.7488  0.2198 -2.3950
16824TIP3    H271888   6.225   2.128  15.544 -0.5686  0.2221 -1.0413
16825TIP3   OH271889   4.934   3.799   0.526 -0.1745 -0.5688  0.3930
16825TIP3    H171890   5.015   3.839   0.557  0.7355 -1.6940 -0.4595
16825TIP3    H271891   4.913   3.733   0.591 -0.7770  0.1412  0.9410
16826TIP3   OH271892   0.356   4.507   3.547 -0.2025 -0.2011 -0.3858
16826TIP3    H171893   0.424   4.562   3.507 -1.1193  0.1789 -1.4883
16826TIP3    H271894   0.377   4.419   3.518  0.6946 -0.3092  0.5551
16827TIP3   OH271895   3.910   6.487   2.090 -0.2491  0.2890 -0.2945
16827TIP3    H171896   3.967   6.565   2.087  1.1967 -0.7025  0.1615
16827TIP3    H271897   3.927   6.442   2.008 -0.0156 -0.2493  0.0415
16828TIP3   OH271898   5.799   5.511  12.469 -0.5207 -0.2658  0.7255
16828TIP3    H171899   5.791   5.504  12.374  0.6845  0.6106  0.5425
16828TIP3    H271900   5.768   5.599  12.490  1.2055  0.3597  0.8554
16829TIP3   OH271901   1.654   6.280   1.619  0.3740 -0.1865 -0.3664
16829TIP3    H171902   1.642   6.245   1.707  0.2289 -0.2132 -0.3958
16829TIP3    H271903   1.712   6.218   1.575  0.9608  0.1606 -0.0894
16830TIP3   OH271904   5.169   6.623   1.238 -0.6399 -0.3217 -0.6849
16830TIP3    H171905   5.158   6.704   1.187  1.7213 -0.4258 -1.5053
16830TIP3    H271906   5.093   6.570   1.214 -1.0294  0.7289 -1.9679
16831TIP3   OH271907   1.749   6.224  12.178  0.6125 -0.3490 -0.6547
16831TIP3    H171908   1.758   6.314  12.148  3.0530  1.0732  3.5070
16831TIP3    H271909   1.667   6.224  12.228  2.1431  0.6910  2.0783
16832TIP3   OH271910   1.874   4.997  13.836 -0.0368  0.4874  0.1586
16832TIP3    H171911   1.965   4.973  13.852  0.4676  2.2068  0.1141
16832TIP3    H271912   1.823   4.925  13.873  1.2398  1.3332  4.0255
16833TIP3   OH271913   1.875   1.643   2.247  0.9078 -0.4609  0.1357
16833TIP3    H171914   1.939   1.663   2.179 -0.2844 -0.6109 -1.0622
16833TIP3    H271915   1.903   1.559   2.282  2.4049  0.3215  0.9260
16834TIP3   OH271916   6.227   5.726   3.861 -0.1470 -0.2170 -0.3331
16834TIP3    H171917   6.262   5.642   3.891 -0.5796 -0.2551  0.0847
16834TIP3    H271918   6.303   5.785   3.861  0.0875 -0.5181 -0.2824
16835TIP3   OH271919   1.809   5.339   2.932 -0.2630  0.0145 -0.0562
16835TIP3    H171920   1.756   5.265   2.962 -1.8261  0.9436 -0.4449
16835TIP3    H271921   1.779   5.355   2.842 -0.5911  1.6707  0.3237
16836TIP3   OH271922   2.149   0.431  13.119 -0.5602 -0.3216 -0.4253
16836TIP3    H171923   2.124   0.523  13.109 -1.8386 -0.4071  1.4226
16836TIP3    H271924   2.069   0.388  13.151  0.5572 -1.6429  0.7333
16837TIP3   OH271925   0.016   2.259  15.450  0.8656 -0.0569 -0.3217
16837TIP3    H171926  -0.045   2.307  15.505  0.3489 -0.6809 -0.3451
16837TIP3    H271927   0.095   2.251  15.503  0.4307 -0.5028  0.2674
16838TIP3   OH271928   1.393   1.116   2.421 -0.5070 -0.1409 -0.2134
16838TIP3    H171929   1.410   1.037   2.369 -3.0864 -1.1682  0.3599
16838TIP3    H271930   1.326   1.163   2.371 -0.6368  0.5281  0.5785
16839TIP3   OH271931   2.343   0.269  17.196  0.3548  0.2941  0.6172
16839TIP3    H171932   2.389   0.264  17.112 -0.6997 -0.1161  0.0494
16839TIP3    H271933   2.283   0.343  17.185  0.0995  0.1353  0.9592
16840TIP3   OH271934   0.267   3.298  15.405  0.0670 -0.1827 -0.7242
16840TIP3    H171935   0.237   3.226  15.459  1.2785 -0.7780 -0.8244
16840TIP3    H271936   0.223   3.375  15.442 -0.9255 -0.8919 -0.3723
16841TIP3   OH271937   3.574   1.172  14.859  0.1381 -0.3168  0.1438
16841TIP3    H171938   3.493   1.162  14.909 -0.2984 -1.8421 -0.8140
16841TIP3    H271939   3.571   1.262  14.828  0.6574  0.8703  3.1717
16842TIP3   OH271940   2.900   6.403  10.874  0.6021  0.2261  0.0018
16842TIP3    H171941   2.819   6.407  10.824  0.0144 -0.6506  0.8417
16842TIP3    H271942   2.967   6.380  10.810 -0.0685 -0.4945 -0.4606
16843TIP3   OH271943   1.342   5.038   4.225  0.5547 -0.6173  0.0418
16843TIP3    H171944   1.248   5.050   4.218  0.6331 -0.4925 -1.0363
16843TIP3    H271945   1.353   4.968   4.289 -0.4355 -2.6471 -1.8531
16844TIP3   OH271946   2.526   6.036   3.294 -0.6844 -0.8104 -0.1813
16844TIP3    H171947   2.493   6.110   3.243 -0.8061 -0.6405  0.1407
16844TIP3    H271948   2.473   6.036   3.374 -0.0712 -0.6899  0.2257
16845TIP3   OH271949   5.108   5.316   2.586 -0.6042  0.1729 -0.1499
16845TIP3    H171950   5.024   5.302   2.630 -0.6007  0.3680 -0.0786
16845TIP3    H271951   5.089   5.307   2.493 -0.7506  0.4506 -0.1463
16846TIP3   OH271952   0.269   6.296   1.282 -0.4170  0.4617  0.1205
16846TIP3    H171953   0.215   6.218   1.287 -0.5772  0.5309 -0.4756
16846TIP3    H271954   0.212   6.363   1.244  0.0007  0.6104 -0.2503
16847TIP3   OH271955   6.646   4.311  15.788 -0.3567  0.0325 -0.8293
16847TIP3    H171956   6.664   4.218  15.796 -1.2134 -0.0970 -0.2329
16847TIP3    H271957   6.721   4.354  15.829 -0.5807 -0.4417  0.1125
16848TIP3   OH271958   5.923   0.365   3.434  0.2212 -0.3678 -0.0962
16848TIP3    H171959   5.967   0.379   3.350  1.4775 -0.2612  0.5668
16848TIP3    H271960   5.877   0.282   3.423  1.0053 -0.7444 -0.6340
16849TIP3   OH271961   5.728   6.545  13.908  0.1222  0.2950  0.0385
16849TIP3    H171962   5.822   6.552  13.887  0.5507  0.9891  1.9721
16849TIP3    H271963   5.691   6.627  13.876  0.4676  0.6640  0.5626
16850TIP3   OH271964   0.118   6.198   5.713 -0.5091 -0.0234 -0.4652
16850TIP3    H171965   0.048   6.199   5.648 -0.8998  2.3829 -0.1207
16850TIP3    H271966   0.130   6.291   5.736  1.9575 -0.4847  0.3878
16851TIP3   OH271967   6.594   4.675   6.124  0.2311  0.1610 -0.2016
16851TIP3    H171968   6.527   4.660   6.191  1.1869 -0.9743  0.5222
16851TIP3    H271969   6.579   4.766   6.097  0.1556  0.8701  1.9506
16852TIP3   OH271970   2.804   4.834   0.249  0.1565 -0.2604 -0.3103
16852TIP3    H171971   2.714   4.852   0.221 -0.3226 -2.6370 -0.5403
16852TIP3    H271972   2.806   4.858   0.341 -0.4016  0.7698 -0.5567
16853TIP3   OH271973   6.334   4.398  15.825  0.1800  0.2454  0.1009
16853TIP3    H171974   6.404   4.335  15.808 -1.0391 -1.2481  0.3677
16853TIP3    H271975   6.330   4.452  15.746 -0.3681 -1.6501 -1.2556
16854TIP3   OH271976   6.533   5.427  11.670 -0.4964 -0.0750 -0.2397
16854TIP3    H171977   6.592   5.502  11.663 -1.1174  0.6040  1.1965
16854TIP3    H271978   6.586   5.357  11.707 -0.7719  0.8914  2.2188
16855TIP3   OH271979   4.064   0.981   4.486  0.3046  0.6039  0.1521
16855TIP3    H171980   4.126   1.041   4.444  1.7980  0.3776  1.9176
16855TIP3    H271981   4.030   0.927   4.414  0.9015  1.8276 -1.0906
16856TIP3   OH271982   3.383   1.556   3.081  0.6247 -1.1554  0.1609
16856TIP3    H171983   3.432   1.487   3.125 -0.2098 -1.5979  0.4079
16856TIP3    H271984   3.341   1.513   3.006 -0.3990 -1.0706  0.6663
16857TIP3   OH271985   0.011   4.746  15.029  0.4669  0.3751 -0.1998
16857TIP3    H171986   0.007   4.663  15.077  0.6778  0.6858  0.3690
16857TIP3    H271987  -0.079   4.762  15.001  0.5599 -0.4352 -0.9974
16858TIP3   OH271988   0.164   1.876   0.052 -0.0626  0.3228 -0.1344
16858TIP3    H171989   0.090   1.900  -0.003 -0.0260 -0.0835 -0.3603
16858TIP3    H271990   0.240   1.882  -0.005 -0.2560 -2.2591 -0.7808
16859TIP3   OH271991   0.039   6.385  15.525  0.0421 -0.3627  0.1818
16859TIP3    H171992  -0.028   6.415  15.586  0.2671 -1.7578  1.1509
16859TIP3    H271993   0.122   6.406  15.569  0.2708  1.0178 -0.8430
16860TIP3   OH271994   1.551   4.049  14.480  0.0067  0.2356 -0.3106
16860TIP3    H171995   1.597   4.021  14.401  0.6188  0.6398 -0.1021
16860TIP3    H271996   1.537   4.143  14.467 -0.4502  0.1807 -0.2169
16861TIP3   OH271997   5.866   5.502   0.796  0.1153 -0.5339 -0.1319
16861TIP3    H171998   5.887   5.420   0.841  0.4526  0.2449  1.1761
16861TIP3    H271999   5.947   5.526   0.751 -0.5024 -1.8152 -2.0322
16862TIP3   OH272000   3.466   2.671  11.808  0.2420  0.1413 -0.5263
16862TIP3    H172001   3.455   2.638  11.897 -1.4616 -1.1962 -1.1841
16862TIP3    H272002   3.560   2.685  11.799  0.4105  0.5818  1.5654
16863TIP3   OH272003   2.197   4.238   3.651 -0.2574 -0.6375  0.0975
16863TIP3    H172004   2.271   4.183   3.624  1.2973  1.4884 -0.2767
16863TIP3    H272005   2.159   4.192   3.725  0.8954 -2.2592 -0.2581
16864TIP3   OH272006   3.510   4.250  13.677 -0.3757 -0.2958  0.0133
16864TIP3    H172007   3.453   4.296  13.616 -0.5110  0.9642  1.0636
16864TIP3    H272008   3.492   4.157  13.661 -1.4945  0.0448 -0.8190
16865TIP3   OH272009   6.103   1.445   0.429  0.3397 -0.1003  0.0938
16865TIP3    H172010   6.085   1.353   0.447  0.8989  0.0487  1.5264
16865TIP3    H272011   6.027   1.492   0.464 -0.7926 -0.0769 -2.1673
16866TIP3   OH272012   0.446   3.277  11.153 -0.4673  0.2339 -0.4083
16866TIP3    H172013   0.539   3.252  11.151 -0.4312  0.1451  0.9463
16866TIP3    H272014   0.430   3.298  11.245 -1.7209  0.5458 -0.6868
16867TIP3   OH272015   1.693   5.608   2.767  0.7850  0.2329  0.0364
16867TIP3    H172016   1.715   5.623   2.675  0.5105  1.2447  0.1291
16867TIP3    H272017   1.734   5.681   2.813 -0.8650  0.9188  0.4665
16868TIP3   OH272018   5.428   1.634  11.943  0.0711  0.4387  0.8084
16868TIP3    H172019   5.523   1.639  11.928  0.1711  0.3497  1.3868
16868TIP3    H272020   5.413   1.694  12.016 -0.4279  1.0023  0.2538
16869TIP3   OH272021   3.591   0.688   3.142  0.5424  0.1397  0.1371
16869TIP3    H172022   3.576   0.605   3.098 -0.6271  0.6328 -0.4375
16869TIP3    H272023   3.674   0.676   3.188 -0.1126 -1.6740  0.9142
16870TIP3   OH272024   6.561   2.523   3.469  0.5980 -0.5331  0.5244
16870TIP3    H172025   6.573   2.464   3.395 -0.3105 -0.4431  0.2952
16870TIP3    H272026   6.611   2.602   3.446  0.0922 -0.3950 -0.1212
16871TIP3   OH272027   4.668   4.606   1.520  0.6698 -0.0165  0.4188
16871TIP3    H172028   4.695   4.698   1.518  0.7371  0.1229  3.3359
16871TIP3    H272029   4.586   4.607   1.570  1.9705 -1.7296  2.7956
16872TIP3   OH272030   1.717   0.502   1.044 -0.1705  0.4760 -0.3319
16872TIP3    H172031   1.796   0.451   1.026  0.7146  0.6980  2.3897
16872TIP3    H272032   1.748   0.592   1.054 -0.6921  0.5382  0.9348
16873TIP3   OH272033   1.054   2.028  12.757 -0.0163  0.5824  0.0983
16873TIP3    H172034   0.984   1.966  12.732 -1.0508  0.4511  2.9510
16873TIP3    H272035   1.133   1.974  12.760  0.0416  0.4610 -1.9124
16874TIP3   OH272036   2.615   1.648   1.863  0.4449 -0.1951 -0.0785
16874TIP3    H172037   2.526   1.649   1.896  0.7739 -1.8208  0.9545
16874TIP3    H272038   2.617   1.718   1.798 -0.9611  1.3638  1.4553
16875TIP3   OH272039   1.934   2.020   1.447  0.3686  0.3834  0.3675
16875TIP3    H172040   1.968   2.098   1.403  3.6284 -0.6262  0.7750
16875TIP3    H272041   1.935   1.953   1.379 -4.2097  0.8788 -0.5162
16876TIP3   OH272042   1.406   2.004  15.438  0.2081  0.4774 -0.6324
16876TIP3    H172043   1.324   1.977  15.480 -0.6410 -0.2041 -2.6157
16876TIP3    H272044   1.380   2.067  15.371  1.5626  1.7986  0.0271
16877TIP3   OH272045   3.445   0.739   4.128  0.7740  0.9898  0.0039
16877TIP3    H172046   3.494   0.671   4.173 -2.0649 -0.0509  1.8202
16877TIP3    H272047   3.494   0.755   4.047  2.9411 -1.3080  0.7421
16878TIP3   OH272048   4.914   6.268   0.040 -0.0059 -0.1269  0.1875
16878TIP3    H172049   4.858   6.206   0.088  0.0454 -0.0145  0.3956
16878TIP3    H272050   4.952   6.323   0.109 -1.5132  1.3649 -0.1243
16879TIP3   OH272051   3.381   6.443   4.637 -0.4254 -0.2571 -0.0478
16879TIP3    H172052   3.288   6.434   4.658  0.0280 -0.9981  1.8282
16879TIP3    H272053   3.418   6.488   4.712  0.7121  0.2748 -0.9026
16880TIP3   OH272054   2.349   0.219   4.575  0.0744  0.0579  0.1601
16880TIP3    H172055   2.328   0.240   4.666 -1.9007 -0.8812 -0.0225
16880TIP3    H272056   2.265   0.227   4.529  0.5744 -1.6548 -1.1501
16881TIP3   OH272057   1.329   5.013  16.404  0.7761  0.3560 -0.2217
16881TIP3    H172058   1.393   5.037  16.337 -0.4514  0.6445 -1.3313
16881TIP3    H272059   1.313   5.093  16.453  0.2408  0.6422 -0.8484
16882TIP3   OH272060   0.732   2.081   1.435 -0.4178  0.2759  0.5312
16882TIP3    H172061   0.696   2.107   1.520  1.0467 -2.2435  2.0381
16882TIP3    H272062   0.824   2.109   1.438 -0.6302  1.2419 -0.7881
16883TIP3   OH272063   0.454   0.044  15.826  0.4429 -0.1380 -0.4147
16883TIP3    H172064   0.366   0.040  15.863  0.1905  0.4665 -0.9366
16883TIP3    H272065   0.497   0.115  15.874  0.9597 -1.0152  0.4709
16884TIP3   OH272066   0.538   2.686  14.763  0.4766  0.3858  0.0619
16884TIP3    H172067   0.600   2.754  14.736 -0.1773  1.5316  1.2839
16884TIP3    H272068   0.545   2.684  14.858 -0.9369  0.1285  0.1790
16885TIP3   OH272069   3.228   2.672   1.997 -0.0293 -0.2002  0.2304
16885TIP3    H172070   3.235   2.620   1.917  0.0886 -0.6173  0.5120
16885TIP3    H272071   3.303   2.644   2.050  0.1057  0.3426  0.3355
16886TIP3   OH272072   3.720   4.163  12.745  0.3644  0.4480 -0.0349
16886TIP3    H172073   3.710   4.155  12.650  1.4325  0.8471 -0.1934
16886TIP3    H272074   3.653   4.106  12.781 -0.4346  0.7275 -1.0254
16887TIP3   OH272075   6.015   3.224  10.923 -0.4169  0.3066  0.9373
16887TIP3    H172076   6.051   3.306  10.956  1.2445  0.0719 -0.1635
16887TIP3    H272077   6.086   3.161  10.931 -0.6889 -0.2986 -0.9149
16888TIP3   OH272078   1.122   1.634   1.346 -0.0364 -0.1619 -0.1740
16888TIP3    H172079   1.152   1.693   1.276  1.1980  1.0703  1.3321
16888TIP3    H272080   1.049   1.681   1.386  0.6277  0.1595  0.7017
16889TIP3   OH272081   3.883   5.993   2.536 -0.9889 -0.3817 -0.1559
16889TIP3    H172082   3.799   5.952   2.515 -0.4756 -1.0834 -0.9164
16889TIP3    H272083   3.935   5.923   2.573  0.0470 -0.5594 -1.8647
16890TIP3   OH272084   2.761   0.647  13.595 -0.1780 -0.2585  0.7445
16890TIP3    H172085   2.686   0.597  13.565 -1.3885 -0.0597  3.1289
16890TIP3    H272086   2.810   0.586  13.650  0.8334 -0.0834  0.0469
16891TIP3   OH272087   3.393   0.173   5.221 -0.0174 -0.2326 -0.6982
16891TIP3    H172088   3.480   0.186   5.182 -0.1115  1.4121 -0.4199
16891TIP3    H272089   3.354   0.103   5.169  0.7203  0.3671 -2.1142
16892TIP3   OH272090   0.482   0.837   0.493 -0.5250  0.2399 -0.3539
16892TIP3    H172091   0.569   0.825   0.455  1.4059  1.8503  3.0400
16892TIP3    H272092   0.454   0.923   0.464 -1.2137 -0.4290 -1.7446
16893TIP3   OH272093   2.240   3.290   0.270  0.4838  0.5355 -0.1926
16893TIP3    H172094   2.325   3.330   0.292  0.2053 -0.0782  2.2763
16893TIP3    H272095   2.263   3.216   0.215  1.8534 -0.8272  2.0121
16894TIP3   OH272096   6.459   1.997  16.475 -0.5015 -0.0474 -0.0296
16894TIP3    H172097   6.401   2.068  16.449 -0.6139 -0.0855  0.1137
16894TIP3    H272098   6.400   1.926  16.500 -0.3864 -0.2613 -0.3654
16895TIP3   OH272099   0.486   5.476   2.403 -0.0982 -0.1604  0.6253
16895TIP3    H172100   0.413   5.420   2.429 -0.5060  0.3986  0.6898
16895TIP3    H272101   0.549   5.416   2.362 -1.2299 -0.4422 -0.7664
16896TIP3   OH272102   2.677   2.746  14.703  0.0172  0.0355  0.3344
16896TIP3    H172103   2.583   2.728  14.702 -0.3437  1.6258  1.6542
16896TIP3    H272104   2.689   2.811  14.633 -0.3744  1.8662  1.8951
16897TIP3   OH272105   4.248   1.659   2.638  0.0763  0.1237 -0.2799
16897TIP3    H172106   4.342   1.669   2.649  0.4624 -1.5592 -1.6508
16897TIP3    H272107   4.239   1.608   2.557 -2.0531  1.6196 -1.0873
16898TIP3   OH272108   4.760   2.961  13.979  0.3986 -0.5376  0.1663
16898TIP3    H172109   4.847   2.950  14.017  0.6169  1.7015  0.4525
16898TIP3    H272110   4.772   2.946  13.886  1.4412  1.1644 -0.0114
16899TIP3   OH272111   4.371   5.943   3.234 -0.1366  0.1504  0.2063
16899TIP3    H172112   4.422   5.948   3.153 -2.6383  2.3241 -1.4014
16899TIP3    H272113   4.433   5.967   3.303  1.4143  1.0593 -1.4063
16900TIP3   OH272114   1.529   6.672   1.401  0.0202 -0.4549 -0.3346
16900TIP3    H172115   1.597   6.686   1.466 -0.7517 -1.2760  0.6743
16900TIP3    H272116   1.471   6.749   1.409  1.2240  0.6674 -1.7680
16901TIP3   OH272117   4.325   5.391  16.201 -0.4853  0.1687  0.0484
16901TIP3    H172118   4.266   5.446  16.149  0.9753 -0.0399 -1.9091
16901TIP3    H272119   4.364   5.452  16.264 -0.0579  1.0545 -1.0591
16902TIP3   OH272120   5.883   3.744   3.510 -0.1269  0.0514 -0.5456
16902TIP3    H172121   5.838   3.774   3.589 -0.2381  0.7020 -0.8554
16902TIP3    H272122   5.902   3.823   3.461  1.4307 -0.2060 -0.3937
16903TIP3   OH272123   2.103   2.804   4.018 -0.4873  0.2268 -0.4362
16903TIP3    H172124   2.145   2.888   4.003 -0.2187  0.1066 -0.3696
16903TIP3    H272125   2.066   2.811   4.106 -1.3420  0.6336 -0.8188
16904TIP3   OH272126   4.619   4.113  16.208 -0.6252 -0.0736 -0.4927
16904TIP3    H172127   4.711   4.139  16.208 -0.1946 -1.5229 -0.9136
16904TIP3    H272128   4.607   4.068  16.292 -0.8765 -0.1607 -0.5753
16905TIP3   OH272129   2.114   1.775   2.779  0.2162 -0.0268 -0.5909
16905TIP3    H172130   2.190   1.823   2.745  0.9345  0.2941  1.3396
16905TIP3    H272131   2.138   1.753   2.869 -1.9179 -0.0758  0.0250
16906TIP3   OH272132   5.528   6.366   2.774 -0.0255 -0.3077 -0.0696
16906TIP3    H172133   5.588   6.440   2.773 -0.8742  0.5939  2.9410
16906TIP3    H272134   5.471   6.383   2.850 -2.5562 -2.2778 -1.3559
16907TIP3   OH272135   6.070   0.497  15.593 -0.3326  0.1304  0.1288
16907TIP3    H172136   6.157   0.520  15.560 -0.6983  0.8443 -0.3734
16907TIP3    H272137   6.024   0.581  15.600 -1.6223 -0.3855 -1.5053
16908TIP3   OH272138   2.022   3.788   3.772  0.1556 -0.2588 -0.5538
16908TIP3    H172139   1.930   3.765   3.780  0.1157  0.4147  1.2514
16908TIP3    H272140   2.054   3.733   3.701 -1.2713 -1.6180 -0.1949
16909TIP3   OH272141   5.099   6.509   4.743  0.1168 -0.3886 -0.0236
16909TIP3    H172142   5.085   6.472   4.830  2.2096  0.8004  0.8929
16909TIP3    H272143   5.026   6.569   4.730 -1.0087 -1.6424  0.2435
16910TIP3   OH272144   4.029   4.644   3.849 -0.1387  0.5468 -0.0766
16910TIP3    H172145   3.998   4.733   3.869 -2.5109 -0.2139 -0.0503
16910TIP3    H272146   3.969   4.587   3.898  2.4440 -1.0878  1.4171
16911TIP3   OH272147   4.990   4.456  15.148 -0.2634  0.8029 -0.1927
16911TIP3    H172148   5.021   4.546  15.148  1.3403  0.3520  2.2853
16911TIP3    H272149   4.895   4.464  15.140 -0.0118  2.5217 -2.5650
16912TIP3   OH272150   5.483   0.683   4.521  0.3327  0.3865  0.0443
16912TIP3    H172151   5.392   0.671   4.548 -0.0468  1.5601 -0.6382
16912TIP3    H272152   5.487   0.645   4.433  0.6310 -0.0858  0.2563
16913TIP3   OH272153   5.187   3.912   5.659  0.6478 -0.2438 -0.0696
16913TIP3    H172154   5.128   3.867   5.719 -1.1777 -0.8917 -2.1863
16913TIP3    H272155   5.247   3.844   5.628  0.8164 -0.1775  0.1079
16914TIP3   OH272156   6.520   2.308   0.775  0.4992 -0.2346 -0.3940
16914TIP3    H172157   6.433   2.303   0.815  1.1659 -0.1947  1.1128
16914TIP3    H272158   6.507   2.278   0.685 -0.8116 -1.6201  0.2176
16915TIP3   OH272159   6.123   1.751   4.538  0.1589 -0.2725 -0.4306
16915TIP3    H172160   6.163   1.764   4.451 -0.8242 -1.8832 -1.1749
16915TIP3    H272161   6.031   1.733   4.519  0.1663 -1.8497  0.8238
16916TIP3   OH272162   4.592   3.330   4.048  0.1344 -0.5279  1.3055
16916TIP3    H172163   4.509   3.325   4.096  0.3038 -1.9100  1.4799
16916TIP3    H272164   4.659   3.312   4.114  0.7481  2.0226  1.5119
16917TIP3   OH272165   0.090   1.024  12.425  0.2973  0.0110 -0.6082
16917TIP3    H172166   0.172   0.981  12.452 -0.8417 -0.4941  2.4773
16917TIP3    H272167   0.049   1.050  12.507 -2.4275  0.7141 -2.0860
16918TIP3   OH272168   6.395   2.339  15.384  0.4185  0.1245  0.0739
16918TIP3    H172169   6.447   2.265  15.354  1.5819  0.6710  0.6769
16918TIP3    H272170   6.333   2.302  15.446  1.3520 -0.2683  0.7752
16919TIP3   OH272171   1.778   1.752   4.870 -0.5474  0.5225 -0.8857
16919TIP3    H172172   1.839   1.707   4.812  0.2140  1.9669 -1.2395
16919TIP3    H272173   1.693   1.740   4.828 -0.9432 -3.1695  0.5839
16920TIP3   OH272174   2.336   1.185   4.636  0.1156  0.2055 -0.5567
16920TIP3    H172175   2.311   1.162   4.547  2.2437  1.1174 -1.4575
16920TIP3    H272176   2.256   1.223   4.675 -0.2668  1.9188 -2.8392
16921TIP3   OH272177   3.838   4.883  14.127 -0.1552 -0.0371  0.2645
16921TIP3    H172178   3.929   4.900  14.151 -1.3411  1.6707  4.3594
16921TIP3    H272179   3.808   4.819  14.191 -1.8205 -0.7565 -1.1711
16922TIP3   OH272180   0.277   6.104  14.983 -0.4359 -0.0647  0.2168
16922TIP3    H172181   0.320   6.123  14.900 -0.7072  0.0184  0.0932
16922TIP3    H272182   0.348   6.087  15.045 -0.1307 -4.5321 -0.9949
16923TIP3   OH272183   1.775   1.607   5.889 -0.0797 -0.1576  0.1207
16923TIP3    H172184   1.761   1.603   5.983 -0.9649 -0.6271 -0.0191
16923TIP3    H272185   1.724   1.683   5.860 -0.1331 -0.2505 -0.0323
16924TIP3   OH272186   1.008   4.187  16.113  0.2662 -0.4001 -0.2279
16924TIP3    H172187   1.040   4.101  16.089  0.8046  0.1255 -1.4989
16924TIP3    H272188   0.920   4.192  16.075 -0.5838 -1.0911  1.5370
16925TIP3   OH272189   3.712   0.368  13.909  0.1472 -0.1325  0.1420
16925TIP3    H172190   3.644   0.308  13.879 -1.1261  0.7604  1.1145
16925TIP3    H272191   3.712   0.439  13.845  0.0904 -0.0729  0.2090
16926TIP3   OH272192   1.642   3.075   1.248  0.4765 -0.7369 -0.3121
16926TIP3    H172193   1.593   3.039   1.174  0.8540  0.6565 -1.2900
16926TIP3    H272194   1.704   3.136   1.208  1.3228 -0.6220  1.0965
16927TIP3   OH272195   3.025   1.939   2.577 -0.3209 -0.0260  0.2258
16927TIP3    H172196   3.118   1.923   2.593 -0.4617 -1.1959 -0.0593
16927TIP3    H272197   2.979   1.878   2.635 -0.8924 -0.0788 -0.2696
16928TIP3   OH272198   6.057   4.103  15.824 -0.0212 -0.3523  0.8747
16928TIP3    H172199   5.967   4.084  15.796  0.2717 -0.4601 -0.0249
16928TIP3    H272200   6.053   4.190  15.862 -0.1541  0.5305 -1.0115
16929TIP3   OH272201   4.300   2.033   2.652 -0.4884 -0.1122 -0.1026
16929TIP3    H172202   4.384   2.053   2.693 -0.3094  1.0999 -0.9987
16929TIP3    H272203   4.323   1.989   2.571 -0.7539 -0.4792  0.0181
16930TIP3   OH272204   2.617   1.758  11.553  0.6021 -0.0852  0.1005
16930TIP3    H172205   2.634   1.792  11.465 -1.3576  0.6829 -0.0203
16930TIP3    H272206   2.618   1.663  11.543 -0.5825 -0.0092 -0.9872
16931TIP3   OH272207   4.047   5.349   0.154 -0.1109 -0.1621  0.1530
16931TIP3    H172208   3.990   5.279   0.121 -0.2388 -0.2241  0.4990
16931TIP3    H272209   3.989   5.425   0.164  0.3121  0.4266 -1.5868
16932TIP3   OH272210   2.741   0.628   4.411  0.3671  0.5397 -0.6396
16932TIP3    H172211   2.732   0.690   4.484 -3.0563  0.8925 -1.1938
16932TIP3    H272212   2.815   0.661   4.360  1.8585  1.1654  1.7674
16933TIP3   OH272213   5.615   0.814   1.511 -0.0839  0.1091  0.7203
16933TIP3    H172214   5.702   0.842   1.540 -1.1081  2.9627  1.3767
16933TIP3    H272215   5.615   0.828   1.416  0.2429 -0.1476  0.6825
16934TIP3   OH272216   1.731   0.669  14.203 -0.0290 -0.0892 -0.0709
16934TIP3    H172217   1.723   0.595  14.263  0.8623 -0.0404  0.1277
16934TIP3    H272218   1.825   0.673  14.181 -0.4799 -0.8562 -2.4267
16935TIP3   OH272219   1.378   5.629  13.426  0.5743  0.2389  0.1036
16935TIP3    H172220   1.453   5.643  13.368  1.4067  0.8994  1.2862
16935TIP3    H272221   1.312   5.588  13.370  1.4854  0.4599 -1.1941
16936TIP3   OH272222   3.942   5.485  12.109 -0.1661  0.5488 -0.4442
16936TIP3    H172223   3.859   5.497  12.064  0.2911  2.2287 -0.9015
16936TIP3    H272224   3.923   5.503  12.201 -0.4015  0.4077 -0.4640
16937TIP3   OH272225   1.384   6.207   5.393  0.4191 -0.2791 -0.8502
16937TIP3    H172226   1.370   6.203   5.487  0.1504 -1.8542 -0.9362
16937TIP3    H272227   1.350   6.124   5.360 -0.5677  0.7239 -2.4868
16938TIP3   OH272228   0.716   5.215   6.700 -0.1427 -0.7662 -0.3717
16938TIP3    H172229   0.690   5.279   6.634  0.9299  3.0623  2.5718
16938TIP3    H272230   0.641   5.210   6.759  0.4969 -0.7068  0.4611
16939TIP3   OH272231   0.032   1.516  14.493 -0.2499  0.0162 -0.6033
16939TIP3    H172232   0.069   1.495  14.579 -0.4660  0.5348 -0.3820
16939TIP3    H272233   0.027   1.431  14.448  1.9183 -0.0030 -0.9366
16940TIP3   OH272234   1.823   4.771   6.227 -0.2516 -0.0989  0.0446
16940TIP3    H172235   1.887   4.839   6.206 -1.5169  2.0337  2.4862
16940TIP3    H272236   1.833   4.757   6.321 -0.8783 -2.4671 -0.1771
16941TIP3   OH272237   0.013   3.346   4.678  0.1399  0.5301  0.0281
16941TIP3    H172238   0.014   3.257   4.712  1.4845  1.0812  1.5461
16941TIP3    H272239   0.065   3.342   4.598  1.1689  0.1649  0.7037
16942TIP3   OH272240   2.717   0.994   5.189  0.3958 -0.6304  0.1080
16942TIP3    H172241   2.705   1.057   5.259 -0.9981  0.2534 -0.8870
16942TIP3    H272242   2.797   0.946   5.213  2.0757  2.1343  0.4138
16943TIP3   OH272243   5.915   5.913  14.981  0.2777  0.0172 -0.0963
16943TIP3    H172244   5.930   5.893  15.073  1.3115 -2.3240 -0.6865
16943TIP3    H272245   5.987   5.972  14.957 -0.3102  1.0800  0.6902
16944TIP3   OH272246   4.201   1.262  13.111  0.6429 -0.1847 -0.2581
16944TIP3    H172247   4.256   1.282  13.187  0.5355 -1.7209  0.2601
16944TIP3    H272248   4.128   1.212  13.147 -0.0234  0.0681 -1.2311
16945TIP3   OH272249   3.074   5.185   2.834  0.3341 -0.0718  0.3280
16945TIP3    H172250   3.048   5.094   2.851  0.8731 -0.3039 -0.0928
16945TIP3    H272251   3.163   5.179   2.800  1.3618  0.7846  2.6517
16946TIP3   OH272252   2.070   0.327   4.516 -0.0325 -0.1930 -0.2917
16946TIP3    H172253   1.990   0.376   4.497  0.7532  0.5550 -1.9096
16946TIP3    H272254   2.060   0.245   4.469 -1.7207 -2.1357  3.0986
16947TIP3   OH272255   3.243   0.884  15.033  0.1230  0.0394  0.6146
16947TIP3    H172256   3.179   0.889  14.962  0.6222  1.1852  0.2342
16947TIP3    H272257   3.320   0.844  14.992  0.8070  1.7120  0.1792
16948TIP3   OH272258   4.757   4.396  15.786 -0.2402  0.4704  0.3558
16948TIP3    H172259   4.814   4.321  15.772  1.3288  1.6887 -0.1133
16948TIP3    H272260   4.696   4.368  15.853 -0.3315 -1.5401 -0.5020
16949TIP3   OH272261   2.371   5.604   4.599 -0.6311  0.2996  0.7461
16949TIP3    H172262   2.435   5.550   4.646  1.5087  3.0742  1.2852
16949TIP3    H272263   2.334   5.661   4.666 -1.2310  0.9953 -0.1552
16950TIP3   OH272264   6.078   2.601  13.763  0.5750  0.0117  0.2402
16950TIP3    H172265   6.125   2.603  13.680  0.1479  2.5969 -0.0242
16950TIP3    H272266   6.056   2.692  13.780 -1.1005 -0.6873  2.2162
16951TIP3   OH272267   1.060   2.228   5.919  0.2889 -0.2277  0.5591
16951TIP3    H172268   1.152   2.200   5.919  0.5655  0.6356  0.9398
16951TIP3    H272269   1.039   2.241   5.827  0.4270 -0.7867  0.4421
16952TIP3   OH272270   4.509   1.864  14.613 -0.0959  0.5896 -0.7033
16952TIP3    H172271   4.590   1.900  14.578 -0.3551  0.4079 -1.5200
16952TIP3    H272272   4.452   1.940  14.624 -0.2551  0.5789 -1.3695
16953TIP3   OH272273   0.047   2.929   2.712 -0.3414  0.2325 -0.4516
16953TIP3    H172274   0.111   2.858   2.704  0.3510  0.9508 -1.7144
16953TIP3    H272275   0.098   3.003   2.746 -0.3918  0.8973 -1.7474
16954TIP3   OH272276   3.924   3.945   1.605  0.2033 -0.0618  0.1492
16954TIP3    H172277   3.861   4.014   1.589  2.5367  2.1622 -0.1339
16954TIP3    H272278   3.976   3.940   1.525  1.6553 -0.3803  1.0635
16955TIP3   OH272279   0.805   1.334  13.484  0.0058  0.0060  0.2747
16955TIP3    H172280   0.767   1.264  13.537  0.4360  0.2569  0.9319
16955TIP3    H272281   0.745   1.408  13.495 -0.1088 -0.0627  0.1044
16956TIP3   OH272282   1.131   2.199  14.191  0.5110  0.4540 -0.1401
16956TIP3    H172283   1.120   2.196  14.096 -0.3498 -0.3033 -0.0253
16956TIP3    H272284   1.225   2.191  14.205  0.7882  1.8745 -0.9649
16957TIP3   OH272285   3.193   4.565   3.279 -0.4198  0.3228 -0.4201
16957TIP3    H172286   3.113   4.522   3.248 -0.5395  0.5997 -0.4959
16957TIP3    H272287   3.199   4.644   3.226  0.5012 -0.2439 -1.1996
16958TIP3   OH272288   3.049   3.728   0.538 -0.1071 -0.0621  0.1628
16958TIP3    H172289   3.075   3.720   0.630 -1.2564 -0.7317  0.4459
16958TIP3    H272290   3.057   3.639   0.503 -1.4053 -0.1725  0.1087
16959TIP3   OH272291   1.122   1.137  16.134 -0.5025 -0.4435  0.2079
16959TIP3    H172292   1.037   1.105  16.104 -0.5385 -0.4356  0.3003
16959TIP3    H272293   1.149   1.075  16.202 -0.6808 -0.1506  0.5528
16960TIP3   OH272294   1.091   3.115  13.855  0.8782 -0.3983  0.6156
16960TIP3    H172295   1.125   3.184  13.798  1.2470 -1.4867 -0.5108
16960TIP3    H272296   1.072   3.160  13.937 -1.8283  1.7474 -0.9836
16961TIP3   OH272297   6.064   0.839   0.887  0.0488 -0.2399  0.5207
16961TIP3    H172298   5.984   0.887   0.865  0.4500  0.7060  1.0486
16961TIP3    H272299   6.045   0.748   0.864 -0.8392  0.1216 -0.2319
16962TIP3   OH272300   6.350   5.324  13.347  0.0230  0.6020  0.3445
16962TIP3    H172301   6.370   5.408  13.304  2.1566 -0.3201 -0.6096
16962TIP3    H272302   6.390   5.331  13.433 -1.4170  1.2124  1.0020
16963TIP3   OH272303   1.521   0.757   3.040 -0.0215  0.4536  0.3494
16963TIP3    H172304   1.505   0.691   3.106 -1.1648 -0.0267 -0.3651
16963TIP3    H272305   1.454   0.824   3.056  0.4460  0.9187  0.4049
16964TIP3   OH272306   2.669   2.670  15.737  0.1962  0.2175 -0.1657
16964TIP3    H172307   2.752   2.668  15.690 -0.5537  2.5642 -1.7992
16964TIP3    H272308   2.692   2.656  15.829  2.1682 -0.7520 -0.7492
16965TIP3   OH272309   4.150   6.306   2.433 -0.0421 -0.5190  0.0540
16965TIP3    H172310   4.080   6.370   2.416 -0.7111 -0.6345  2.1107
16965TIP3    H272311   4.128   6.231   2.377 -0.2629  0.3170 -1.0238
16966TIP3   OH272312   5.496   4.134  14.708 -0.3056 -0.0099 -0.4494
16966TIP3    H172313   5.409   4.100  14.728 -0.2556  1.1004  2.1207
16966TIP3    H272314   5.481   4.225  14.682 -0.1163 -0.7296 -3.4924
16967TIP3   OH272315   0.871   4.947  11.004 -0.2953 -0.3638 -0.5832
16967TIP3    H172316   0.787   4.906  10.984 -1.2103  1.2422 -0.1599
16967TIP3    H272317   0.885   4.929  11.097  0.0929 -1.0361 -0.7588
16968TIP3   OH272318   3.515   5.039  14.149 -0.6107  0.4302  0.0679
16968TIP3    H172319   3.448   5.108  14.146 -1.2456 -0.1835 -0.0519
16968TIP3    H272320   3.473   4.966  14.195  0.8616  0.9671  2.4774
16969TIP3   OH272321   6.046   0.055  15.393 -0.9489  0.4955 -0.4900
16969TIP3    H172322   5.957   0.021  15.402  0.1014 -2.0937  1.3570
16969TIP3    H272323   6.063   0.100  15.476  0.2471 -1.2186  0.2455
16970TIP3   OH272324   0.423   2.912  15.543  0.3670  0.3207  0.3460
16970TIP3    H172325   0.364   2.922  15.617  0.4416  0.0765  0.4384
16970TIP3    H272326   0.367   2.922  15.466  0.1376 -0.2980  0.4325
16971TIP3   OH272327   1.012   2.637   4.495  0.5147  0.4415  0.3013
16971TIP3    H172328   1.043   2.698   4.429  0.9702  2.3484  2.1588
16971TIP3    H272329   1.091   2.603   4.536  0.2537  0.8027  1.1454
16972TIP3   OH272330   5.743   0.347  13.116 -0.6504 -0.2692  0.3476
16972TIP3    H172331   5.786   0.275  13.071 -0.2601 -0.4216  0.9509
16972TIP3    H272332   5.776   0.426  13.073 -0.0269 -0.4000  0.5869
16973TIP3   OH272333   0.936   3.512   4.123  0.0742 -0.4528  0.1644
16973TIP3    H172334   0.917   3.430   4.077 -0.7863 -0.8789  1.2394
16973TIP3    H272335   0.983   3.485   4.202  0.9461  0.2133 -0.1030
16974TIP3   OH272336   1.326   4.581   5.180 -0.4664 -0.8187  0.5635
16974TIP3    H172337   1.330   4.488   5.155 -0.0115 -0.7903  0.5260
16974TIP3    H272338   1.295   4.625   5.101 -0.0745 -0.8629  0.3833
16975TIP3   OH272339   1.789   5.284   0.011  0.2543  0.3546  0.0894
16975TIP3    H172340   1.838   5.348  -0.041  1.2462  1.2153  2.0022
16975TIP3    H272341   1.732   5.337   0.066 -2.3781 -0.6074 -1.5224
16976TIP3   OH272342   1.593   2.878  14.764  0.5571 -0.2835  0.2220
16976TIP3    H172343   1.584   2.800  14.819 -2.5488  0.4277  0.8900
16976TIP3    H272344   1.618   2.844  14.678  0.3972 -1.9214  0.7903
16977TIP3   OH272345   3.450   4.369  16.401 -0.1476  1.1573  0.3911
16977TIP3    H172346   3.510   4.394  16.470 -0.0352  0.4032  0.5827
16977TIP3    H272347   3.394   4.302  16.441  0.9184 -0.4303 -0.6654
16978TIP3   OH272348   2.574   2.879  13.822  0.4209 -0.2508  0.0204
16978TIP3    H172349   2.613   2.944  13.764 -0.7215  0.2052 -0.2569
16978TIP3    H272350   2.519   2.931  13.882  0.1000 -0.8885  0.2838
16979TIP3   OH272351   2.714   5.794   0.554  1.0377  0.5435  0.3133
16979TIP3    H172352   2.801   5.835   0.560  1.1876  0.0708  1.7853
16979TIP3    H272353   2.666   5.831   0.629  1.0350 -1.5628  1.4196
16980TIP3   OH272354   1.457   2.500   5.175  0.2384  0.9766  0.3323
16980TIP3    H172355   1.513   2.514   5.099 -0.9383  1.3965 -0.4853
16980TIP3    H272356   1.368   2.513   5.143 -0.5873 -2.1861  0.9857
16981TIP3   OH272357   4.721   4.955   2.573 -0.3826  0.1402 -0.0703
16981TIP3    H172358   4.803   4.914   2.545 -0.8033 -1.2152  0.6099
16981TIP3    H272359   4.655   4.886   2.566 -1.0258  0.5211  1.6305
16982TIP3   OH272360   5.020   3.403  13.674 -0.1767  0.2150 -0.1918
16982TIP3    H172361   4.989   3.352  13.599 -1.6853  1.5129 -0.5135
16982TIP3    H272362   4.954   3.388  13.742 -0.0162  0.8039  0.1012
16983TIP3   OH272363   4.769   3.833  12.220  0.3660  0.2172 -0.4778
16983TIP3    H172364   4.850   3.876  12.245  0.2746  0.2687 -0.2647
16983TIP3    H272365   4.797   3.756  12.171  0.5471  0.1665 -0.2978
16984TIP3   OH272366   1.560   1.415  12.308  0.0487  0.3875 -0.2715
16984TIP3    H172367   1.612   1.425  12.388  1.6277 -0.8582 -1.0719
16984TIP3    H272368   1.625   1.413  12.238 -1.0816 -1.0842 -1.3412
16985TIP3   OH272369   3.500   5.712  15.741 -0.2953  0.4081 -0.2833
16985TIP3    H172370   3.554   5.653  15.795 -1.2836 -0.0048  0.2807
16985TIP3    H272371   3.559   5.741  15.671  0.2316 -1.2660 -0.5868
16986TIP3   OH272372   0.975   0.060  16.620  0.0417 -0.0846  1.3484
16986TIP3    H172373   0.935  -0.027  16.626 -0.4578 -0.0234 -0.4946
16986TIP3    H272374   0.921   0.115  16.677 -1.3001 -0.4348  0.4559
16987TIP3   OH272375   3.666   6.166   2.384 -0.0749 -0.1083  0.5377
16987TIP3    H172376   3.699   6.245   2.342  2.0863 -0.3604  1.5968
16987TIP3    H272377   3.639   6.194   2.471 -0.6742 -0.2999  0.4197
16988TIP3   OH272378   1.446   5.034  13.224  0.1297 -0.0139  0.4553
16988TIP3    H172379   1.361   5.061  13.189 -0.0153 -1.4251 -0.3642
16988TIP3    H272380   1.510   5.076  13.167 -0.0700 -0.4789 -0.1231
16989TIP3   OH272381   5.117   2.970   4.374  0.8396  0.2703 -0.0386
16989TIP3    H172382   5.082   2.881   4.364  0.2201  0.0891  2.8900
16989TIP3    H272383   5.212   2.959   4.365  0.6495 -0.2310 -2.0205
16990TIP3   OH272384   2.642   2.384  15.901  0.4525 -0.3378  0.1879
16990TIP3    H172385   2.598   2.423  15.826 -0.6910  0.8319  1.4241
16990TIP3    H272386   2.710   2.447  15.924 -1.1224  0.8417  1.9233
16991TIP3   OH272387   1.432   4.161   4.142  0.5871 -0.2588  0.2451
16991TIP3    H172388   1.467   4.242   4.180 -0.3796 -0.1177  0.8524
16991TIP3    H272389   1.487   4.092   4.178 -0.3746 -0.1442  2.0458
16992TIP3   OH272390   0.357   1.235   3.739 -0.4611 -0.0786  0.0392
16992TIP3    H172391   0.301   1.297   3.692  0.6982  0.5893 -0.4873
16992TIP3    H272392   0.298   1.163   3.761 -1.1985 -0.0913 -1.7969
16993TIP3   OH272393   2.867   1.511   0.857 -0.3401  0.5809  0.1217
16993TIP3    H172394   2.940   1.527   0.797  0.8335 -1.3350  0.9333
16993TIP3    H272395   2.790   1.544   0.811  0.3694 -1.5801 -2.8666
16994TIP3   OH272396   5.581   3.415   3.840  0.0064  0.1872  0.0781
16994TIP3    H172397   5.518   3.367   3.785 -0.7893  2.5230 -1.1972
16994TIP3    H272398   5.659   3.423   3.785 -0.0273  0.7145  0.1070
16995TIP3   OH272399   4.824   4.156  13.503  0.5749  0.3625  0.6840
16995TIP3    H172400   4.907   4.186  13.465  0.1252  1.0015  0.1737
16995TIP3    H272401   4.821   4.063  13.483 -0.0681  0.8287 -1.7357
16996TIP3   OH272402   1.436   1.527   4.539 -0.0225  0.2449  0.0112
16996TIP3    H172403   1.528   1.550   4.527 -0.2102  0.4769 -1.0470
16996TIP3    H272404   1.434   1.432   4.538  0.1282  0.2475 -0.6183
16997TIP3   OH272405   3.896   1.573  12.359  0.4303  0.4125  0.2456
16997TIP3    H172406   3.915   1.667  12.365 -0.0919  0.5913 -0.6258
16997TIP3    H272407   3.856   1.552  12.443 -1.1425  1.4066 -0.2039
16998TIP3   OH272408   4.951   0.850   2.298 -0.9541  0.0155  0.9256
16998TIP3    H172409   4.885   0.916   2.322 -0.1537  0.6455  1.4794
16998TIP3    H272410   4.967   0.802   2.379  0.9738  1.4362  1.4713
16999TIP3   OH272411   3.810   0.320  15.905 -0.3606 -0.3045  0.2127
16999TIP3    H172412   3.781   0.237  15.868 -0.7482  0.5933 -1.6107
16999TIP3    H272413   3.741   0.345  15.966  0.2169 -1.7396  1.5421
17000TIP3   OH272414   3.955   4.493   2.993 -0.6581 -0.1121  0.3386
17000TIP3    H172415   3.893   4.544   2.941  1.7496  3.0984  0.2704
17000TIP3    H272416   3.982   4.553   3.063  2.1134 -1.3970  0.4963
17001TIP3   OH272417   5.235   6.042   2.405 -0.7743  0.2530  0.6207
17001TIP3    H172418   5.231   5.947   2.395 -1.8801  0.4649 -1.7216
17001TIP3    H272419   5.167   6.063   2.469 -2.2912 -0.3862 -0.7110
17002TIP3   OH272420   5.443   3.537  11.431  0.2304  0.1071 -0.0830
17002TIP3    H172421   5.430   3.630  11.416 -0.6103 -0.0560 -0.4131
17002TIP3    H272422   5.422   3.496  11.347 -0.0522 -0.4290  0.2454
17003TIP3   OH272423   6.536   6.247   1.815 -0.3684 -0.1047 -0.7822
17003TIP3    H172424   6.459   6.272   1.765 -0.6059  1.3127  0.2505
17003TIP3    H272425   6.603   6.311   1.790  0.3095 -0.9555 -1.2078
17004TIP3   OH272426   4.955   3.228   5.940 -0.3278  0.0251 -0.5543
17004TIP3    H172427   4.895   3.169   5.985  0.3759 -1.2063 -1.2025
17004TIP3    H272428   4.999   3.174   5.875  0.6632  1.1631 -0.8714
17005TIP3   OH272429   5.246   2.641   1.267 -0.2751  0.5512  0.4597
17005TIP3    H172430   5.314   2.654   1.201 -1.9152 -2.2595 -2.0188
17005TIP3    H272431   5.166   2.673   1.226 -1.1450 -0.0375  1.6403
17006TIP3   OH272432   6.506   6.084   5.723  0.4595  0.2134  0.0499
17006TIP3    H172433   6.557   6.162   5.702 -0.5230  1.1309  0.9034
17006TIP3    H272434   6.421   6.101   5.682 -0.3198  0.4080  1.6714
17007TIP3   OH272435   1.835   2.109   3.958  0.3634  0.5843 -0.7225
17007TIP3    H172436   1.840   2.205   3.958  0.5997  0.6049  0.7693
17007TIP3    H272437   1.926   2.080   3.947  0.2525  0.5161 -1.5076
17008TIP3   OH272438   4.095   4.778   5.401 -0.5391  0.2939 -0.0269
17008TIP3    H172439   4.104   4.702   5.459  0.7786  0.3332 -0.1493
17008TIP3    H272440   4.050   4.743   5.324  0.9183 -0.6140 -0.4950
17009TIP3   OH272441   3.806   5.439   5.652  0.1339  0.6402  0.4880
17009TIP3    H172442   3.891   5.401   5.629  0.4433  1.1188  0.8331
17009TIP3    H272443   3.814   5.462   5.745 -0.6262  0.0039  0.7254
17010TIP3   OH272444   2.763   6.704   3.376 -0.0535  0.5301 -0.2946
17010TIP3    H172445   2.829   6.691   3.444  0.3246  1.2950 -0.5077
17010TIP3    H272446   2.726   6.790   3.395 -2.2200 -0.5458  0.8529
17011TIP3   OH272447   1.108   0.715   5.244 -0.3744  0.2235  0.1062
17011TIP3    H172448   1.129   0.627   5.213  0.5010 -0.2756  1.9963
17011TIP3    H272449   1.188   0.766   5.229 -1.0926  0.9190 -1.6016
17012TIP3   OH272450   2.841   3.905   2.853 -0.0015  0.0720  0.3698
17012TIP3    H172451   2.933   3.909   2.829  0.2860  0.3287  1.4490
17012TIP3    H272452   2.831   3.821   2.899 -0.0744  0.4628  1.0944
17013TIP3   OH272453   1.962   4.273   1.173  0.4055  0.0572  0.2823
17013TIP3    H172454   2.027   4.208   1.150  1.4167  0.7724  1.0407
17013TIP3    H272455   1.933   4.309   1.089 -2.4705 -3.4075 -0.4778
17014TIP3   OH272456   6.125   4.658  12.587  0.2884 -0.0324 -0.7541
17014TIP3    H172457   6.216   4.686  12.593  0.6371 -1.3345  0.9001
17014TIP3    H272458   6.129   4.575  12.538  0.2621 -1.0071  0.8272
17015TIP3   OH272459   1.972   5.399  15.782 -0.2029  0.1804  0.2047
17015TIP3    H172460   1.960   5.446  15.864 -1.3632  0.5892 -0.1823
17015TIP3    H272461   1.884   5.368  15.759  0.1465 -0.1321 -0.7504
17016TIP3   OH272462   0.641   3.590   3.552  0.1338  0.2250  0.3821
17016TIP3    H172463   0.660   3.524   3.485  0.7171  1.1259 -0.3603
17016TIP3    H272464   0.716   3.585   3.612 -0.2048 -0.3187  0.7701
17017TIP3   OH272465   1.966   0.984  16.499  0.4460 -0.2106 -0.4961
17017TIP3    H172466   1.894   0.927  16.473  0.4283 -0.9485  1.0442
17017TIP3    H272467   1.924   1.066  16.524 -0.1567 -1.2455  2.2292
17018TIP3   OH272468   6.265   2.224  14.169  0.3300 -0.1339 -0.4588
17018TIP3    H172469   6.230   2.284  14.104 -1.3073  1.0123  1.3730
17018TIP3    H272470   6.269   2.275  14.250  0.1692 -2.1023  0.8679
17019TIP3   OH272471   3.913   5.907  14.001  0.3244  0.5003 -0.2438
17019TIP3    H172472   3.853   5.922  14.074  1.6638  1.6378  0.6836
17019TIP3    H272473   3.958   5.826  14.023  0.3941  0.5960 -0.0284
17020TIP3   OH272474   2.681   2.441   4.653  0.3678  0.1316  0.4794
17020TIP3    H172475   2.761   2.476   4.691 -0.6319  1.4932  1.3973
17020TIP3    H272476   2.712   2.380   4.585  2.1748  1.1982  0.2729
17021TIP3   OH272477   0.523   1.441   5.647  0.2288  0.4407  0.0848
17021TIP3    H172478   0.561   1.510   5.592  0.8877  0.6183  0.7442
17021TIP3    H272479   0.598   1.401   5.690 -0.2837  0.4364  1.0084
17022TIP3   OH272480   1.263   3.958   0.062  0.2347  0.1973  0.1499
17022TIP3    H172481   1.327   3.940  -0.007 -0.4488  1.0194 -0.7206
17022TIP3    H272482   1.216   4.036   0.032 -1.5097 -0.6565  0.5051
17023TIP3   OH272483   4.162   2.784  11.658 -0.2070 -0.3216  0.2561
17023TIP3    H172484   4.097   2.779  11.727 -0.0864 -1.4900  0.3082
17023TIP3    H272485   4.246   2.783  11.704 -0.1179  1.9403  0.2330
17024TIP3   OH272486   1.663   2.888  16.311  0.3730  0.1033  0.6298
17024TIP3    H172487   1.628   2.902  16.223 -0.5192  0.5473  1.0454
17024TIP3    H272488   1.718   2.964  16.327  0.6296 -0.0338  0.4225
17025TIP3   OH272489   2.316   6.478  11.572  0.1792  0.4425  0.3712
17025TIP3    H172490   2.383   6.480  11.504 -0.2155 -1.3055 -0.0996
17025TIP3    H272491   2.365   6.487  11.654  1.3460 -3.1382  0.2144
17026TIP3   OH272492   4.816   3.948  16.999 -0.4943 -0.1166  0.4869
17026TIP3    H172493   4.818   3.852  16.997 -2.6823 -0.2146 -0.0596
17026TIP3    H272494   4.756   3.972  16.928 -0.0691  1.6562  0.6783
17027TIP3   OH272495   4.285   2.443  15.572  0.2481 -0.6002 -0.0465
17027TIP3    H172496   4.199   2.432  15.613  1.5739 -0.1761  3.1015
17027TIP3    H272497   4.265   2.455  15.479 -2.9402 -2.4871  0.2453
17028TIP3   OH272498   0.488   6.475   5.721  0.1459  0.1396  0.2919
17028TIP3    H172499   0.521   6.560   5.690  0.2638  0.1808  0.5304
17028TIP3    H272500   0.546   6.451   5.793  0.8227 -0.7020 -0.5122
17029TIP3   OH272501   2.182   6.012  14.882 -0.0688  0.1141 -0.1415
17029TIP3    H172502   2.200   5.949  14.813 -1.5510 -1.0603  0.4849
17029TIP3    H272503   2.109   6.064  14.848 -0.8404 -0.5046  0.5171
17030TIP3   OH272504   4.982   1.539   4.148 -0.5172 -0.2407  0.6060
17030TIP3    H172505   5.073   1.568   4.153 -0.5254 -0.3196  1.2528
17030TIP3    H272506   4.932   1.620   4.136 -0.5202  0.0348  2.1956
17031TIP3   OH272507   2.699   3.358   2.287  0.3316  0.3259 -0.0503
17031TIP3    H172508   2.735   3.272   2.310  0.4772  0.6785  1.1322
17031TIP3    H272509   2.768   3.401   2.238 -0.1542 -0.6251 -1.6645
17032TIP3   OH272510   3.591   6.220  12.106  0.6714  0.2315  0.4680
17032TIP3    H172511   3.506   6.177  12.114  0.1546  1.0278 -0.4570
17032TIP3    H272512   3.610   6.252  12.194 -0.6477  1.2253  0.4173
17033TIP3   OH272513   6.182   3.505   4.155 -0.0310 -0.1716  0.0312
17033TIP3    H172514   6.126   3.469   4.223 -2.4071  0.2441 -1.5700
17033TIP3    H272515   6.229   3.577   4.198 -1.6186  0.2298  1.2029
17034TIP3   OH272516   4.107   3.247  13.606  0.2826  0.8928  0.4273
17034TIP3    H172517   4.073   3.160  13.628  0.5640  1.2210  2.3120
17034TIP3    H272518   4.160   3.232  13.527 -0.0930 -0.5478  0.4117
17035TIP3   OH272519   5.113   2.593  12.882 -0.4208 -0.1368 -0.2872
17035TIP3    H172520   5.020   2.604  12.900 -0.4519  0.5292 -0.8048
17035TIP3    H272521   5.122   2.500  12.861 -0.7429 -0.4762  0.9678
17036TIP3   OH272522   5.193   0.362  14.813 -0.0243  0.1465  0.0128
17036TIP3    H172523   5.176   0.440  14.866 -1.4970 -0.2113  0.1115
17036TIP3    H272524   5.242   0.395  14.737  0.8708  0.8727  0.8755
17037TIP3   OH272525   3.559   6.649  13.222  0.1047 -0.1162 -0.2310
17037TIP3    H172526   3.594   6.728  13.262  0.1034 -0.4611  0.4759
17037TIP3    H272527   3.549   6.588  13.295 -0.7727 -0.4546 -0.6133
17038TIP3   OH272528   6.044   2.000  14.744 -0.2267  0.2634 -0.3379
17038TIP3    H172529   6.123   1.948  14.725 -0.4067 -0.0878 -0.1143
17038TIP3    H272530   6.000   2.007  14.659 -0.0596  0.2874 -0.4235
17039TIP3   OH272531   0.663   0.540   5.949  0.3841 -0.2554  0.0328
17039TIP3    H172532   0.655   0.593   6.029  1.1746 -2.0697  1.3750
17039TIP3    H272533   0.743   0.571   5.907 -0.2040  0.9262 -0.2801
17040TIP3   OH272534   0.989   5.642  14.826  0.5029 -0.4037  0.1106
17040TIP3    H172535   0.918   5.581  14.849 -0.5317  1.0816  1.0879
17040TIP3    H272536   0.972   5.719  14.881  1.5951  0.8706 -1.2698
17041TIP3   OH272537   5.281   1.950   4.063  0.1097  0.2245  0.4621
17041TIP3    H172538   5.246   1.993   3.985 -1.4854 -0.7431  0.5946
17041TIP3    H272539   5.204   1.933   4.118  0.5579 -2.9874  0.3030
17042TIP3   OH272540   4.271   6.754   0.160 -0.1196  0.1183  0.5313
17042TIP3    H172541   4.183   6.779   0.188  0.5761  1.8438  1.3263
17042TIP3    H272542   4.313   6.836   0.136  1.8248 -0.4356  1.7784
17043TIP3   OH272543   5.600   3.692   1.447 -0.1636 -0.1528 -0.2255
17043TIP3    H172544   5.615   3.630   1.518 -1.7862 -0.9427 -0.5371
17043TIP3    H272545   5.680   3.745   1.445 -0.2867  0.2853  2.5584
17044TIP3   OH272546   5.970   4.327  17.111  0.2300 -0.1801 -0.2037
17044TIP3    H172547   6.009   4.392  17.169  1.0967  0.3511 -1.3309
17044TIP3    H272548   6.022   4.333  17.031 -0.6107 -1.2392 -0.8529
17045TIP3   OH272549   3.860   5.060   0.111  1.0495 -0.2222  0.4263
17045TIP3    H172550   3.824   5.098   0.031  0.2918 -0.3357  0.7075
17045TIP3    H272551   3.800   4.988   0.133 -0.0521  1.1838  2.3067
17046TIP3   OH272552   6.492   3.578  17.034  0.0384 -0.1069 -0.0148
17046TIP3    H172553   6.498   3.498  16.981  0.1473 -0.9654  1.2591
17046TIP3    H272554   6.582   3.608  17.043 -0.1166  1.0886 -1.7950
17047TIP3   OH272555   1.716   5.602   0.902 -0.3838 -0.2464 -0.2547
17047TIP3    H172556   1.704   5.691   0.870  0.4270 -0.7012 -1.9335
17047TIP3    H272557   1.782   5.609   0.971  0.1071  0.3735 -0.7835
17048TIP3   OH272558   5.968   2.835  16.323  0.2321 -0.6925 -0.0036
17048TIP3    H172559   5.921   2.863  16.245  1.3369  0.9079 -0.1523
17048TIP3    H272560   5.962   2.910  16.382  3.2418 -0.0300 -0.3627
17049TIP3   OH272561   0.888   0.072   4.681  0.5867 -0.3560 -0.1765
17049TIP3    H172562   0.796   0.100   4.690  0.7634 -0.0010  0.6535
17049TIP3    H272563   0.907   0.027   4.763  1.5291  0.7051  0.2268
17050TIP3   OH272564   5.522   2.053  17.188  0.1032  0.1912  0.1036
17050TIP3    H172565   5.504   2.000  17.110  0.9660 -0.2226  0.1751
17050TIP3    H272566   5.452   2.119  17.188 -0.9209 -0.8553 -0.0545
17051TIP3   OH272567   3.825   5.221  11.973  0.5497  0.0851  0.2614
17051TIP3    H172568   3.789   5.162  12.039  1.2542  1.1332  1.6408
17051TIP3    H272569   3.866   5.292  12.024  0.1890  1.4881 -1.3209
17052TIP3   OH272570   3.504   2.370   0.760 -0.1670 -0.1646  0.7106
17052TIP3    H172571   3.548   2.286   0.748 -1.4149 -0.9548  1.4344
17052TIP3    H272572   3.537   2.403   0.843  0.0792 -0.1004  0.5872
17053TIP3   OH272573   2.961   5.382  16.677  0.2408  0.3006  0.1624
17053TIP3    H172574   2.966   5.371  16.772 -0.9008  1.4429  0.3855
17053TIP3    H272575   2.874   5.420  16.662  0.8454  1.2101 -1.2269
17054TIP3   OH272576   1.081   3.440   4.363 -0.6021 -0.1834 -0.5252
17054TIP3    H172577   1.157   3.433   4.305  0.7980  1.3198  1.0156
17054TIP3    H272578   1.118   3.448   4.451 -2.6268 -1.3303  0.5188
17055TIP3   OH272579   3.080   3.215  17.322 -0.3645 -0.2856  0.7740
17055TIP3    H172580   2.999   3.186  17.280 -0.1581 -0.1165  0.2466
17055TIP3    H272581   3.080   3.173  17.408 -0.7996 -0.6300  0.6060
17056TIP3   OH272582   1.599   1.760   6.167 -0.0332  0.4924 -0.1376
17056TIP3    H172583   1.542   1.684   6.180  0.3959  0.3231  0.8058
17056TIP3    H272584   1.686   1.729   6.190  0.1110  1.3328  0.4882
17057TIP3   OH272585   3.593   3.615  13.886 -0.5748 -0.3852  0.0139
17057TIP3    H172586   3.663   3.641  13.826  0.3936 -0.7924  0.9355
17057TIP3    H272587   3.598   3.677  13.959 -1.4357 -0.1838 -0.0789
17058TIP3   OH272588   0.946   3.570   4.786 -0.2777  0.6862  0.0417
17058TIP3    H172589   1.001   3.512   4.838 -0.7025  0.6229  0.4298
17058TIP3    H272590   0.858   3.558   4.821 -0.5755  0.6525 -0.6846
17059TIP3   OH272591   0.387   5.989   5.069 -0.1870 -0.0306  0.4928
17059TIP3    H172592   0.340   5.917   5.111  0.9659 -1.0890  0.0264
17059TIP3    H272593   0.327   6.063   5.074 -1.8860 -1.3048 -0.0127
17060TIP3   OH272594   3.331   5.175   1.718  0.4159  0.3130 -0.0735
17060TIP3    H172595   3.257   5.154   1.775  0.1477 -0.1112 -0.5678
17060TIP3    H272596   3.408   5.146   1.767  0.0688 -1.9170 -0.7169
17061TIP3   OH272597   4.787   0.905  14.641  0.5347  0.1967 -1.3962
17061TIP3    H172598   4.728   0.942  14.576 -0.8481  0.1463 -0.2403
17061TIP3    H272599   4.796   0.974  14.707  1.2721 -0.0348 -1.2438
17062TIP3   OH272600   5.910   4.514  16.500 -0.0202  0.4414  0.2507
17062TIP3    H172601   5.913   4.533  16.594  0.1219 -0.1280  0.3696
17062TIP3    H272602   5.822   4.540  16.473 -0.2136  0.1997  0.6336
17063TIP3   OH272603   1.721   4.769  15.861  0.0318  0.2282  0.2717
17063TIP3    H172604   1.647   4.733  15.812 -0.1639  0.5023  0.3608
17063TIP3    H272605   1.783   4.697  15.869 -0.4540 -0.1522  0.6434
17064TIP3   OH272606   4.863   0.576  12.363 -0.7268 -0.8159 -0.2328
17064TIP3    H172607   4.780   0.552  12.322 -0.6304 -2.2589  0.3594
17064TIP3    H272608   4.930   0.539  12.306 -0.4452  0.6707 -0.9134
17065TIP3   OH272609   2.564   4.897   6.034 -0.2647 -0.2856 -0.1498
17065TIP3    H172610   2.584   4.804   6.039  0.3054 -0.2447 -1.3696
17065TIP3    H272611   2.495   4.903   5.968  0.4180  0.2483 -0.8289
17066TIP3   OH272612   2.931   0.815   4.818 -0.1949  0.1326  0.4064
17066TIP3    H172613   2.996   0.760   4.863 -0.2106  0.0792  0.3638
17066TIP3    H272614   2.936   0.899   4.863 -0.4242 -0.0116  0.7096
17067TIP3   OH272615   0.392   0.088   2.062 -0.2328 -0.0137 -0.3667
17067TIP3    H172616   0.475   0.046   2.041 -0.0236 -0.3307  0.9997
17067TIP3    H272617   0.386   0.161   2.000  1.8871  1.0380  0.5681
17068TIP3   OH272618   5.788   3.494  13.417 -0.1760 -0.6279 -0.1284
17068TIP3    H172619   5.700   3.479  13.382 -0.1908 -0.9522  0.0424
17068TIP3    H272620   5.772   3.531  13.504 -0.1394  0.2609 -0.4892
17069TIP3   OH272621   3.394   2.315   1.672 -0.1165 -0.8590 -0.4443
17069TIP3    H172622   3.409   2.221   1.661  0.1088 -0.7412 -1.1614
17069TIP3    H272623   3.361   2.344   1.587  2.1632  0.1780 -1.0457
17070TIP3   OH272624   6.496   4.479   1.265 -0.3209 -0.3305  0.2682
17070TIP3    H172625   6.426   4.426   1.227  1.0870 -1.5230 -0.7718
17070TIP3    H272626   6.469   4.493   1.355 -2.6288  0.5579 -0.4716
17071TIP3   OH272627   2.777   0.674  14.241  0.1695 -0.2834  1.3988
17071TIP3    H172628   2.732   0.759  14.238 -2.0155 -1.3666  1.1049
17071TIP3    H272629   2.785   0.655  14.334 -1.6206 -0.8164  1.4896
17072TIP3   OH272630   2.528   2.931   0.665  0.0203  0.4631  0.0493
17072TIP3    H172631   2.452   2.903   0.717  0.5604 -0.1454  0.5281
17072TIP3    H272632   2.526   3.026   0.671 -1.0648  0.4896 -0.4719
17073TIP3   OH272633   0.500   2.961   6.624 -0.2066 -0.3744  0.1065
17073TIP3    H172634   0.542   2.925   6.546  2.3764 -0.1307  1.2817
17073TIP3    H272635   0.511   2.893   6.691  1.9618  1.2556  1.5153
17074TIP3   OH272636   4.210   3.575   5.284 -0.0024 -0.0207  0.1469
17074TIP3    H172637   4.138   3.638   5.275 -1.7146 -2.0349 -1.3610
17074TIP3    H272638   4.289   3.625   5.264 -1.4156  1.3921 -2.4303
17075TIP3   OH272639   1.090   2.544  12.377  0.6969  0.4176  0.1370
17075TIP3    H172640   1.003   2.559  12.342  0.6753  0.5861  0.2624
17075TIP3    H272641   1.098   2.606  12.450  1.1462  0.8213 -0.2521
17076TIP3   OH272642   3.647   1.321   1.143 -0.3462  0.1143 -0.3037
17076TIP3    H172643   3.694   1.393   1.101  1.6746 -1.2612 -0.5536
17076TIP3    H272644   3.676   1.242   1.097 -3.5138 -0.8215 -0.9323
17077TIP3   OH272645   2.779   4.592   5.768 -0.0597 -0.3042 -0.2551
17077TIP3    H172646   2.684   4.576   5.764  0.2046 -1.8776 -1.6589
17077TIP3    H272647   2.804   4.566   5.856 -0.8417 -0.5302 -0.0882
17078TIP3   OH272648   5.372   2.740   3.912  0.4610 -0.3031  0.5383
17078TIP3    H172649   5.326   2.824   3.917 -0.5898 -0.8621  0.4699
17078TIP3    H272650   5.461   2.764   3.885  0.6014  0.9080  1.9565
17079TIP3   OH272651   0.263   6.639   2.209  0.1518  0.0871  0.1575
17079TIP3    H172652   0.298   6.715   2.164 -0.1009 -0.1174 -0.3948
17079TIP3    H272653   0.169   6.655   2.215  0.3269  0.7273  1.8140
17080TIP3   OH272654   1.595   4.426   4.197  0.5378 -0.5533 -0.2280
17080TIP3    H172655   1.642   4.460   4.121 -0.1280 -0.3196 -0.5438
17080TIP3    H272656   1.553   4.503   4.236  1.4623 -0.5577  0.8014
17081TIP3   OH272657   5.149   0.750  13.977 -0.3825 -0.0040 -0.2458
17081TIP3    H172658   5.100   0.714  13.903  0.0493  0.3296 -0.6999
17081TIP3    H272659   5.219   0.687  13.993 -1.2547 -0.7619  0.7566
17082TIP3   OH272660   2.164   2.187  16.075 -0.2841  1.1941 -0.2933
17082TIP3    H172661   2.236   2.124  16.084 -0.0165  1.7831  2.4837
17082TIP3    H272662   2.085   2.133  16.080 -0.0479  0.8821  0.2040
17083TIP3   OH272663   4.119   5.267  16.631  0.2776 -0.3134  0.1720
17083TIP3    H172664   4.189   5.331  16.624  1.2060 -1.1544  1.4241
17083TIP3    H272665   4.124   5.235  16.721 -1.9558 -0.1329  0.4207
17084TIP3   OH272666   4.936   0.460   2.401  0.5723 -0.1622 -0.1443
17084TIP3    H172667   4.933   0.386   2.341 -0.3372 -0.2704  0.0205
17084TIP3    H272668   4.845   0.484   2.414  0.8577  1.1197 -0.3479
17085TIP3   OH272669   2.703   4.124  13.259 -0.2214  0.0365 -0.5026
17085TIP3    H172670   2.702   4.116  13.164  0.0522 -1.1366 -0.4162
17085TIP3    H272671   2.658   4.207  13.277  0.0786  0.4601 -1.6634
17086TIP3   OH272672   4.076   2.118  16.116  0.3344  0.4020  0.0659
17086TIP3    H172673   4.160   2.136  16.074  0.2633  2.3621  0.7024
17086TIP3    H272674   4.046   2.038  16.073  1.9948  0.2623 -0.9571
17087TIP3   OH272675   3.105   5.901  14.854  0.4538  0.1241 -0.1666
17087TIP3    H172676   3.027   5.945  14.818  0.4058  0.7492  0.6653
17087TIP3    H272677   3.071   5.819  14.891  0.2240  0.2741 -0.0394
17088TIP3   OH272678   2.111   2.713   5.419 -0.3495  0.0382  0.1607
17088TIP3    H172679   2.018   2.734   5.419 -0.4338 -0.3163 -0.3627
17088TIP3    H272680   2.118   2.636   5.363  0.3684  0.5743 -0.5057
17089TIP3   OH272681   5.833   0.812  16.898 -0.6217  0.3405  0.7779
17089TIP3    H172682   5.907   0.751  16.901 -1.3575 -0.6907 -0.6317
17089TIP3    H272683   5.861   0.887  16.949  1.5709  0.1554 -0.0466
17090TIP3   OH272684   1.609   4.812   5.516  0.3829  0.3126 -0.0782
17090TIP3    H172685   1.646   4.782   5.433  0.3799  2.1474 -0.8032
17090TIP3    H272686   1.685   4.827   5.573  0.3992 -0.7140  0.1904
17091TIP3   OH272687   3.465   5.047  16.079 -0.0158  0.3512 -0.1210
17091TIP3    H172688   3.374   5.037  16.106 -0.5534 -0.4215 -2.0626
17091TIP3    H272689   3.475   4.988  16.005  2.6817 -1.2107  1.3262
17092TIP3   OH272690   2.352   1.543  14.761  0.5383 -0.6669  0.2888
17092TIP3    H172691   2.340   1.629  14.721 -2.4986 -0.6134  1.0866
17092TIP3    H272692   2.394   1.561  14.845 -0.1613  0.0561  0.4892
17093TIP3   OH272693   0.808   0.280   4.492  0.2077  0.2357  0.3752
17093TIP3    H172694   0.836   0.333   4.566 -1.6740  0.7417  0.7753
17093TIP3    H272695   0.845   0.193   4.510  2.2197  1.0308  0.3698
17094TIP3   OH272696   4.894   5.547   0.365 -0.0399  0.3174 -0.8405
17094TIP3    H172697   4.847   5.604   0.427  1.5822  0.8711 -0.0527
17094TIP3    H272698   4.980   5.534   0.406 -0.5497 -3.2831 -0.6575
17095TIP3   OH272699   0.834   3.344   2.986  0.3863 -0.3507  0.0803
17095TIP3    H172700   0.874   3.264   2.953 -1.1988 -1.4927  0.8027
17095TIP3    H272701   0.884   3.366   3.064  2.1052  0.5607 -1.1972
17096TIP3   OH272702   4.364   5.652   3.507 -0.0506 -0.5741 -0.2402
17096TIP3    H172703   4.362   5.745   3.484  2.8714  0.2057  2.1140
17096TIP3    H272704   4.403   5.610   3.430 -0.1016  0.3410 -0.7880
17097TIP3   OH272705   2.095   0.485  12.742 -0.3043  0.1734 -0.7591
17097TIP3    H172706   2.068   0.402  12.782 -1.3937  0.8101 -0.1482
17097TIP3    H272707   2.025   0.546  12.763 -0.2828  0.8652 -2.5601
17098TIP3   OH272708   5.059   4.555   3.731  0.0501 -0.8013  0.5858
17098TIP3    H172709   5.053   4.585   3.640  0.0012 -0.5087  0.6848
17098TIP3    H272710   5.112   4.475   3.726 -1.3184 -1.7034  0.0952
17099TIP3   OH272711   1.570   5.709   6.233 -0.0489  0.0376 -0.5410
17099TIP3    H172712   1.494   5.750   6.276 -0.5057  1.4898 -2.5738
17099TIP3    H272713   1.573   5.621   6.270 -0.6165  1.0244  2.1144
17100TIP3   OH272714   1.330   6.476   3.142 -0.3012 -0.2220  0.2855
17100TIP3    H172715   1.415   6.433   3.149  0.7721  2.0079  2.0102
17100TIP3    H272716   1.308   6.501   3.231 -1.9840  0.7387 -0.3542
17101TIP3   OH272717   4.286   3.012  14.312 -0.0979  0.5329  0.2807
17101TIP3    H172718   4.356   3.077  14.313 -0.9657  1.5040  0.8357
17101TIP3    H272719   4.225   3.043  14.245 -0.9326  0.7882  1.1205
17102TIP3   OH272720   0.818   2.801   1.369  0.3181  0.2650 -0.6092
17102TIP3    H172721   0.804   2.723   1.315 -0.7418  0.1731 -0.2261
17102TIP3    H272722   0.853   2.866   1.309  2.8129 -0.9728 -0.6233
17103TIP3   OH272723   5.997   0.296  14.863  0.2619  0.2617  0.3832
17103TIP3    H172724   6.049   0.317  14.941 -2.0510  2.2797  1.5406
17103TIP3    H272725   5.994   0.378  14.814 -1.1890  0.0036  0.0008
17104TIP3   OH272726   2.936   0.079  15.156 -0.2449 -0.5650  0.1271
17104TIP3    H172727   3.030   0.072  15.173 -0.5391 -0.7589  1.8958
17104TIP3    H272728   2.911   0.162  15.197 -1.0858 -1.2456  1.0387
17105TIP3   OH272729   1.498   6.421   6.501  0.0889 -0.0748  0.5729
17105TIP3    H172730   1.512   6.354   6.568  1.3740  1.0560  1.4944
17105TIP3    H272731   1.576   6.477   6.506  0.2310  0.0727 -1.8813
17106TIP3   OH272732   3.520   5.019   1.899 -0.6171 -0.2659  0.3491
17106TIP3    H172733   3.544   5.041   1.989  2.0007 -0.1788 -0.2980
17106TIP3    H272734   3.498   4.926   1.902 -0.2060 -0.3473  1.0199
17107TIP3   OH272735   6.326   1.331   4.987 -0.1540  0.0720 -0.4830
17107TIP3    H172736   6.271   1.374   5.053  1.3255  0.1986  0.7072
17107TIP3    H272737   6.406   1.383   4.984  0.5641 -1.0147 -1.0041
17108TIP3   OH272738   6.024   1.938  16.508 -0.2180 -0.6547  0.0996
17108TIP3    H172739   6.051   1.949  16.599  0.6506 -1.3265 -0.0715
17108TIP3    H272740   5.929   1.930  16.513 -0.2089 -0.4071  0.9155
17109TIP3   OH272741   1.266   4.652   6.385  0.5616 -0.2336 -0.6104
17109TIP3    H172742   1.333   4.694   6.439 -0.2629 -0.2282  0.4196
17109TIP3    H272743   1.267   4.703   6.303 -0.0605  1.4996  0.4110
17110TIP3   OH272744   3.793   2.713  12.132  0.0355 -0.3464 -0.0061
17110TIP3    H172745   3.792   2.783  12.066 -0.7570  2.3112  2.6450
17110TIP3    H272746   3.702   2.708  12.163  0.3755 -1.6405  0.8612
17111TIP3   OH272747   4.141   3.751  15.544  0.3601  0.0977  0.0819
17111TIP3    H172748   4.197   3.718  15.473  0.1823 -0.0496  0.0078
17111TIP3    H272749   4.202   3.785  15.609  0.5792 -0.8495  0.3937
17112TIP3   OH272750   0.498   0.464  13.000 -0.1171  0.4505  0.0683
17112TIP3    H172751   0.527   0.395  13.061 -0.3516 -0.0303 -0.3639
17112TIP3    H272752   0.450   0.417  12.932 -2.1727  1.2587  0.9001
17113TIP3   OH272753   4.431   3.647  12.794 -0.6337  0.0963  0.0464
17113TIP3    H172754   4.448   3.635  12.887  1.4831  1.5728 -0.0671
17113TIP3    H272755   4.400   3.737  12.786 -1.9162 -0.3717 -0.5845
17114TIP3   OH272756   3.321   0.336  12.039 -0.4039 -0.6516 -0.0246
17114TIP3    H172757   3.392   0.275  12.022  0.0090 -0.0007 -0.7035
17114TIP3    H272758   3.364   0.418  12.064 -0.9157 -0.3363 -0.1523
17115TIP3   OH272759   3.041   0.250   1.501 -0.0236 -0.3333  0.4399
17115TIP3    H172760   3.135   0.269   1.505 -0.2838  0.9934  0.6873
17115TIP3    H272761   3.013   0.286   1.417 -0.2471 -1.1271  0.1605
17116TIP3   OH272762   4.861   5.213  14.557 -0.1959 -0.2685 -0.0729
17116TIP3    H172763   4.925   5.275  14.521  1.0599 -0.1754  2.1318
17116TIP3    H272764   4.785   5.267  14.578 -0.0939  0.0518 -0.5021
17117TIP3   OH272765   3.095   4.006  13.672  0.4005  0.1020  0.1460
17117TIP3    H172766   3.102   4.057  13.753  0.4903  1.5161 -0.7400
17117TIP3    H272767   3.019   3.950  13.686 -0.1759  1.0339  0.8251
17118TIP3   OH272768   5.397   5.677  10.723 -0.4592 -0.4489  0.0223
17118TIP3    H172769   5.352   5.749  10.679  0.5524  0.5456  0.5601
17118TIP3    H272770   5.487   5.708  10.734 -0.1038 -1.6275  0.6571
17119TIP3   OH272771   0.254   1.477  11.831 -0.2951 -0.7452  0.3244
17119TIP3    H172772   0.316   1.420  11.876  1.3747  0.8469  0.1646
17119TIP3    H272773   0.294   1.496  11.747 -0.2385  1.4620  0.7762
17120TIP3   OH272774   1.495   1.867   3.333 -0.8588 -0.1883  0.3576
17120TIP3    H172775   1.538   1.881   3.249  0.3802  0.3785  1.0613
17120TIP3    H272776   1.409   1.909   3.324 -0.2129  1.0557 -0.1859
17121TIP3   OH272777   6.597   0.975   0.862 -0.1756 -0.0113  0.4652
17121TIP3    H172778   6.643   0.911   0.807 -2.0041  0.7084 -2.1330
17121TIP3    H272779   6.661   1.045   0.875  0.5722 -0.5610 -0.1135
17122TIP3   OH272780   0.274   6.336   3.974 -0.2868 -0.0655 -0.3866
17122TIP3    H172781   0.265   6.279   4.050  1.8263 -1.0753 -0.8110
17122TIP3    H272782   0.218   6.411   3.993 -2.6520 -1.9315  0.4782
17123TIP3   OH272783   3.655   2.334   5.424  0.1971 -0.1626 -0.3687
17123TIP3    H172784   3.650   2.272   5.352  0.1217  1.8126 -2.1377
17123TIP3    H272785   3.628   2.418   5.387  0.0784  0.9298  1.9784
17124TIP3   OH272786   5.300   0.916  16.482 -0.2956  0.7565  0.4076
17124TIP3    H172787   5.306   0.909  16.387 -0.4294 -2.2087  0.5315
17124TIP3    H272788   5.321   1.008  16.500  2.6024  0.8023 -2.2599
17125TIP3   OH272789   0.485   5.356   3.824 -0.2759  0.0975  0.1495
17125TIP3    H172790   0.421   5.323   3.888  0.6369 -1.7155  0.2127
17125TIP3    H272791   0.435   5.365   3.743 -0.8290 -0.3456  0.4305
17126TIP3   OH272792   1.685   6.603  17.149  0.3645 -0.5482  0.2590
17126TIP3    H172793   1.765   6.647  17.179  1.1542 -2.2077  0.7314
17126TIP3    H272794   1.644   6.571  17.229  0.8211 -2.2660 -0.1557
17127TIP3   OH272795   0.492   1.211   2.137  0.1205 -0.5865 -0.4852
17127TIP3    H172796   0.398   1.193   2.141 -0.0180  0.2921  1.1698
17127TIP3    H272797   0.532   1.125   2.125 -0.7334 -1.6456  2.9954
17128TIP3   OH272798   4.210   6.324  13.504  0.2637  0.4012 -0.1518
17128TIP3    H172799   4.246   6.381  13.571  2.7604 -0.6958 -0.4530
17128TIP3    H272800   4.143   6.273  13.548  1.2996  0.2674  1.3186
17129TIP3   OH272801   6.476   2.235   0.523 -0.3610 -0.1485  0.2538
17129TIP3    H172802   6.547   2.197   0.471 -0.5562 -0.4510  0.2028
17129TIP3    H272803   6.396   2.197   0.485 -0.6110  0.8441 -0.2526
17130TIP3   OH272804   5.802   1.283  12.419  0.8851 -0.2181 -0.2350
17130TIP3    H172805   5.776   1.361  12.370  0.5541  0.7129  1.3707
17130TIP3    H272806   5.748   1.213  12.382  1.1573  0.2839 -1.6730
17131TIP3   OH272807   6.253   3.686   2.062  0.0185 -0.5230  0.5884
17131TIP3    H172808   6.192   3.717   2.128 -0.9423  0.1737 -0.5778
17131TIP3    H272809   6.294   3.609   2.101  1.4630  1.3664  3.0294
17132TIP3   OH272810   2.517   2.745   2.034  0.5372  0.1375 -0.0508
17132TIP3    H172811   2.525   2.718   2.126 -0.4199 -1.3880 -0.3795
17132TIP3    H272812   2.567   2.679   1.986  1.1755  1.0266 -0.6317
17133TIP3   OH272813   2.610   1.966  11.278  0.3180  0.0935 -0.4944
17133TIP3    H172814   2.682   1.962  11.216 -1.2638 -2.6493 -2.3677
17133TIP3    H272815   2.531   1.967  11.224 -1.1112  0.7381  1.4766
17134TIP3   OH272816   4.208   4.865  12.390 -0.1796 -0.2550  0.3270
17134TIP3    H172817   4.151   4.793  12.363  0.6598 -0.3468 -1.3605
17134TIP3    H272818   4.296   4.828  12.390  0.2267  0.6708 -0.2719
17135TIP3   OH272819   1.040   3.785  12.835  0.2930  0.3294 -0.1331
17135TIP3    H172820   0.968   3.848  12.831 -0.8996 -0.9704  0.1152
17135TIP3    H272821   1.037   3.739  12.751  0.5929  0.0110  0.0271
17136TIP3   OH272822   1.263   2.447  15.383  0.1671  0.2017  0.3370
17136TIP3    H172823   1.174   2.426  15.358  1.0401 -0.1244 -2.9597
17136TIP3    H272824   1.268   2.543  15.376 -0.3039  0.4196  2.2809
17137TIP3   OH272825   5.109   1.991   3.797  0.0321 -0.2391  0.0554
17137TIP3    H172826   5.137   2.067   3.745  0.3676 -1.6028 -1.8696
17137TIP3    H272827   5.115   1.917   3.736 -0.7538 -1.7461  1.7253
17138TIP3   OH272828   4.501   1.492   4.633  0.0683 -0.1200 -0.3429
17138TIP3    H172829   4.567   1.509   4.700  1.0297 -0.7906 -1.1007
17138TIP3    H272830   4.425   1.461   4.683  0.9300 -1.1022  0.4325
17139TIP3   OH272831   2.515   3.466  16.321  0.0277  0.0792  0.5001
17139TIP3    H172832   2.497   3.500  16.233 -1.0857  1.1473  1.0951
17139TIP3    H272833   2.428   3.459  16.361  0.0845 -4.1378  0.2604
17140TIP3   OH272834   6.594   2.049  12.952 -0.3595 -0.2709 -0.4313
17140TIP3    H172835   6.533   1.979  12.972 -1.5540  1.0199  0.6825
17140TIP3    H272836   6.596   2.052  12.856 -3.1762  0.5192 -0.5598
17141TIP3   OH272837   2.343   3.567   1.642  0.9694 -0.4613  0.6101
17141TIP3    H172838   2.412   3.507   1.668  1.8990 -0.1139 -0.9354
17141TIP3    H272839   2.300   3.525   1.568  0.2464 -0.1693  0.8516
17142TIP3   OH272840   1.748   5.873  12.907 -0.5677 -0.1841  0.5346
17142TIP3    H172841   1.711   5.792  12.873  0.5129 -0.7248  0.6084
17142TIP3    H272842   1.758   5.930  12.830  3.1149 -1.8692 -0.4446
17143TIP3   OH272843   6.720   4.991  14.256  0.1877 -0.1319 -0.1003
17143TIP3    H172844   6.753   4.973  14.344  1.1247 -0.7867 -0.5642
17143TIP3    H272845   6.627   4.968  14.260  0.2039 -0.0789  0.7343
17144TIP3   OH272846   0.882   0.739  14.646 -0.0697 -0.2233 -0.8449
17144TIP3    H172847   0.976   0.749  14.660 -0.2626 -1.6413  2.2122
17144TIP3    H272848   0.874   0.714  14.554  2.7199 -1.9531 -0.7268
17145TIP3   OH272849   6.288   1.003   0.321 -0.4501 -0.3464 -0.4518
17145TIP3    H172850   6.366   1.058   0.327 -1.0093  0.3313  1.0207
17145TIP3    H272851   6.271   0.994   0.227  0.8961  0.1964 -0.7607
17146TIP3   OH272852   3.774   3.839   5.396  0.0383  0.7034 -0.5118
17146TIP3    H172853   3.703   3.804   5.450  0.5476 -1.0097 -0.9024
17146TIP3    H272854   3.796   3.923   5.437 -2.5942  1.5946 -0.7453
17147TIP3   OH272855   3.259   0.499   3.616 -0.1324  0.5174 -0.5404
17147TIP3    H172856   3.235   0.451   3.537  2.5043 -2.8109  0.4813
17147TIP3    H272857   3.206   0.459   3.685 -0.2518  1.3440 -0.1418
17148TIP3   OH272858   3.802   6.055   4.819  0.1929  0.0683 -0.4677
17148TIP3    H172859   3.877   5.994   4.821  0.6978  0.5620 -2.2668
17148TIP3    H272860   3.796   6.089   4.908  2.4659  0.3982 -0.3806
17149TIP3   OH272861   4.829   0.243  13.495 -0.4423  0.2594  0.3751
17149TIP3    H172862   4.830   0.181  13.569  0.7777 -0.6345 -0.3560
17149TIP3    H272863   4.838   0.188  13.417  0.3006  1.3133 -0.3206
17150TIP3   OH272864   5.681   5.165  14.684  0.2279  0.1297 -0.4121
17150TIP3    H172865   5.772   5.138  14.688  0.1230 -0.0239  1.6483
17150TIP3    H272866   5.683   5.248  14.637  1.4466  0.2020 -0.2628
17151TIP3   OH272867   6.661   4.825  17.078  0.3396  0.4961  0.3394
17151TIP3    H172868   6.704   4.747  17.043  0.3261 -0.3527  2.1300
17151TIP3    H272869   6.725   4.895  17.067  1.5712 -0.4064  1.4535
17152TIP3   OH272870   0.266   6.234  12.347  0.0146 -0.1167  0.2740
17152TIP3    H172871   0.189   6.187  12.380 -0.0563  0.5505  1.0738
17152TIP3    H272872   0.305   6.274  12.424 -1.7610  3.9004 -0.6593
17153TIP3   OH272873   5.088   1.958   0.998 -0.1347  0.0343 -0.2454
17153TIP3    H172874   5.150   1.995   0.935 -0.7521 -0.1069 -0.9410
17153TIP3    H272875   5.002   1.973   0.959 -0.4698 -0.9212  0.0991
17154TIP3   OH272876   1.699   4.769  13.556  0.2231  0.2561 -0.1089
17154TIP3    H172877   1.618   4.786  13.507 -0.1610 -1.1996 -0.0374
17154TIP3    H272878   1.761   4.739  13.490  0.5845  0.9649 -0.0993
17155TIP3   OH272879   6.424   4.279  10.978 -0.4152 -0.4993 -0.7642
17155TIP3    H172880   6.455   4.321  10.898 -2.1008  0.6100 -0.8935
17155TIP3    H272881   6.412   4.187  10.955 -0.6365 -0.2392 -1.6980
17156TIP3   OH272882   4.827   4.031   0.411 -0.2182 -0.5708  0.1112
17156TIP3    H172883   4.882   4.075   0.346 -0.8794 -1.0899 -0.8266
17156TIP3    H272884   4.876   3.952   0.434  1.4324  1.0488  2.5251
17157TIP3   OH272885   3.623   2.313  16.764 -0.3094  0.1534  0.7315
17157TIP3    H172886   3.560   2.249  16.732  1.4759 -0.0180 -2.8695
17157TIP3    H272887   3.689   2.261  16.811 -0.0680 -0.4148 -0.2057
17158TIP3   OH272888   4.146   4.243  13.269  0.4729 -0.0371  0.2866
17158TIP3    H172889   4.173   4.266  13.180  3.5625 -0.3849  1.0354
17158TIP3    H272890   4.171   4.319  13.322 -0.5425 -0.1886  1.0134
17159TIP3   OH272891   5.763   0.483  14.919 -0.1724 -0.0112  0.1257
17159TIP3    H172892   5.806   0.559  14.880  2.0532 -1.2829 -0.0360
17159TIP3    H272893   5.832   0.418  14.930 -1.8447 -1.7772  0.9560
17160TIP3   OH272894   3.520   2.741  14.182 -0.5070  0.2402 -0.4203
17160TIP3    H172895   3.495   2.650  14.201 -0.2749  0.2445 -0.0861
17160TIP3    H272896   3.583   2.763  14.251  1.3907 -0.1888 -1.9163
17161TIP3   OH272897   1.777   5.359   5.046 -0.4384  0.3543 -0.0930
17161TIP3    H172898   1.759   5.388   4.957 -0.1443  1.6073  0.2394
17161TIP3    H272899   1.853   5.411   5.074 -0.0574 -0.5521  0.6307
17162TIP3   OH272900   2.698   5.559   3.324  0.3068  0.5408  0.1170
17162TIP3    H172901   2.734   5.601   3.245 -2.5761  0.6761 -1.2672
17162TIP3    H272902   2.659   5.631   3.373  2.1032  0.4586  1.7810
17163TIP3   OH272903   0.993   2.030   4.714 -0.3056 -0.0587  0.3369
17163TIP3    H172904   1.074   2.021   4.664 -1.0567  1.2824 -1.2279
17163TIP3    H272905   0.972   1.941   4.743  0.2248 -0.8907 -1.6764
17164TIP3   OH272906   3.795   1.621  14.370  0.1069  0.1999 -0.1981
17164TIP3    H172907   3.720   1.680  14.377  1.3317  1.6953  1.3834
17164TIP3    H272908   3.776   1.551  14.433  0.0507  0.6262  0.2701
17165TIP3   OH272909   2.794   6.690  13.131  0.5465 -0.1976 -0.0871
17165TIP3    H172910   2.846   6.654  13.059 -0.0682 -0.4443 -0.4126
17165TIP3    H272911   2.818   6.783  13.134 -0.0536 -0.0001 -1.1657
17166TIP3   OH272912   1.696   5.523  13.554 -0.4332  0.5773  0.1297
17166TIP3    H172913   1.742   5.571  13.486 -2.9911  0.0027 -2.1863
17166TIP3    H272914   1.764   5.474  13.600  1.2484 -0.8630 -3.5325
17167TIP3   OH272915   2.211   4.362  13.003 -0.1156 -0.2265  0.1627
17167TIP3    H172916   2.212   4.435  12.941  0.1057  1.2261  1.7944
17167TIP3    H272917   2.204   4.404  13.089 -1.5082 -2.2081  1.0849
17168TIP3   OH272918   4.668   4.348   1.449  0.0614 -0.1745 -0.6365
17168TIP3    H172919   4.578   4.314   1.453  0.6245 -1.6796  0.3964
17168TIP3    H272920   4.664   4.433   1.492 -0.7436 -0.5655  0.0809
17169TIP3   OH272921   3.298   3.813  15.931  0.1232 -0.2987 -0.0320
17169TIP3    H172922   3.218   3.762  15.943 -1.0978  0.9310 -2.2878
17169TIP3    H272923   3.287   3.889  15.987  0.5279 -0.9290  0.9392
17170TIP3   OH272924   6.017   1.775  12.540 -0.1669 -0.1825 -0.1255
17170TIP3    H172925   5.981   1.858  12.572  1.0715  0.0928  0.5949
17170TIP3    H272926   6.105   1.771  12.576 -0.5038 -2.2414  0.6095
17171TIP3   OH272927   4.137   0.224  11.898  0.1251 -0.1085 -0.3016
17171TIP3    H172928   4.223   0.183  11.889  0.4958  0.3680  0.8326
17171TIP3    H272929   4.152   0.297  11.958 -1.0943 -0.0569 -0.0403
17172TIP3   OH272930   1.360   0.741   4.204  0.0380  0.1085 -0.1536
17172TIP3    H172931   1.339   0.745   4.297 -0.7303 -0.8580 -0.2746
17172TIP3    H272932   1.455   0.758   4.201  0.0413  0.3458  0.7730
17173TIP3   OH272933   2.133   3.527   1.025  0.3199 -0.5882  0.3158
17173TIP3    H172934   2.222   3.496   1.043  0.3591 -0.4967  0.2817
17173TIP3    H272935   2.106   3.569   1.107  0.7469  0.4125 -0.0336
17174TIP3   OH272936   6.220   2.595  13.546 -0.1337  0.3655  0.3742
17174TIP3    H172937   6.275   2.519  13.566  0.0850  0.2769 -0.5209
17174TIP3    H272938   6.271   2.670  13.576 -0.0691  0.2059  0.6718
17175TIP3   OH272939   3.897   2.195   0.906  0.2218 -0.0210  0.4552
17175TIP3    H172940   3.928   2.285   0.908 -2.2446  0.9409 -0.5421
17175TIP3    H272941   3.943   2.152   0.978  0.6789  2.2900  1.6377
17176TIP3   OH272942   4.387   5.603  13.698 -0.5051  0.0944 -0.0797
17176TIP3    H172943   4.430   5.660  13.634 -0.5766  1.6558  1.1997
17176TIP3    H272944   4.459   5.564  13.748 -0.4861  0.4202  0.1538
17177TIP3   OH272945   2.752   3.886   6.876  0.2725  0.0491  0.1906
17177TIP3    H172946   2.826   3.901   6.817  0.4720  0.4197  0.5293
17177TIP3    H272947   2.681   3.939   6.839 -0.1862 -1.2173 -0.7963
17178TIP3   OH272948   3.263   6.030  17.283  0.3786 -0.6590 -0.4232
17178TIP3    H172949   3.239   5.964  17.348  2.0611 -1.5020 -0.5921
17178TIP3    H272950   3.353   6.053  17.305  1.4272 -1.8087 -3.0776
17179TIP3   OH272951   0.546   2.937   2.586 -0.3691 -0.1978  0.2473
17179TIP3    H172952   0.599   2.858   2.583  1.0597  0.6076  2.2736
17179TIP3    H272953   0.599   3.003   2.541 -0.6465  0.0979  0.3509
17180TIP3   OH272954   3.375   2.642   6.073  0.2102 -0.3083 -0.1544
17180TIP3    H172955   3.338   2.717   6.120 -1.0597 -0.4925 -0.8100
17180TIP3    H272956   3.441   2.606   6.132 -0.7745 -0.0437  1.1421
17181TIP3   OH272957   3.549   0.284  11.177  0.4929 -0.7758  0.0997
17181TIP3    H172958   3.564   0.377  11.192  0.8681 -1.0132  1.2598
17181TIP3    H272959   3.526   0.278  11.084  2.1655  0.2535 -0.4129
17182TIP3   OH272960   6.525   6.551   1.687  0.0929  0.5425 -0.0072
17182TIP3    H172961   6.558   6.635   1.719 -1.6608  0.0262  3.7730
17182TIP3    H272962   6.600   6.492   1.693  1.1229  1.5757 -1.9127
17183TIP3   OH272963   5.004   3.051   2.080 -0.0389 -0.4095 -0.1574
17183TIP3    H172964   4.911   3.029   2.082 -0.1124 -0.0870  1.2346
17183TIP3    H272965   5.047   2.976   2.122  0.0238  0.6103  1.7098
17184TIP3   OH272966   1.249   6.361   2.681  0.5675 -0.2056  0.0497
17184TIP3    H172967   1.229   6.443   2.726 -0.5697 -0.9857  1.0373
17184TIP3    H272968   1.246   6.295   2.750  0.1904 -1.2461 -0.9280
17185TIP3   OH272969   5.085   0.863  15.241  0.4222 -0.2908  0.1450
17185TIP3    H172970   5.111   0.779  15.202 -0.0386 -0.6353  0.5620
17185TIP3    H272971   5.128   0.865  15.326  0.4172 -0.1130  0.1436
17186TIP3   OH272972   6.453   3.574   0.669  0.2982 -0.6094 -0.0061
17186TIP3    H172973   6.538   3.588   0.626 -0.4915  1.7966 -0.9607
17186TIP3    H272974   6.395   3.547   0.598  0.1634 -1.9713  0.5954
17187TIP3   OH272975   0.056   3.744   0.387 -0.7354 -0.1956  0.3106
17187TIP3    H172976   0.088   3.669   0.437 -0.6584 -1.7611 -1.9583
17187TIP3    H272977   0.136   3.793   0.364 -0.7059  0.0974  1.0060
17188TIP3   OH272978   5.385   3.191  13.516  0.1508 -0.6443  0.2346
17188TIP3    H172979   5.353   3.277  13.543 -0.6281 -1.0920  0.7743
17188TIP3    H272980   5.310   3.133  13.529  0.3315 -1.2170 -1.1444
17189TIP3   OH272981   5.007   0.394  15.082 -0.1955  0.5634  0.1382
17189TIP3    H172982   4.948   0.414  15.155 -2.4969 -2.3441 -0.7098
17189TIP3    H272983   4.989   0.462  15.017 -0.1753  1.5649  1.1410
17190TIP3   OH272984   4.390   3.204   3.201  0.3202  0.5304  0.1484
17190TIP3    H172985   4.450   3.204   3.126 -0.1066 -0.0085 -0.1992
17190TIP3    H272986   4.315   3.256   3.171 -0.9524 -1.6648 -0.7254
17191TIP3   OH272987   4.040   0.815  12.180 -0.0798 -0.6143  0.1988
17191TIP3    H172988   4.107   0.804  12.114  1.0107 -1.2931  1.3685
17191TIP3    H272989   3.987   0.888  12.150  1.6606  0.4475 -0.3738
17192TIP3   OH272990   0.176   5.460  12.451 -0.5417 -0.2967  0.1752
17192TIP3    H172991   0.220   5.381  12.421 -0.5886 -0.9232  1.6533
17192TIP3    H272992   0.247   5.523  12.467 -0.4234 -0.3638 -0.0907
17193TIP3   OH272993   6.035   3.667   4.376  0.1217 -0.1211  0.4784
17193TIP3    H172994   6.038   3.572   4.373  0.3278 -0.0962 -0.1749
17193TIP3    H272995   6.109   3.692   4.432  1.2994 -0.2775 -0.9393
17194TIP3   OH272996   4.026   0.565   3.485  0.3209  0.1704 -0.6167
17194TIP3    H172997   3.976   0.641   3.516 -0.3590  0.8231 -3.0612
17194TIP3    H272998   3.961   0.494   3.482  1.2637 -1.0860  3.0776
17195TIP3   OH272999   1.005   2.392  15.632 -0.3618 -0.4162  0.1518
17195TIP3    H173000   0.945   2.446  15.684  0.7008  0.4944  0.4789
17195TIP3    H273001   0.984   2.414  15.541 -0.7628 -0.3866  0.2470
17196TIP3   OH273002   4.938   3.422  15.671  0.0690 -0.3334 -0.0769
17196TIP3    H173003   4.912   3.489  15.734 -0.3030 -0.1936 -0.3726
17196TIP3    H273004   4.952   3.471  15.589 -1.9761 -0.8181 -0.7753
17197TIP3   OH273005   3.373   2.391  14.820 -0.2019  0.0429  0.1298
17197TIP3    H173006   3.312   2.464  14.829 -1.1488 -0.7097 -0.0175
17197TIP3    H273007   3.383   2.380  14.725  0.4364  0.3769  0.1537
17198TIP3   OH273008   3.729   6.117   3.495  0.6762  0.0662  0.2330
17198TIP3    H173009   3.758   6.129   3.404 -0.7523  0.3652 -0.2054
17198TIP3    H273010   3.719   6.206   3.529  1.0981 -0.0439  0.6576
17199TIP3   OH273011   4.674   5.146  12.010 -0.5433  0.4487  0.4782
17199TIP3    H173012   4.719   5.066  11.981 -0.5139 -0.5733  3.0644
17199TIP3    H273013   4.745   5.209  12.023 -0.1660 -0.1417  1.4400
17200TIP3   OH273014   6.282   3.119  15.555  0.3538  0.3898  0.0906
17200TIP3    H173015   6.279   3.023  15.559 -0.6328  0.4457  1.0637
17200TIP3    H273016   6.301   3.138  15.463  0.1993 -0.7349 -0.1934
17201TIP3   OH273017   2.228   2.836  12.924 -0.1208 -0.3597  0.4084
17201TIP3    H173018   2.244   2.836  13.018  1.3279  0.3259  0.1888
17201TIP3    H273019   2.305   2.792  12.886  0.9066  2.1063 -0.6326
17202TIP3   OH273020   2.133   3.348  16.168 -0.4091  0.5321 -0.0803
17202TIP3    H173021   2.180   3.352  16.085 -2.1454  0.2961 -1.1278
17202TIP3    H273022   2.067   3.417  16.162  0.0484  1.1358  1.5123
17203TIP3   OH273023   3.457   0.516   1.583 -0.0046  0.2097  0.2568
17203TIP3    H173024   3.465   0.610   1.570 -0.3958  0.6149  2.4319
17203TIP3    H273025   3.538   0.480   1.548  1.8485  1.8104  2.5264
17204TIP3   OH273026   3.277   6.185  16.706 -0.2566 -0.4635  0.5765
17204TIP3    H173027   3.335   6.261  16.719  0.5638 -1.2081  1.4573
17204TIP3    H273028   3.335   6.117  16.672 -0.9827 -0.7100 -0.1900
17205TIP3   OH273029   3.054   1.559   0.677 -0.1906  0.3881  0.5179
17205TIP3    H173030   3.144   1.553   0.709  0.3826 -0.7029 -1.1685
17205TIP3    H273031   3.044   1.484   0.619 -1.6498  1.4113 -0.6426
17206TIP3   OH273032   2.455   6.461   2.183 -0.5038  0.9362  0.4241
17206TIP3    H173033   2.521   6.392   2.180  0.9962  2.2629  1.2449
17206TIP3    H273034   2.391   6.436   2.117  1.0825 -0.1640 -0.7761
17207TIP3   OH273035   2.918   2.624   2.099  0.0298  0.2085 -0.0614
17207TIP3    H173036   2.947   2.671   2.021  0.4895  1.0057  0.5647
17207TIP3    H273037   2.889   2.693   2.159 -0.8395 -0.4252  0.2679
17208TIP3   OH273038   3.217   4.585  11.626  0.3721  0.0520 -0.0795
17208TIP3    H173039   3.198   4.675  11.600  0.7885  0.1670  0.0085
17208TIP3    H273040   3.236   4.540  11.543  3.1316  0.7512  0.0437
17209TIP3   OH273041   4.614   2.427   2.105  0.2707 -0.0014  0.7303
17209TIP3    H173042   4.595   2.428   2.199 -1.8638  0.8235  0.3494
17209TIP3    H273043   4.534   2.393   2.065  1.0154  0.0097 -0.8289
17210TIP3   OH273044   4.195   6.322   4.206  0.7744  0.2059  0.3559
17210TIP3    H173045   4.273   6.309   4.154  1.3146  1.0387  0.9371
17210TIP3    H273046   4.225   6.370   4.283 -0.1675 -0.1628  0.9731
17211TIP3   OH273047   2.165   6.638  14.384 -0.1237 -0.1970  0.0895
17211TIP3    H173048   2.084   6.622  14.336 -0.9498  0.6885  1.1228
17211TIP3    H273049   2.157   6.728  14.415  0.8394 -0.3993  0.9923
17212TIP3   OH273050   3.748   3.757  13.219  0.0813  0.0205  0.0009
17212TIP3    H173051   3.720   3.778  13.308  2.8063 -2.4506  1.6706
17212TIP3    H273052   3.794   3.835  13.189 -1.0320  0.9616  0.6532
17213TIP3   OH273053   5.562   2.753  12.618 -0.0371 -0.3795 -0.2788
17213TIP3    H173054   5.505   2.765  12.694 -0.7076  1.1599 -0.9893
17213TIP3    H273055   5.650   2.747  12.655 -0.2072  1.5630  0.5886
17214TIP3   OH273056   2.226   5.054  13.823  0.5616 -0.5682  0.0015
17214TIP3    H173057   2.261   5.094  13.903 -0.8604 -1.5032  1.1362
17214TIP3    H273058   2.223   5.126  13.760 -0.9851  0.9212  1.6701
17215TIP3   OH273059   2.482   2.262   3.209  0.1940  0.4200  0.2132
17215TIP3    H173060   2.459   2.353   3.231  0.3305  0.7767 -1.0398
17215TIP3    H273061   2.553   2.240   3.269  2.3806  2.2599 -1.4972
17216TIP3   OH273062   0.660   0.423   5.206  0.0341 -0.1963  0.3333
17216TIP3    H173063   0.755   0.424   5.217 -0.0473 -0.7561  1.1367
17216TIP3    H273064   0.625   0.466   5.284 -0.3881 -0.4764  0.3050
17217TIP3   OH273065   1.572   1.338   1.938  0.4860 -0.4971  0.0625
17217TIP3    H173066   1.593   1.397   2.011 -1.1328  1.3483 -0.8708
17217TIP3    H273067   1.536   1.260   1.980  0.6776  0.0398  1.2765
17218TIP3   OH273068   4.322   6.551   2.753 -0.2784  0.2785 -0.1446
17218TIP3    H173069   4.251   6.557   2.816  1.3230  0.9006  1.6828
17218TIP3    H273070   4.324   6.459   2.728 -1.6432  0.2332 -0.1661
17219TIP3   OH273071   1.701   3.961   2.370 -0.6950 -0.0234 -0.3071
17219TIP3    H173072   1.648   3.952   2.449 -1.6911 -0.9503 -1.0471
17219TIP3    H273073   1.648   4.016   2.312  0.7480  2.0504  0.2370
17220TIP3   OH273074   0.057   4.159  11.636 -0.0019 -0.0040 -0.1286
17220TIP3    H173075   0.035   4.214  11.711  0.4965 -1.2921  0.9990
17220TIP3    H273076  -0.020   4.163  11.580 -0.7984  0.1869  0.9486
17221TIP3   OH273077   5.246   2.030   1.844 -0.4881 -0.6250 -0.1708
17221TIP3    H173078   5.321   2.054   1.898  0.3383  0.8766 -1.8503
17221TIP3    H273079   5.202   2.112   1.826 -1.7522 -1.3186 -0.3480
17222TIP3   OH273080   2.687   3.287   1.284  0.0229 -0.5053 -0.0721
17222TIP3    H173081   2.712   3.237   1.362 -0.3443  0.5687  0.7583
17222TIP3    H273082   2.602   3.325   1.306  0.5927  1.0419 -0.3754
17223TIP3   OH273083   0.528   2.874  14.143 -0.1721  0.0952 -0.2361
17223TIP3    H173084   0.556   2.783  14.157 -0.0381  0.2034  0.2007
17223TIP3    H273085   0.597   2.912  14.089 -1.4002 -0.7346 -2.5598
17224TIP3   OH273086   4.075   2.723   6.217  0.0690 -0.4892  0.1413
17224TIP3    H173087   4.047   2.674   6.295  1.2355 -0.6100  0.4983
17224TIP3    H273088   4.082   2.813   6.247 -0.1867 -0.4204 -0.0099
17225TIP3   OH273089   3.997   0.832   4.005 -0.3301  0.7223  0.4188
17225TIP3    H173090   3.970   0.753   3.958 -0.2475  0.6760  0.4475
17225TIP3    H273091   4.013   0.897   3.936 -1.5604  1.0877  0.4554
17226TIP3   OH273092   2.047   4.058   3.809 -0.0951  0.1408 -0.8643
17226TIP3    H173093   2.066   3.964   3.802  2.1380  0.4963 -0.4109
17226TIP3    H273094   1.963   4.069   3.764 -0.2345 -1.9984 -1.2475
17227TIP3   OH273095   4.604   2.104   6.344  0.6260 -0.0613  0.4803
17227TIP3    H173096   4.573   2.189   6.374 -0.2549  0.1110 -0.8125
17227TIP3    H273097   4.682   2.125   6.292 -1.3700  0.4410 -2.6076
17228TIP3   OH273098   1.519   4.136   0.929 -0.1640  0.4549  0.0143
17228TIP3    H173099   1.585   4.092   0.983 -0.0170  0.4482 -0.1718
17228TIP3    H273100   1.437   4.091   0.951 -0.1149  0.4881  0.2727
17229TIP3   OH273101   2.393   4.011   4.726 -0.1277  0.1928  0.5654
17229TIP3    H173102   2.449   4.032   4.801 -0.9559  0.3822  1.1371
17229TIP3    H273103   2.304   4.019   4.760 -0.5639  1.8437 -0.8564
17230TIP3   OH273104   3.771   3.096  15.636 -0.2009 -0.3176  0.2276
17230TIP3    H173105   3.821   3.178  15.639  0.8422 -0.9526  0.8237
17230TIP3    H273106   3.762   3.077  15.543 -0.0316  0.2350  0.0971
17231TIP3   OH273107   2.435   1.295  16.259  0.2617 -0.1238  0.1412
17231TIP3    H173108   2.370   1.258  16.318 -0.4087  0.8078  0.0143
17231TIP3    H273109   2.486   1.220  16.229 -0.5464 -0.8370  0.5009
17232TIP3   OH273110   2.760   1.693  12.656  0.0084  0.2900 -0.6266
17232TIP3    H173111   2.747   1.688  12.561 -0.4903  1.1062 -0.6142
17232TIP3    H273112   2.671   1.685  12.692  0.1927  0.0191 -0.2307
17233TIP3   OH273113   0.166   2.538   3.896 -0.1681  0.3513 -0.3202
17233TIP3    H173114   0.208   2.507   3.815 -0.5160  0.2992 -0.4842
17233TIP3    H273115   0.135   2.626   3.875  2.4773  1.6330  0.7276
17234TIP3   OH273116   4.347   2.805  13.460  0.1719  0.2091 -1.0024
17234TIP3    H173117   4.383   2.856  13.532 -1.6114  2.2360 -1.4413
17234TIP3    H273118   4.383   2.845  13.381  1.1716 -1.2354 -1.3238
17235TIP3   OH273119   3.625   2.211  17.205  0.3435 -0.1687 -0.3430
17235TIP3    H173120   3.649   2.141  17.267  1.2631 -0.5434 -1.0904
17235TIP3    H273121   3.709   2.242  17.171 -0.0727  1.1231 -0.2337
17236TIP3   OH273122   0.124   6.084   0.315  0.3662 -0.0514 -0.5893
17236TIP3    H173123   0.186   6.065   0.245  0.5187  0.4067 -0.5815
17236TIP3    H273124   0.176   6.126   0.383 -0.0388  0.8011 -0.7911
17237TIP3   OH273125   6.291   4.865   1.021 -0.1869  0.0230  0.1647
17237TIP3    H173126   6.316   4.892   1.110 -0.0813  0.7945 -0.0923
17237TIP3    H273127   6.245   4.783   1.033 -0.0475  0.0484  0.9267
17238TIP3   OH273128   4.035   4.705  15.421 -0.0378  0.4667 -0.5636
17238TIP3    H173129   4.065   4.688  15.510 -1.4576 -2.6226 -0.5302
17238TIP3    H273130   3.975   4.779  15.428  0.7693  1.0071  0.8322
17239TIP3   OH273131   6.400   4.577  11.358  0.1096 -0.3634  0.0400
17239TIP3    H173132   6.410   4.657  11.307  2.3633 -1.1878 -0.9042
17239TIP3    H273133   6.466   4.517  11.324  0.4082 -1.6613  2.6269
17240TIP3   OH273134   1.617   0.381   5.188 -0.7875  0.3369  0.3182
17240TIP3    H173135   1.585   0.369   5.278  2.8324  1.7399  1.9973
17240TIP3    H273136   1.570   0.458   5.156 -1.6651  0.2198  1.2713
17241TIP3   OH273137   6.407   6.020  14.317 -0.2531 -0.3589  0.1625
17241TIP3    H173138   6.333   5.991  14.262  0.1063  2.6804 -2.2114
17241TIP3    H273139   6.485   5.997  14.267  0.1380  1.3029 -0.0741
17242TIP3   OH273140   1.112   5.302  17.232  0.0036 -0.0154 -0.4463
17242TIP3    H173141   1.104   5.396  17.243  1.5433  0.2079 -0.9610
17242TIP3    H273142   1.036   5.266  17.277  1.6939  1.2368  3.9282
17243TIP3   OH273143   2.681   1.630   0.668 -0.1622 -0.5301 -0.1057
17243TIP3    H173144   2.585   1.632   0.671 -0.1744 -1.5614  0.7679
17243TIP3    H273145   2.701   1.591   0.583 -0.5329 -0.5355 -0.1923
17244TIP3   OH273146   3.491   5.031  14.577  0.5419 -0.0529 -0.2958
17244TIP3    H173147   3.541   5.021  14.497  0.9618 -1.5568  0.1075
17244TIP3    H273148   3.552   5.070  14.639  0.3323  0.7588 -0.5956
17245TIP3   OH273149   5.705   3.837  13.833  0.3646  0.4256 -0.2246
17245TIP3    H173150   5.791   3.842  13.792  0.7302 -0.3854  0.4344
17245TIP3    H273151   5.711   3.764  13.895 -0.8620  0.2035 -0.3363
17246TIP3   OH273152   0.447   0.658   5.831 -0.1680 -0.3204  0.3864
17246TIP3    H173153   0.514   0.604   5.873  0.2391 -1.4662 -1.6473
17246TIP3    H273154   0.486   0.745   5.825 -0.5974  0.1635  3.1417
17247TIP3   OH273155   0.261   3.639   4.171 -0.0098  0.0060  0.3363
17247TIP3    H173156   0.168   3.648   4.191  0.0726  1.4399  0.1788
17247TIP3    H273157   0.274   3.690   4.092  1.0145  0.2481  0.6448
17248TIP3   OH273158   3.247   3.679  13.245  0.1550  0.3300 -0.0106
17248TIP3    H173159   3.336   3.709  13.229  0.4722 -0.1032  0.9241
17248TIP3    H273160   3.235   3.684  13.339  0.0702 -1.9917  0.1579
17249TIP3   OH273161   0.875   1.383   1.646 -0.4710 -0.4598 -0.4700
17249TIP3    H173162   0.922   1.303   1.624 -0.3529 -0.6384  0.4134
17249TIP3    H273163   0.943   1.445   1.673 -0.4832  0.2027 -1.8585
17250TIP3   OH273164   2.367   5.721   4.050 -0.0609 -0.8965  0.3340
17250TIP3    H173165   2.283   5.721   4.094 -0.7306 -0.3442 -0.9024
17250TIP3    H273166   2.379   5.811   4.019  0.1804 -1.3510 -0.9640
17251TIP3   OH273167   6.416   4.250   0.182  0.4147 -0.4618 -0.1201
17251TIP3    H173168   6.360   4.172   0.184  1.6012 -1.3919 -1.4310
17251TIP3    H273169   6.499   4.220   0.218  0.3374  0.7230  1.1192
17252TIP3   OH273170   0.588   4.424  11.284 -0.5190  0.3603 -0.3811
17252TIP3    H173171   0.647   4.348  11.284 -0.0255  0.7225 -1.3711
17252TIP3    H273172   0.635   4.490  11.335 -0.1932  0.5489 -0.9188
17253TIP3   OH273173   5.437   3.457   0.565 -0.4038  0.2174  0.2823
17253TIP3    H173174   5.467   3.420   0.648 -1.8747  0.0768  0.7788
17253TIP3    H273175   5.499   3.527   0.546  1.2687 -1.1749  0.3430
17254TIP3   OH273176   0.264   0.401  15.823 -0.2483 -0.4449  0.4460
17254TIP3    H173177   0.216   0.481  15.840  0.9454  0.3633  0.1276
17254TIP3    H273178   0.224   0.365  15.743 -0.7951 -0.1747  0.6012
17255TIP3   OH273179   5.323   5.130  13.005  0.4618 -0.0765  0.8726
17255TIP3    H173180   5.324   5.159  13.096  1.1506  0.9403  0.5722
17255TIP3    H273181   5.398   5.071  12.997  0.7135  0.2414  0.8538
17256TIP3   OH273182   1.684   2.086  13.425 -0.2570 -0.2647 -0.2756
17256TIP3    H173183   1.654   2.169  13.389  1.5617  0.6185  0.1670
17256TIP3    H273184   1.610   2.055  13.478 -1.4858  0.3314 -1.5699
17257TIP3   OH273185   0.179   5.817   0.968  0.2705  0.7521 -0.5686
17257TIP3    H173186   0.122   5.844   0.896 -0.3252 -0.8331 -0.7159
17257TIP3    H273187   0.267   5.815   0.930 -0.0571 -0.1870 -1.2879
17258TIP3   OH273188   2.547   6.103   1.389  0.0743 -0.5020  0.0353
17258TIP3    H173189   2.532   6.176   1.330 -1.6349 -0.3426  0.5969
17258TIP3    H273190   2.642   6.092   1.391  0.3771  1.6181 -0.1658
17259TIP3   OH273191   5.703   4.858   5.658 -0.0542  0.6601 -0.5360
17259TIP3    H173192   5.729   4.869   5.750 -0.7262  0.5580 -0.3238
17259TIP3    H273193   5.633   4.923   5.646  0.0160  0.6545 -0.9692
17260TIP3   OH273194   5.301   2.612   4.397  1.0762 -0.4716  0.0139
17260TIP3    H173195   5.208   2.592   4.392  1.1541 -0.9988  0.5942
17260TIP3    H273196   5.313   2.649   4.485  1.0321  1.6621 -0.8066
17261TIP3   OH273197   2.069   3.952   5.906 -0.5739  0.0143 -0.1554
17261TIP3    H173198   2.015   3.890   5.857  0.4289 -0.5951 -0.5463
17261TIP3    H273199   2.143   3.970   5.848  0.5403 -0.5519  1.0235
17262TIP3   OH273200   2.265   6.444   6.041  0.1690  0.4085  0.1707
17262TIP3    H173201   2.357   6.423   6.054  0.6349  2.4470  0.6457
17262TIP3    H273202   2.241   6.492   6.121 -1.3496 -0.2121  0.1144
17263TIP3   OH273203   1.714   5.352  15.719  0.1041 -0.3517 -0.3861
17263TIP3    H173204   1.630   5.396  15.730 -0.6650 -1.9951  0.5793
17263TIP3    H273205   1.720   5.335  15.625  0.4893  1.8656 -0.8099
17264TIP3   OH273206   4.562   2.898  16.371 -0.0478 -0.2067  0.1111
17264TIP3    H173207   4.529   2.813  16.403  1.1940 -1.2461 -1.2512
17264TIP3    H273208   4.636   2.875  16.315  0.1152  1.7857 -0.5452
17265TIP3   OH273209   5.678   5.000   3.034 -0.0191  0.1800  0.6619
17265TIP3    H173210   5.713   5.089   3.040 -1.9968  0.9329  1.9055
17265TIP3    H273211   5.696   4.962   3.121 -1.0753  0.1311  0.8673
17266TIP3   OH273212   3.953   6.586  13.625  0.7662 -0.9565 -0.0643
17266TIP3    H173213   3.943   6.530  13.548  0.6264 -0.0271 -0.7321
17266TIP3    H273214   4.025   6.644  13.603 -0.1212  0.1867 -0.0348
17267TIP3   OH273215   4.023   3.011  16.645 -0.3551 -0.2460  0.4507
17267TIP3    H173216   4.040   3.044  16.733 -0.6346 -0.3371  0.5419
17267TIP3    H273217   4.102   2.963  16.621 -0.2531 -0.1650  0.6259
17268TIP3   OH273218   0.871   2.357   2.608  0.3071  0.8132 -0.2702
17268TIP3    H173219   0.883   2.439   2.560 -0.9857  0.6671 -0.8753
17268TIP3    H273220   0.925   2.293   2.562 -1.5528  0.4752 -2.0985
17269TIP3   OH273221   5.242   0.910   5.533 -0.1611 -0.1826  0.1594
17269TIP3    H173222   5.164   0.870   5.495 -0.1470  0.6270 -0.7377
17269TIP3    H273223   5.313   0.849   5.513 -0.5496 -0.9480  1.0238
17270TIP3   OH273224   6.261   2.290   0.157 -0.0920 -0.8711 -0.0217
17270TIP3    H173225   6.312   2.305   0.236  3.1996 -0.1223 -2.1051
17270TIP3    H273226   6.276   2.367   0.103 -1.7723 -1.5949 -1.6364
17271TIP3   OH273227   1.961   0.374  14.756  0.1309 -0.3307 -0.0422
17271TIP3    H173228   1.908   0.325  14.693 -1.8467  2.2162 -0.5339
17271TIP3    H273229   1.901   0.438  14.793  2.0498  0.3552  2.1028
17272TIP3   OH273230   4.503   5.236   3.241 -0.2910  0.6085 -0.2230
17272TIP3    H173231   4.545   5.322   3.247  0.9162  0.0457 -0.3442
17272TIP3    H273232   4.555   5.180   3.299 -1.3550  0.0638  0.2292
17273TIP3   OH273233   1.014   3.817  15.082  0.6649 -0.0647  0.3178
17273TIP3    H173234   0.969   3.877  15.140 -0.6772  1.5672 -2.2124
17273TIP3    H273235   1.104   3.850  15.077 -0.1201  2.1030 -1.2727
17274TIP3   OH273236   3.269   5.598  14.950 -0.5026 -0.3578 -0.1129
17274TIP3    H173237   3.287   5.512  14.911 -0.6425 -0.6375  0.4331
17274TIP3    H273238   3.342   5.653  14.921  0.4611 -1.0778  0.8486
17275TIP3   OH273239   3.015   2.566  14.899 -0.1411 -0.2787  0.0404
17275TIP3    H173240   2.982   2.641  14.948 -0.5960 -0.2104 -0.3547
17275TIP3    H273241   2.936   2.524  14.864  0.1074 -0.9290  0.2365
17276TIP3   OH273242   6.049   5.239  11.635  0.0201 -0.2511  0.0210
17276TIP3    H173243   6.025   5.253  11.543 -0.6182 -1.1149  0.0374
17276TIP3    H273244   6.029   5.321  11.679  0.2636  0.1444 -0.6001
17277TIP3   OH273245   5.855   3.144   1.040 -0.0079  0.0143  0.8531
17277TIP3    H173246   5.848   3.161   1.134 -0.1106 -1.6357  1.1787
17277TIP3    H273247   5.926   3.080   1.032  0.2936  0.4651 -0.2414
17278TIP3   OH273248   1.072   0.917   2.217 -0.4556 -0.2702  0.3065
17278TIP3    H173249   1.075   0.864   2.297 -1.2099 -3.3817 -1.5401
17278TIP3    H273250   1.156   0.899   2.174 -1.2175 -1.0306 -0.9249
17279TIP3   OH273251   5.896   3.867  16.427  0.5158 -0.4138  0.2708
17279TIP3    H173252   5.984   3.827  16.427  0.5176 -0.4468 -0.7245
17279TIP3    H273253   5.852   3.829  16.503  0.6918 -1.9468 -0.3549
17280TIP3   OH273254   2.003   3.276  16.405 -0.4647  0.2492  0.5661
17280TIP3    H173255   1.936   3.334  16.441  0.5742  1.4801  0.6056
17280TIP3    H273256   2.000   3.292  16.310  0.6828  1.3927  0.6870
17281TIP3   OH273257   5.801   6.207   1.490  0.0643  0.0719 -0.0313
17281TIP3    H173258   5.843   6.194   1.405 -2.0456 -2.6453 -0.7768
17281TIP3    H273259   5.713   6.238   1.469 -0.5087 -0.6830  1.1394
17282TIP3   OH273260   0.818   1.527   4.101  0.4864 -0.4072 -0.0954
17282TIP3    H173261   0.866   1.480   4.169 -1.5096 -0.7942  1.1543
17282TIP3    H273262   0.806   1.615   4.137  0.4226 -0.2635 -0.4667
17283TIP3   OH273263   4.633   5.319  14.053 -0.0477 -0.4490  0.3493
17283TIP3    H173264   4.690   5.316  13.976 -0.4062 -0.3621  0.0799
17283TIP3    H273265   4.571   5.390  14.034 -0.2391 -0.5384  0.6452
17284TIP3   OH273266   0.774   3.513  16.626  0.6512  0.1511  0.1866
17284TIP3    H173267   0.698   3.510  16.685  0.2930  2.0975 -0.0960
17284TIP3    H273268   0.774   3.603  16.593  2.6355 -0.0364 -0.4234
17285TIP3   OH273269   4.931   5.553   4.348  0.2897  0.1345  0.2614
17285TIP3    H173270   4.902   5.470   4.310  1.4022 -0.4325  0.5942
17285TIP3    H273271   4.850   5.598   4.373 -0.3606 -0.5280 -0.5839
17286TIP3   OH273272   4.659   6.428   2.270  0.1416  0.0209 -0.0574
17286TIP3    H173273   4.586   6.397   2.323 -0.0941 -0.7171 -0.7858
17286TIP3    H273274   4.718   6.470   2.332 -0.7063  0.2714  0.5998
17287TIP3   OH273275   5.807   0.968  15.723  0.2240  0.3967 -0.0730
17287TIP3    H173276   5.857   1.048  15.706  0.8197  0.0228 -0.1048
17287TIP3    H273277   5.744   0.964  15.652 -1.1237  1.8497  0.9605
17288TIP3   OH273278   2.288   0.398   3.606  0.3320  0.2851  0.3820
17288TIP3    H173279   2.194   0.404   3.591  0.5873  0.7913 -1.2096
17288TIP3    H273280   2.303   0.307   3.630 -0.3464 -0.2404 -1.0897
17289TIP3   OH273281   3.882   6.530  17.341 -0.0586  0.1303  0.3621
17289TIP3    H173282   3.955   6.477  17.308 -1.3155 -1.2609 -0.3272
17289TIP3    H273283   3.804   6.481  17.315 -1.2127  0.5403  2.8096
17290TIP3   OH273284   1.997   1.561  12.986  0.0455  0.3683 -0.2916
17290TIP3    H173285   2.076   1.590  12.939  0.7247 -1.5669 -0.4375
17290TIP3    H273286   1.938   1.636  12.981  1.0020  1.0883 -2.1683
17291TIP3   OH273287   2.353   0.168   6.222 -0.2817 -0.1615 -0.2631
17291TIP3    H173288   2.275   0.175   6.276 -0.5684 -1.3410 -0.4941
17291TIP3    H273289   2.422   0.142   6.283 -0.2864 -0.0841 -0.2249
17292TIP3   OH273290   2.879   1.341  12.870 -0.4805 -0.2206 -0.2258
17292TIP3    H173291   2.947   1.362  12.806  0.3118 -0.4076  0.5262
17292TIP3    H273292   2.927   1.328  12.952 -1.2482 -1.9059 -0.0010
17293TIP3   OH273293   2.180   5.801  16.491 -0.4410 -0.2534  0.1436
17293TIP3    H173294   2.252   5.752  16.531  0.8469  0.0727 -1.6007
17293TIP3    H273295   2.141   5.850  16.563  1.4856  0.0061  1.0870
17294TIP3   OH273296   2.950   0.533  11.250 -0.3328 -0.1677 -0.5058
17294TIP3    H173297   2.858   0.523  11.226 -0.6539  0.0711  0.5862
17294TIP3    H273298   2.997   0.477  11.188 -1.1237  0.3897 -1.6456
17295TIP3   OH273299   4.888   1.324  16.864 -0.2923 -0.1045  0.1252
17295TIP3    H173300   4.900   1.321  16.959 -0.3780  2.2886  0.2713
17295TIP3    H273301   4.935   1.246  16.832 -0.1666 -0.9110  2.0882
17296TIP3   OH273302   0.357   1.703   2.814 -0.9962  0.9404 -0.6794
17296TIP3    H173303   0.430   1.745   2.769 -0.3551  0.6688  0.0915
17296TIP3    H273304   0.294   1.773   2.829 -0.3280  1.4425 -0.2029
17297TIP3   OH273305   2.444   4.338   3.463 -0.0318 -0.2967 -0.0159
17297TIP3    H173306   2.369   4.384   3.425 -0.2358 -0.0104  0.7212
17297TIP3    H273307   2.428   4.246   3.442  0.3063 -0.0647 -1.3769
17298TIP3   OH273308   2.133   2.343  14.000 -0.3146  0.3661 -0.0751
17298TIP3    H173309   2.186   2.385  13.932 -0.3200  0.1386 -0.2237
17298TIP3    H273310   2.043   2.363  13.975 -0.2816  1.9704  0.9689
17299TIP3   OH273311   6.196   1.996   2.836 -0.1659 -0.1454  0.6368
17299TIP3    H173312   6.107   1.973   2.863  0.2225 -0.6317  1.5292
17299TIP3    H273313   6.227   2.055   2.904 -0.7574  2.2826 -1.0490
17300TIP3   OH273314   6.105   3.639  10.794  0.0843  0.0455 -0.1140
17300TIP3    H173315   6.172   3.705  10.815  0.7993 -1.0878  1.3388
17300TIP3    H273316   6.146   3.584  10.727 -0.2798  0.6569 -0.8673
17301TIP3   OH273317   4.898   6.315   1.396  0.6242  0.0289 -0.1836
17301TIP3    H173318   4.819   6.307   1.450 -0.7984  1.4163 -1.9014
17301TIP3    H273319   4.953   6.377   1.443  1.5451 -2.2260  1.8953
17302TIP3   OH273320   1.578   3.372  14.272 -0.3769  0.3486 -0.4005
17302TIP3    H173321   1.583   3.329  14.357  1.3449  1.1398 -0.0477
17302TIP3    H273322   1.504   3.432  14.279 -0.2568  0.3961  0.5446
17303TIP3   OH273323   6.219   4.562   0.274 -0.0574 -0.2463 -0.6351
17303TIP3    H173324   6.209   4.653   0.303  1.3737 -0.6272  1.2614
17303TIP3    H273325   6.141   4.545   0.221 -1.3034  1.5212  0.5053
17304TIP3   OH273326   5.073   4.689  12.185 -0.5221  0.2103  0.5569
17304TIP3    H173327   5.150   4.636  12.205 -1.1251 -1.3379 -0.9815
17304TIP3    H273328   5.006   4.658  12.245 -0.6505 -0.2277  0.1906
17305TIP3   OH273329   0.897   3.601   1.124  0.5971 -0.3384 -0.6724
17305TIP3    H173330   0.825   3.551   1.163  0.2884  0.9605  0.4995
17305TIP3    H273331   0.976   3.565   1.165  0.3627  0.2284  0.3079
17306TIP3   OH273332   6.375   3.343  16.012  0.1559 -0.5290  0.0563
17306TIP3    H173333   6.444   3.318  15.950 -1.4308 -0.3863 -1.8529
17306TIP3    H273334   6.303   3.284  15.992 -0.8621  0.4116  0.8693
17307TIP3   OH273335   0.369   1.793   3.916  0.3952  0.2308  0.3453
17307TIP3    H173336   0.275   1.810   3.910  0.5716  1.4583  0.8360
17307TIP3    H273337   0.380   1.706   3.876 -0.9554  0.0050  0.4176
17308TIP3   OH273338   0.887   5.375  13.649  0.7101 -0.1089 -0.2536
17308TIP3    H173339   0.792   5.373  13.639  0.2632  0.3279  2.9243
17308TIP3    H273340   0.909   5.295  13.696  1.5869  0.7957  0.9589
17309TIP3   OH273341   6.379   1.731  14.054 -0.2933 -0.1375 -0.1335
17309TIP3    H173342   6.312   1.767  13.996 -0.5941 -0.3510  0.0756
17309TIP3    H273343   6.418   1.807  14.096  0.8260  0.1238 -1.5666
17310TIP3   OH273344   4.648   2.065   5.388  0.6248  0.2231 -0.2221
17310TIP3    H173345   4.655   1.994   5.452 -2.4918 -0.5187 -0.5609
17310TIP3    H273346   4.622   2.142   5.439  1.1476  0.4211 -0.2413
17311TIP3   OH273347   3.349   2.474   5.832 -0.0637 -0.1259 -0.4792
17311TIP3    H173348   3.390   2.517   5.907  2.2458 -2.2922 -0.3847
17311TIP3    H273349   3.411   2.487   5.760 -1.6534  0.8357 -1.7415
17312TIP3   OH273350   5.884   2.536  16.022  0.2939 -0.0325  0.3222
17312TIP3    H173351   5.827   2.536  16.099  0.9109  2.1344  0.8519
17312TIP3    H273352   5.913   2.445  16.013 -0.9367 -0.5973  1.7703
17313TIP3   OH273353   1.441   1.956   2.688 -0.2877 -0.1322 -0.2744
17313TIP3    H173354   1.424   1.894   2.760 -0.5124 -0.5179 -0.6574
17313TIP3    H273355   1.394   2.035   2.714 -3.4217 -1.3908 -1.6395
17314TIP3   OH273356   1.936   2.475   5.911 -0.2354  0.0891 -0.1660
17314TIP3    H173357   1.919   2.443   6.000 -0.8345 -2.2426 -1.0494
17314TIP3    H273358   2.016   2.526   5.919 -1.0992  1.2627  1.9588
17315TIP3   OH273359   2.863   4.564   0.172 -0.1415  0.4562 -0.3066
17315TIP3    H173360   2.777   4.529   0.194 -0.4050  0.4264 -1.3340
17315TIP3    H273361   2.860   4.655   0.200 -0.9144  0.7627 -1.3310
17316TIP3   OH273362   5.562   1.967   2.509 -0.8702 -0.1752 -0.2806
17316TIP3    H173363   5.515   2.045   2.539 -1.9585 -1.0488  0.3288
17316TIP3    H273364   5.592   1.925   2.590 -2.1132 -1.5045 -0.4810
17317TIP3   OH273365   5.105   2.996   0.545 -0.5174 -0.1805  0.6574
17317TIP3    H173366   5.181   2.948   0.511 -0.7948  0.1543 -0.4722
17317TIP3    H273367   5.093   3.069   0.484 -0.8922  0.5955  1.6223
17318TIP3   OH273368   4.825   3.597   2.308 -0.5020  0.0423  0.5158
17318TIP3    H173369   4.850   3.547   2.231  0.2196  0.2916  0.5768
17318TIP3    H273370   4.790   3.679   2.272  1.6383  0.9968  0.4385
17319TIP3   OH273371   0.414   3.299  12.952 -0.6582  0.1216 -0.2328
17319TIP3    H173372   0.324   3.314  12.922 -0.0252  1.8217 -1.4394
17319TIP3    H273373   0.411   3.313  13.046 -1.3385  1.9809 -0.4958
17320TIP3   OH273374   5.038   5.545  11.848 -0.1069 -0.6699 -0.3063
17320TIP3    H173375   4.963   5.539  11.788 -1.6901 -0.4352  1.5431
17320TIP3    H273376   5.048   5.639  11.863  0.2234 -0.7344 -0.1264
17321TIP3   OH273377   3.520   0.824   3.409  0.3666 -0.0245  0.2756
17321TIP3    H173378   3.449   0.886   3.394  0.3027  0.0153  0.7469
17321TIP3    H273379   3.536   0.785   3.323 -0.8197 -0.6696  0.3203
17322TIP3   OH273380   3.649   0.277  11.925 -0.2514  0.4789  0.0238
17322TIP3    H173381   3.731   0.229  11.936 -0.6435 -0.8794 -2.3076
17322TIP3    H273382   3.586   0.230  11.980 -0.1719 -0.5178 -0.7034
17323TIP3   OH273383   5.860   1.618  11.606  0.4026  0.0788 -0.7280
17323TIP3    H173384   5.896   1.577  11.527 -0.9323  0.0836 -1.3606
17323TIP3    H273385   5.798   1.683  11.573 -0.6133 -0.3234  0.3309
17324TIP3   OH273386   4.181   2.422   3.481 -0.5268 -0.1686  0.0070
17324TIP3    H173387   4.123   2.346   3.487 -0.3063 -0.3935 -0.6770
17324TIP3    H273388   4.269   2.385   3.489 -0.4459  0.0892  0.3069
17325TIP3   OH273389   6.249   3.968  13.581  0.5536 -0.3210 -0.0216
17325TIP3    H173390   6.169   3.923  13.554  0.3682 -0.1347  0.2108
17325TIP3    H273391   6.258   4.040  13.519 -1.3272  1.7294  1.9411
17326TIP3   OH273392   4.327   0.131  14.291  0.2364  0.8369  0.4245
17326TIP3    H173393   4.364   0.087  14.214  3.5514  2.0736  1.1598
17326TIP3    H273394   4.383   0.208  14.304 -2.3932  2.6453  2.0271
17327TIP3   OH273395   0.951   0.743  16.551  0.3252 -0.0504 -0.8194
17327TIP3    H173396   0.860   0.763  16.532  0.6282  2.8863  0.1771
17327TIP3    H273397   1.000   0.779  16.477  0.7363 -0.4366 -0.7391
17328TIP3   OH273398   0.870   2.999   3.989  0.3267 -0.3049  0.2341
17328TIP3    H173399   0.843   2.912   4.018  0.2265 -0.6844 -0.9667
17328TIP3    H273400   0.924   3.032   4.061 -1.6402 -0.3391  1.8296
17329TIP3   OH273401   1.638   2.659   5.821  0.0598  0.3335 -0.5316
17329TIP3    H173402   1.637   2.594   5.891  1.5136  2.5549  1.7232
17329TIP3    H273403   1.731   2.673   5.802 -0.1859  2.0038 -0.6539
17330TIP3   OH273404   1.358   2.066   4.817  0.3647  0.1883  0.7361
17330TIP3    H173405   1.345   2.084   4.724 -0.8714  0.4476  0.9433
17330TIP3    H273406   1.312   1.984   4.832 -0.6974  0.8683  1.3886
17331TIP3   OH273407   3.952   0.482  12.648 -0.0459  0.3099  0.4305
17331TIP3    H173408   3.903   0.464  12.567  1.0097 -1.0786  0.0600
17331TIP3    H273409   4.043   0.466  12.624  0.3662  0.7083  1.6876
17332TIP3   OH273410   0.025   2.922   3.523  0.0876 -0.0446 -0.1743
17332TIP3    H173411   0.010   2.830   3.499  0.0486 -0.0461 -0.1441
17332TIP3    H273412  -0.062   2.961   3.523  0.2531  0.3863 -1.7783
17333TIP3   OH273413   4.937   2.875  13.340 -0.1722  0.1101 -0.5032
17333TIP3    H173414   4.947   2.781  13.357  3.9896  0.4062 -0.1752
17333TIP3    H273415   4.952   2.916  13.425  0.2718  1.0939 -1.0426
17334TIP3   OH273416   3.661   2.312   1.767 -0.0181  0.3330 -0.3588
17334TIP3    H173417   3.705   2.356   1.694 -0.4652 -0.9067 -1.4252
17334TIP3    H273418   3.586   2.268   1.726 -2.3591  2.3941  1.3583
17335TIP3   OH273419   5.622   3.423   3.345 -0.7317  0.0262  0.3528
17335TIP3    H173420   5.531   3.442   3.321 -0.9019 -0.9138  0.2344
17335TIP3    H273421   5.632   3.329   3.331  0.3734  0.1799  0.0038
17336TIP3   OH273422   3.883   0.875   0.926  0.0068 -0.2257  0.1484
17336TIP3    H173423   3.846   0.850   0.841 -0.8195 -1.0783  0.7330
17336TIP3    H273424   3.836   0.955   0.950 -2.5195 -1.9499  1.4548
17337TIP3   OH273425   3.434   0.361   2.137 -0.0308 -0.4876  0.2532
17337TIP3    H173426   3.383   0.364   2.218  0.4559 -1.0995  0.5901
17337TIP3    H273427   3.370   0.339   2.069 -0.4817  0.2579  0.4335
17338TIP3   OH273428   1.181   0.992  16.797  0.1697 -0.1242 -0.2435
17338TIP3    H173429   1.196   1.063  16.859 -0.6602  0.2837 -0.4980
17338TIP3    H273430   1.243   0.924  16.823  0.4036  0.3644  0.5103
17339TIP3   OH273431   1.113   2.331  13.808 -0.2320 -0.2818  0.2355
17339TIP3    H173432   1.093   2.239  13.825 -1.7540 -0.0598 -0.2375
17339TIP3    H273433   1.081   2.346  13.719 -0.2202  0.7708  0.4048
17340TIP3   OH273434   1.784   1.822  16.639  0.2471  0.2070 -0.0999
17340TIP3    H173435   1.700   1.793  16.673  0.9079 -1.1174  0.4672
17340TIP3    H273436   1.776   1.812  16.544  1.1759 -4.2143  0.0954
17341TIP3   OH273437   5.105   6.037  11.768 -0.3023 -0.4283  0.1145
17341TIP3    H173438   5.028   6.024  11.823  0.4161 -0.8949  1.0599
17341TIP3    H273439   5.142   5.949  11.758  0.3135 -0.1662  0.0049
17342TIP3   OH273440   0.343   3.899   0.592 -0.4360 -0.1460  0.6311
17342TIP3    H173441   0.286   3.951   0.535  1.7017  1.3304 -0.2742
17342TIP3    H273442   0.383   3.834   0.534  0.4325  0.2294  0.7945
17343TIP3   OH273443   4.098   4.245   1.133 -0.2973 -0.0400 -0.4447
17343TIP3    H173444   4.186   4.261   1.100  0.0348 -0.5813  0.1595
17343TIP3    H273445   4.070   4.164   1.090 -0.4236  0.0314 -0.4967
17344TIP3   OH273446   5.431   1.571   0.606 -0.1333 -0.0202  0.1200
17344TIP3    H173447   5.386   1.517   0.541 -0.0988 -0.3773  0.3885
17344TIP3    H273448   5.416   1.661   0.577 -1.4513 -0.1034  0.4824
17345TIP3   OH273449   3.203   4.112   1.585  0.0537 -0.0448  0.4154
17345TIP3    H173450   3.132   4.115   1.521  1.6613 -0.9700 -1.5200
17345TIP3    H273451   3.178   4.042   1.645 -0.2644 -0.9957 -0.7892
17346TIP3   OH273452   3.422   2.361  17.108 -0.1987  0.1810 -0.4188
17346TIP3    H173453   3.341   2.364  17.159 -0.0439  0.6898 -0.1937
17346TIP3    H273454   3.484   2.314  17.164 -1.3014 -3.5007 -2.0178
17347TIP3   OH273455   6.439   0.835  14.692  0.3301 -0.3775  0.3113
17347TIP3    H173456   6.437   0.739  14.681  1.1838 -0.3000 -0.7746
17347TIP3    H273457   6.513   0.851  14.751 -0.7951 -0.4613  1.7864
17348TIP3   OH273458   4.608   6.514  12.271 -0.1156  0.0183 -0.2553
17348TIP3    H173459   4.602   6.419  12.260 -0.8191 -0.0243  0.4581
17348TIP3    H273460   4.701   6.533  12.260 -0.0102 -0.7100 -0.7056
17349TIP3   OH273461   2.933   5.617  15.347  0.0773  0.6185  0.0788
17349TIP3    H173462   2.925   5.709  15.369  1.9421  0.9998 -0.6487
17349TIP3    H273463   2.845   5.591  15.322 -0.4521  2.2472  0.1285
17350TIP3   OH273464   3.143   1.200   3.424 -0.1059 -0.1526 -0.2278
17350TIP3    H173465   3.049   1.192   3.406 -0.4004 -0.6567  1.4016
17350TIP3    H273466   3.152   1.285   3.467  0.1332 -0.2460 -0.0909
17351TIP3   OH273467   0.115   3.421  12.133 -0.0937 -0.0113 -0.3936
17351TIP3    H173468   0.080   3.498  12.088 -0.9840  0.7613  1.5218
17351TIP3    H273469   0.042   3.359  12.135 -0.7516  0.7584  1.7010
17352TIP3   OH273470   1.894   2.763   4.615 -0.5189  0.1742 -0.5139
17352TIP3    H173471   1.809   2.807   4.613 -1.5981 -1.7230  0.3065
17352TIP3    H273472   1.901   2.729   4.705  1.3085  0.6304 -0.4508
17353TIP3   OH273473   0.018   1.635  16.224  0.1584 -0.0437  0.0002
17353TIP3    H173474   0.013   1.676  16.138 -0.8526 -0.4879 -0.1686
17353TIP3    H273475  -0.061   1.581  16.230  0.5801 -0.5928  0.9139
17354TIP3   OH273476   5.952   5.816  15.643  0.0879 -0.3716 -0.4220
17354TIP3    H173477   5.905   5.738  15.674  0.4186 -0.7462 -0.8462
17354TIP3    H273478   5.960   5.803  15.548  1.5283 -0.5876 -0.2890
17355TIP3   OH273479   0.676   3.414   1.222  0.1379 -1.0063  0.5418
17355TIP3    H173480   0.606   3.356   1.252  1.2312 -1.5558  2.2101
17355TIP3    H273481   0.694   3.470   1.298  2.5740 -1.9869  0.7712
17356TIP3   OH273482   2.507   6.667   4.965 -0.0650 -0.3275 -0.6254
17356TIP3    H173483   2.537   6.711   4.886 -0.9661  0.4747 -0.5344
17356TIP3    H273484   2.573   6.599   4.981  0.2152 -0.3846 -1.9525
17357TIP3   OH273485   4.105   2.410  13.687 -0.2100 -0.5596  0.0154
17357TIP3    H173486   4.101   2.324  13.645  0.6785 -0.6425  0.0852
17357TIP3    H273487   4.177   2.404  13.749  0.9348  0.7116 -1.1041
17358TIP3   OH273488   5.383   6.523  11.616 -0.0001 -0.2768  0.1738
17358TIP3    H173489   5.478   6.530  11.610  0.1422 -2.1227 -0.4944
17358TIP3    H273490   5.352   6.549  11.529 -0.0414 -0.5392  0.1102
17359TIP3   OH273491   4.949   3.466   1.422  0.8097  0.0196  0.1828
17359TIP3    H173492   4.914   3.422   1.345  1.2778  0.6441 -0.3933
17359TIP3    H273493   4.885   3.447   1.491  0.6926 -1.0509 -0.1940
17360TIP3   OH273494   5.537   2.961   3.024  0.5185  0.7592  0.1332
17360TIP3    H173495   5.467   2.943   2.961 -0.2911 -2.0840  1.6918
17360TIP3    H273496   5.615   2.970   2.971 -0.2894 -0.6411 -1.3664
17361TIP3   OH273497   0.378   1.810   0.662 -0.1397  0.0582  0.8101
17361TIP3    H173498   0.470   1.814   0.688 -0.3138 -1.5817  1.8657
17361TIP3    H273499   0.348   1.900   0.666  1.4133  0.6321  0.4370
17362TIP3   OH273500   3.494   0.044  15.934 -0.1597  0.0162 -0.0965
17362TIP3    H173501   3.566   0.066  15.874 -0.0471  0.8319  0.3244
17362TIP3    H273502   3.441   0.123  15.938 -2.0354 -1.0850 -1.6767
17363TIP3   OH273503   5.299   5.382   3.202 -0.0822 -0.0835 -0.6447
17363TIP3    H173504   5.360   5.378   3.128 -0.3605  0.3766 -0.9005
17363TIP3    H273505   5.319   5.465   3.245 -1.1201  0.4913 -1.2454
17364TIP3   OH273506   0.374   3.437  12.617  0.2864 -0.6735 -0.9332
17364TIP3    H173507   0.452   3.490  12.596  0.2222 -0.4440 -0.5898
17364TIP3    H273508   0.315   3.451  12.543 -1.2605  2.6330  0.7292
17365TIP3   OH273509   4.833   2.136  11.120 -0.2898 -0.3821  0.4383
17365TIP3    H173510   4.783   2.218  11.115  0.4612  0.0494 -0.3778
17365TIP3    H273511   4.839   2.106  11.029 -0.0504 -1.0317  0.6637
17366TIP3   OH273512   1.293   6.462  15.784 -0.1871 -0.9079 -0.0080
17366TIP3    H173513   1.241   6.436  15.861 -0.9418  0.0793 -0.1586
17366TIP3    H273514   1.259   6.549  15.761 -0.3130 -1.3850 -1.7507
17367TIP3   OH273515   2.550   0.984  11.835 -0.0551  0.4415 -0.0802
17367TIP3    H173516   2.458   0.960  11.848 -0.4827  1.9887 -0.1345
17367TIP3    H273517   2.598   0.926  11.894 -0.6839 -2.9149 -2.5085
17368TIP3   OH273518   6.406   2.824   3.264  0.4702 -0.1469 -0.1043
17368TIP3    H173519   6.333   2.763   3.266  0.0360  0.3737  0.5745
17368TIP3    H273520   6.482   2.771   3.240  0.0690 -0.9186  0.3077
17369TIP3   OH273521   2.386   3.729  12.843  0.2322 -0.1888 -0.3031
17369TIP3    H173522   2.296   3.762  12.848  0.4481  0.4209 -0.3460
17369TIP3    H273523   2.376   3.634  12.843 -0.5630 -0.1776 -2.6426
17370TIP3   OH273524   5.714   2.126  11.454  0.3612 -0.3561 -0.3365
17370TIP3    H173525   5.736   2.214  11.425 -2.9583  1.3445  1.6531
17370TIP3    H273526   5.633   2.105  11.407  0.2347 -1.6522  0.4194
17371TIP3   OH273527   2.892   0.729   2.741  0.0124  0.0954 -0.3903
17371TIP3    H173528   2.974   0.680   2.743 -0.0383  0.0258  0.0980
17371TIP3    H273529   2.824   0.665   2.762 -0.1557  0.1752 -0.6820
17372TIP3   OH273530   0.446   6.724  16.668 -0.2432 -0.0299  0.5245
17372TIP3    H173531   0.472   6.674  16.745  0.2870 -0.2392  0.2083
17372TIP3    H273532   0.354   6.700  16.655 -0.3357 -0.0080  1.0755
17373TIP3   OH273533   3.512   1.350  16.289  0.4654 -0.1159  0.3458
17373TIP3    H173534   3.532   1.318  16.201  0.8715  0.9259  0.0465
17373TIP3    H273535   3.569   1.299  16.347 -1.5203 -2.5577  0.3175
17374TIP3   OH273536   0.525   2.582   1.051  0.2130  0.1271  0.3147
17374TIP3    H173537   0.588   2.644   1.014  0.9924 -0.6596  0.2915
17374TIP3    H273538   0.480   2.547   0.974 -0.8098  1.2412  0.3751
17375TIP3   OH273539   5.701   1.524   6.272  0.2415  0.3218 -0.1992
17375TIP3    H173540   5.621   1.577   6.266 -0.4298 -0.5383  0.7350
17375TIP3    H273541   5.670   1.434   6.268  0.6576 -0.1855  3.9501
17376TIP3   OH273542   2.288   3.246   3.245 -0.2916 -0.1425  0.2865
17376TIP3    H173543   2.245   3.289   3.171 -0.3483 -3.2774 -1.7074
17376TIP3    H273544   2.380   3.271   3.238 -0.3015 -0.3817 -0.8438
17377TIP3   OH273545   3.656   3.757   2.014 -0.2801  0.3861  0.5529
17377TIP3    H173546   3.678   3.771   1.922 -1.5138 -0.8364  0.0363
17377TIP3    H273547   3.577   3.702   2.012  0.3733 -0.7214  2.3337
17378TIP3   OH273548   4.649   0.535  15.110  0.4469 -0.1745  0.0837
17378TIP3    H173549   4.596   0.504  15.036 -0.6910  0.5502  0.5682
17378TIP3    H273550   4.602   0.503  15.187  0.4605  0.8663  0.5343
17379TIP3   OH273551   2.909   4.031  14.775 -0.6059  0.1014 -0.1746
17379TIP3    H173552   2.971   4.060  14.842 -1.1551  1.1390 -0.0810
17379TIP3    H273553   2.883   4.112  14.730 -2.6974 -0.1465  0.4967
17380TIP3   OH273554   0.043   4.225   3.661 -0.2024 -0.4395 -0.3751
17380TIP3    H173555  -0.046   4.259   3.672 -0.4998 -1.3832  0.2378
17380TIP3    H273556   0.054   4.163   3.733  1.7288  1.2016  0.8616
17381TIP3   OH273557   5.091   5.749  14.063 -0.7102 -0.2121  0.0267
17381TIP3    H173558   5.164   5.692  14.040  0.8522  1.3001  0.9285
17381TIP3    H273559   5.085   5.810  13.989  3.2831  3.6542  2.3486
17382TIP3   OH273560   5.908   3.663  14.908 -0.3220 -0.2736  0.0688
17382TIP3    H173561   5.895   3.570  14.894  0.7748 -0.3411 -0.6555
17382TIP3    H273562   5.980   3.687  14.849 -0.0447  0.8594  0.8100
17383TIP3   OH273563   5.885   0.134  15.870 -0.1505 -0.2948 -0.0563
17383TIP3    H173564   5.827   0.191  15.820  0.3795 -0.8598 -1.3663
17383TIP3    H273565   5.966   0.130  15.818  0.3096 -1.1517  0.6880
17384TIP3   OH273566   1.207   1.407  16.168  0.4459  0.1189 -0.1956
17384TIP3    H173567   1.293   1.382  16.200  0.6306 -0.9729 -1.4327
17384TIP3    H273568   1.168   1.325  16.137 -0.9145  0.6388  0.0497
17385TIP3   OH273569   4.200   0.430   3.113 -0.0596  0.2346  0.3713
17385TIP3    H173570   4.202   0.499   3.179  0.7053  0.2515  0.3447
17385TIP3    H273571   4.273   0.451   3.054  0.2834 -0.6724  0.4455
17386TIP3   OH273572   1.329   1.870  13.146  0.0427 -0.6814 -0.7194
17386TIP3    H173573   1.353   1.780  13.124 -0.0708 -1.0492  0.5930
17386TIP3    H273574   1.353   1.880  13.238 -1.7871  0.0006 -0.2816
17387TIP3   OH273575   1.736   1.082  17.266  0.1353  0.2744  0.2861
17387TIP3    H173576   1.668   1.020  17.294  0.0175  0.6758  0.9186
17387TIP3    H273577   1.740   1.071  17.171 -1.9790  1.3905  0.0123
17388TIP3   OH273578   5.965   2.315   0.221 -0.3702  0.0664 -0.5529
17388TIP3    H173579   6.051   2.309   0.178 -0.7128 -0.1942 -1.2226
17388TIP3    H273580   5.930   2.399   0.189 -0.3301  0.2164 -0.2063
17389TIP3   OH273581   1.799   1.819  16.313  0.4401  0.5639 -0.7287
17389TIP3    H173582   1.865   1.761  16.276 -0.5936 -0.8726 -0.3864
17389TIP3    H273583   1.734   1.828  16.243 -0.6038 -0.6799  0.0420
17390TIP3   OH273584   3.746   6.356  14.810 -0.3874 -0.0774  0.6153
17390TIP3    H173585   3.728   6.310  14.892 -0.9296  0.5010  0.8279
17390TIP3    H273586   3.659   6.375  14.774 -0.1856 -2.3296 -1.2461
17391TIP3   OH273587   3.658   5.457   6.016 -0.1019 -0.1046 -0.2947
17391TIP3    H173588   3.631   5.491   6.101  0.8126  0.2904 -0.1532
17391TIP3    H273589   3.753   5.457   6.019 -0.0558 -2.0665 -0.5575
17392TIP3   OH273590   4.945   0.623   3.178  0.3259  0.0758  0.0443
17392TIP3    H173591   4.939   0.528   3.171  0.2971  0.1703 -1.6022
17392TIP3    H273592   4.929   0.642   3.270 -3.1265 -1.2642 -0.1262
17393TIP3   OH273593   2.243   2.984   5.734  0.0285  0.1028  0.2291
17393TIP3    H173594   2.299   2.954   5.663  0.2189  1.1040 -0.0603
17393TIP3    H273595   2.210   2.904   5.774  1.5553 -0.5141  0.3227
17394TIP3   OH273596   4.260   3.446  10.741 -0.6419 -0.4608 -0.0605
17394TIP3    H173597   4.203   3.371  10.722  0.9142 -1.7228  0.0795
17394TIP3    H273598   4.337   3.408  10.782  0.2318  1.2274 -0.0614
17395TIP3   OH273599   6.337   1.602   5.571 -0.5385  0.0696  0.1732
17395TIP3    H173600   6.359   1.509   5.571  2.6545  0.6865 -1.4831
17395TIP3    H273601   6.371   1.634   5.654 -2.1896 -0.2612  1.0274
17396TIP3   OH273602   2.417   3.147  16.212 -0.2165 -0.0494 -0.3434
17396TIP3    H173603   2.448   3.061  16.182  0.4189  0.0693 -0.0259
17396TIP3    H273604   2.452   3.155  16.301  1.1408  1.2650 -0.9672
17397TIP3   OH273605   2.574   2.813   4.057  0.7320 -0.9994 -0.4816
17397TIP3    H173606   2.514   2.830   3.984 -0.9856 -1.2740  0.7886
17397TIP3    H273607   2.600   2.722   4.045 -2.8642 -2.4757  1.3767
17398TIP3   OH273608   1.398   2.580   4.141  0.1555 -0.3722  0.1740
17398TIP3    H173609   1.469   2.538   4.189  0.3694  2.3157  2.4448
17398TIP3    H273610   1.442   2.641   4.081 -0.2138  0.1143  0.3976
17399TIP3   OH273611   5.631   3.883  17.036  0.3427 -0.3868 -0.1961
17399TIP3    H173612   5.691   3.906  17.108  0.3912 -0.9757 -0.0356
17399TIP3    H273613   5.667   3.927  16.960 -0.8581  1.9631  0.5132
17400TIP3   OH273614   3.135   0.222   2.646 -0.0496  0.3580 -0.0471
17400TIP3    H173615   3.219   0.176   2.635 -0.4962 -0.0159 -2.1534
17400TIP3    H273616   3.156   0.295   2.704  1.2273 -1.0048  1.3181
17401TIP3   OH273617   6.488   1.797   1.098 -0.4389 -0.4028  0.5287
17401TIP3    H173618   6.484   1.764   1.188 -0.8735 -1.8211  0.0106
17401TIP3    H273619   6.492   1.893   1.108 -0.7323 -0.5212  2.0409
17402TIP3   OH273620   0.860   1.204  10.859 -0.0161  0.4350  0.1627
17402TIP3    H173621   0.797   1.152  10.809  1.0454 -1.0027  0.2718
17402TIP3    H273622   0.946   1.177  10.826  0.5868  2.0145  0.3373
17403TIP3   OH273623   0.640   1.363  11.922 -0.6111 -0.1807  0.1212
17403TIP3    H173624   0.546   1.355  11.935 -0.9067  0.8431 -1.1385
17403TIP3    H273625   0.659   1.310  11.845 -0.1483 -0.3896  0.3710
17404TIP3   OH273626   0.313   2.291   2.099  0.6360 -0.6353 -0.3449
17404TIP3    H173627   0.255   2.259   2.030 -0.3942  1.1120 -0.3385
17404TIP3    H273628   0.402   2.277   2.065  0.1904 -1.6755 -1.1195
17405TIP3   OH273629   6.641   1.329  17.260 -0.1245  0.1843  0.3611
17405TIP3    H173630   6.658   1.272  17.335 -0.2287 -1.9133 -1.1342
17405TIP3    H273631   6.547   1.319  17.242 -0.4212  1.8278  0.8100
17406TIP3   OH273632   4.350   2.002  15.748  0.6282 -0.1499  0.1065
17406TIP3    H173633   4.378   1.954  15.670 -1.3664  0.1935 -0.8948
17406TIP3    H273634   4.256   2.017  15.734  0.6625  1.7964  1.5997
17407TIP3   OH273635   6.586   1.397   2.375 -0.2257 -0.1051 -0.4281
17407TIP3    H173636   6.599   1.372   2.466 -1.4812 -0.9594 -0.4518
17407TIP3    H273637   6.593   1.316   2.325 -3.1165 -0.3377 -0.6449
17408TIP3   OH273638   6.620   2.461  11.487  0.0967  0.6596  0.7485
17408TIP3    H173639   6.546   2.415  11.448  3.3296 -4.1431 -0.5268
17408TIP3    H273640   6.609   2.447  11.582 -0.5793 -0.1442  0.5653
17409TIP3   OH273641   3.825   5.843   4.191 -0.4350  0.1777  0.1448
17409TIP3    H173642   3.836   5.938   4.193 -1.4244  0.3834 -1.6532
17409TIP3    H273643   3.752   5.829   4.130 -1.1175 -1.6843  1.2899
17410TIP3   OH273644   2.108   0.811   3.433  0.0130  0.0084  0.0973
17410TIP3    H173645   2.191   0.797   3.478  1.0402 -0.2547 -1.7436
17410TIP3    H273646   2.069   0.886   3.478  0.1532 -1.2244  2.4115
17411TIP3   OH273647   5.743   0.683  11.363  0.1507  0.3639  0.3896
17411TIP3    H173648   5.703   0.699  11.278 -1.3665  0.2512  1.0564
17411TIP3    H273649   5.765   0.589  11.362  2.0925  0.7773 -0.6405
17412TIP3   OH273650   2.636   1.993   5.725  0.6018 -0.6595  0.6227
17412TIP3    H173651   2.698   1.965   5.657  1.8079 -0.5277  1.6264
17412TIP3    H273652   2.654   2.086   5.737 -1.2699 -0.1053 -0.5292
17413TIP3   OH273653   3.197   3.298  14.369  0.4922 -0.1304  0.9236
17413TIP3    H173654   3.120   3.250  14.336  0.4062  0.4402  0.2602
17413TIP3    H273655   3.189   3.294  14.464  0.3816 -1.2518  0.8771
17414TIP3   OH273656   5.609   5.486  11.649  0.3751 -0.8017 -0.9404
17414TIP3    H173657   5.597   5.581  11.657 -1.8785 -0.9083 -2.1617
17414TIP3    H273658   5.575   5.451  11.731  0.8833 -0.5843 -0.6319
17415TIP3   OH273659   5.504   4.306   2.186  0.0223 -0.0019 -0.3649
17415TIP3    H173660   5.446   4.283   2.114  0.9505 -0.6755 -0.9188
17415TIP3    H273661   5.544   4.224   2.213 -0.0659  0.2891  0.7224
17416TIP3   OH273662   1.362   4.673  16.447  0.1004  0.1792  0.0217
17416TIP3    H173663   1.354   4.615  16.371  1.1063 -1.6097  1.2123
17416TIP3    H273664   1.355   4.614  16.522 -0.9107  1.9062  1.3537
17417TIP3   OH273665   4.116   3.860   6.004  0.6585 -0.1055 -0.3355
17417TIP3    H173666   4.200   3.837   6.045 -1.1392 -0.4291  3.6254
17417TIP3    H273667   4.072   3.776   5.990  0.0584  0.1727 -0.1356
17418TIP3   OH273668   1.168   4.946  14.816 -0.1763  0.8658  0.0481
17418TIP3    H173669   1.073   4.956  14.817 -0.2501  0.3262  1.6104
17418TIP3    H273670   1.200   5.017  14.872  0.2936  0.6404  0.0698
17419TIP3   OH273671   5.242   5.600  12.580 -0.4896 -0.7358  0.1068
17419TIP3    H173672   5.288   5.551  12.647 -1.4423 -0.5844  0.8978
17419TIP3    H273673   5.276   5.566  12.497  1.8970  0.2236  0.6343
17420TIP3   OH273674   1.022   4.821   2.277  0.2496  0.0244  0.4926
17420TIP3    H173675   1.067   4.868   2.207 -1.1211  0.2638 -0.2817
17420TIP3    H273676   1.072   4.840   2.356  1.1354  0.7566 -0.2289
17421TIP3   OH273677   6.026   0.967   0.411 -0.0542  0.1204  0.0539
17421TIP3    H173678   5.958   0.964   0.343  0.3864  0.6025 -0.4114
17421TIP3    H273679   6.108   0.971   0.362  0.2778  0.2370  0.6201
17422TIP3   OH273680   1.542   3.053   3.609 -0.4103  0.0381 -0.4331
17422TIP3    H173681   1.497   3.071   3.692  0.3304 -0.4875  0.0889
17422TIP3    H273682   1.621   3.106   3.612  0.4084 -1.1744 -0.0942
17423TIP3   OH273683   4.075   2.850  14.054 -0.1832 -0.0145 -0.1604
17423TIP3    H173684   4.058   2.774  13.998 -0.9157  0.6429 -0.8482
17423TIP3    H273685   4.062   2.817  14.143 -2.2763 -0.2917 -0.5070
17424TIP3   OH273686   6.513   2.293   4.342  0.2342  0.2534  0.0465
17424TIP3    H173687   6.500   2.382   4.310 -0.0761  0.3075  0.3173
17424TIP3    H273688   6.603   2.291   4.374  0.6560  0.1199 -1.0840
17425TIP3   OH273689   5.298   5.697  14.861 -0.0999  0.2727 -0.2659
17425TIP3    H173690   5.327   5.778  14.819  0.3656  0.0532 -0.3807
17425TIP3    H273691   5.341   5.698  14.947 -2.9748  1.9335  1.3112
17426TIP3   OH273692   2.582   4.165  15.367 -0.7134  0.7748  0.3683
17426TIP3    H173693   2.642   4.195  15.435  0.7746 -0.8017 -0.1884
17426TIP3    H273694   2.638   4.121  15.303 -2.4210 -0.5218 -0.3129
17427TIP3   OH273695   0.149   3.109  14.376  1.4289  0.1096 -0.6249
17427TIP3    H173696   0.190   3.193  14.357  3.0402 -0.1951  1.2411
17427TIP3    H273697   0.080   3.130  14.440 -0.5543  0.4127 -2.7013
17428TIP3   OH273698   4.490   2.173   0.173  0.2392 -0.1084  0.5895
17428TIP3    H173699   4.550   2.115   0.220 -0.0894 -1.6712 -0.8161
17428TIP3    H273700   4.406   2.127   0.173 -0.0742  0.4199 -0.4277
17429TIP3   OH273701   1.483   2.038   1.038 -0.3565 -1.0233 -0.0711
17429TIP3    H173702   1.482   1.992   0.953 -2.1578 -0.1515 -0.5652
17429TIP3    H273703   1.441   1.976   1.098  0.3087 -1.3671  0.0537
17430TIP3   OH273704   4.027   0.896  11.416  0.1128 -0.3279  1.1670
17430TIP3    H173705   3.974   0.945  11.479 -1.4095 -0.3611 -0.0329
17430TIP3    H273706   3.968   0.879  11.343  1.7649 -0.4535 -0.2052
17431TIP3   OH273707   0.534   0.382   4.448  0.7526 -0.3600  0.1566
17431TIP3    H173708   0.591   0.395   4.524 -0.0696  1.6685  0.4686
17431TIP3    H273709   0.445   0.388   4.483  0.3405 -1.2889 -0.6804
17432TIP3   OH273710   6.547   6.027  16.359 -0.2559  0.9346  0.4848
17432TIP3    H173711   6.588   6.065  16.437 -1.3066  2.2536  0.4310
17432TIP3    H273712   6.478   5.971  16.394 -0.0131  0.6533  0.5180
17433TIP3   OH273713   6.302   3.701  14.343 -0.2696 -0.1271 -0.0720
17433TIP3    H173714   6.319   3.748  14.261 -0.8488  1.4621  0.6743
17433TIP3    H273715   6.289   3.610  14.317 -0.3269  0.3286 -1.7243
17434TIP3   OH273716   1.661   4.310   4.481  0.1381 -0.0288  0.3887
17434TIP3    H173717   1.632   4.349   4.399 -0.2696  2.2867  1.5409
17434TIP3    H273718   1.590   4.252   4.507 -0.5481  0.6095 -0.0289
17435TIP3   OH273719   2.213   6.627  14.073 -0.4329  0.2042  0.1548
17435TIP3    H173720   2.230   6.668  13.988 -2.5377 -0.6892 -0.7703
17435TIP3    H273721   2.285   6.565  14.084  0.8253  1.5652 -0.0977
17436TIP3   OH273722   1.069   1.135  16.583 -0.8033 -0.3456  0.4565
17436TIP3    H173723   1.088   1.228  16.596 -1.2322 -0.1991  0.0393
17436TIP3    H273724   1.115   1.091  16.655  0.2469  0.0915  0.0714
17437TIP3   OH273725   5.535   2.124  12.920 -0.1760  0.3381 -0.3292
17437TIP3    H173726   5.573   2.051  12.969 -0.1416  0.7743  0.3093
17437TIP3    H273727   5.440   2.109  12.924 -0.1625  0.2538 -0.3236
17438TIP3   OH273728   3.050   4.051  12.585 -0.7966  0.0910 -0.2742
17438TIP3    H173729   2.995   4.000  12.645  1.2558 -1.5493  0.3007
17438TIP3    H273730   3.140   4.028  12.608  0.3104  3.8835 -0.0719
17439TIP3   OH273731   0.787   0.045  17.300 -0.4571 -0.0462  0.1681
17439TIP3    H173732   0.819  -0.043  17.321 -2.2187 -0.7682  0.0120
17439TIP3    H273733   0.799   0.095  17.382  2.2189  0.1649 -0.2470
17440TIP3   OH273734   5.992   2.414  14.055  0.0791 -0.3208  0.1742
17440TIP3    H173735   6.073   2.419  14.005 -0.4846  1.9584 -0.6282
17440TIP3    H273736   6.005   2.474  14.129 -0.8994  0.1866 -0.0472
17441TIP3   OH273737   4.950   6.078  12.935  0.6856  0.2273 -0.0617
17441TIP3    H173738   4.877   6.017  12.935 -0.9898  2.1103 -1.0791
17441TIP3    H273739   5.027   6.025  12.957 -1.0217 -1.7458  1.4536
17442TIP3   OH273740   4.209   6.397  16.441  0.0257  0.2465  0.2671
17442TIP3    H173741   4.197   6.335  16.514  0.0290 -0.8704 -0.6518
17442TIP3    H273742   4.297   6.378  16.409  0.3836  1.3741  0.5362
17443TIP3   OH273743   0.572   0.874  17.276 -0.1830  0.1136 -0.8620
17443TIP3    H173744   0.507   0.829  17.329 -0.3888  0.2607 -0.9871
17443TIP3    H273745   0.538   0.869  17.186  0.1108 -0.0443 -0.9658
17444TIP3   OH273746   4.699   5.709   4.096  0.1842  0.2577  0.4495
17444TIP3    H173747   4.788   5.723   4.063 -0.0980  0.7895 -0.0914
17444TIP3    H273748   4.672   5.626   4.057 -0.1047  0.8246 -0.5806
17445TIP3   OH273749   2.251   4.308   4.412 -0.1039 -0.2164 -0.0585
17445TIP3    H173750   2.257   4.392   4.458  0.1922  0.3643 -1.1270
17445TIP3    H273751   2.333   4.263   4.433  0.4245  0.4194 -0.7154
17446TIP3   OH273752   5.782   5.710  14.849 -0.1750 -0.3246 -0.2755
17446TIP3    H173753   5.864   5.681  14.810  0.7356 -2.0926  2.6460
17446TIP3    H273754   5.798   5.802  14.872 -0.0240  0.1305 -2.0117
17447TIP3   OH273755   2.575   4.471   0.154  0.9285 -0.0120 -0.1163
17447TIP3    H173756   2.485   4.447   0.175  0.2958  1.3189 -1.1315
17447TIP3    H273757   2.628   4.421   0.215 -0.5804  0.3894  1.6309
17448TIP3   OH273758   5.889   0.436   1.608 -0.5878 -0.3888  0.1906
17448TIP3    H173759   5.851   0.502   1.549 -0.8586 -0.5040  0.2339
17448TIP3    H273760   5.814   0.385   1.638 -0.4753 -0.2033  0.7986
17449TIP3   OH273761   2.151   1.463   4.840  0.8607 -0.2087 -0.0388
17449TIP3    H173762   2.141   1.487   4.747 -0.5104  0.9006  0.3666
17449TIP3    H273763   2.162   1.368   4.838 -1.6350 -0.5637 -1.2347
17450TIP3   OH273764   6.042   3.834   2.228  0.2938  0.4628  0.6495
17450TIP3    H173765   6.025   3.922   2.196  0.5518 -0.2859 -1.7523
17450TIP3    H273766   5.955   3.798   2.247  0.0999  0.7736  0.3512
17451TIP3   OH273767   4.483   2.927   5.750  0.3266 -0.5926 -0.1478
17451TIP3    H173768   4.446   2.989   5.687  3.2171  2.3329  0.7927
17451TIP3    H273769   4.455   2.959   5.835  2.4616 -0.0559  0.4038
17452TIP3   OH273770   3.246   0.782   3.454 -0.3991  0.1911  0.1731
17452TIP3    H173771   3.325   0.742   3.491  0.3742  1.3856 -0.1219
17452TIP3    H273772   3.240   0.868   3.497 -1.4158  0.2080  0.0266
17453TIP3   OH273773   1.825   0.919  10.978  0.3671 -0.4279  0.1142
17453TIP3    H173774   1.787   1.006  10.985  0.5283 -0.3836  0.4378
17453TIP3    H273775   1.750   0.861  10.965 -0.1549 -0.6983  3.5221
17454TIP3   OH273776   0.735   4.337   5.294  0.2793  0.7530 -0.3013
17454TIP3    H173777   0.741   4.381   5.379  0.8514  1.2966 -0.6152
17454TIP3    H273778   0.759   4.246   5.313  0.5682  0.9050  0.0995
17455TIP3   OH273779   1.008   1.393   1.951 -0.4000  0.8070  0.1057
17455TIP3    H173780   0.943   1.339   1.997 -0.5964 -0.3097 -1.4104
17455TIP3    H273781   1.086   1.337   1.946 -0.1843  1.1490 -0.3674
17456TIP3   OH273782   4.648   6.718   4.185  0.0462  0.7116 -0.5943
17456TIP3    H173783   4.567   6.769   4.197  0.2172  1.3652 -1.9480
17456TIP3    H273784   4.622   6.648   4.125 -0.0445 -0.4886  0.8050
17457TIP3   OH273785   5.094   2.245   1.199 -0.5090  0.0246  0.2287
17457TIP3    H173786   5.090   2.174   1.263  4.4757 -0.2068  0.7429
17457TIP3    H273787   5.101   2.201   1.115 -2.1671  0.1668 -0.0129
17458TIP3   OH273788   6.623   5.672   3.103  0.0064  0.0462  0.0269
17458TIP3    H173789   6.558   5.733   3.139 -0.6452  0.2553 -1.4312
17458TIP3    H273790   6.701   5.726   3.089  0.0134  0.1335  0.3863
17459TIP3   OH273791   1.450   0.048   2.212 -0.2797  0.1786 -0.3688
17459TIP3    H173792   1.445   0.088   2.299  0.2706 -0.8646  0.1672
17459TIP3    H273793   1.402  -0.034   2.221 -2.1237  1.0591 -1.6829
17460TIP3   OH273794   5.442   0.276  16.803  0.3648 -0.7538  0.5808
17460TIP3    H173795   5.465   0.315  16.719  0.3862 -0.6347  0.6411
17460TIP3    H273796   5.514   0.301  16.861 -0.3848  0.4415  1.0255
17461TIP3   OH273797   3.795   3.501  15.429  0.0353  0.3636 -0.8612
17461TIP3    H173798   3.708   3.535  15.404  0.7860  1.5255 -2.0432
17461TIP3    H273799   3.846   3.506  15.348  1.9788  2.2808  0.3762
17462TIP3   OH273800   1.711   1.840   4.475 -0.0862  0.2522  0.4812
17462TIP3    H173801   1.694   1.911   4.537 -2.0127  1.3491 -1.2051
17462TIP3    H273802   1.753   1.883   4.401 -2.1973 -0.0879 -0.9998
17463TIP3   OH273803   0.596   5.111  16.991 -1.0385 -0.6915  0.0966
17463TIP3    H173804   0.681   5.069  17.007 -1.3032 -1.3395 -0.1572
17463TIP3    H273805   0.602   5.195  17.036 -0.5691 -1.0817  0.7801
17464TIP3   OH273806   0.476   3.392   2.057  0.3021 -0.3308 -0.1486
17464TIP3    H173807   0.509   3.326   1.996 -0.5213 -1.5009  0.6435
17464TIP3    H273808   0.448   3.342   2.133 -2.5849  0.6572 -0.4639
17465TIP3   OH273809   5.995   5.851   3.374  0.3072  0.8992 -0.1971
17465TIP3    H173810   6.005   5.814   3.286 -1.4709 -1.4032  0.4881
17465TIP3    H273811   6.043   5.792   3.431 -1.2908  0.4351  0.7407
17466TIP3   OH273812   1.977   2.657  16.796 -0.1282 -0.0178  0.1456
17466TIP3    H173813   2.009   2.741  16.831  0.7107 -0.8859  1.5551
17466TIP3    H273814   1.948   2.678  16.707  1.7967  1.4046 -0.2161
17467TIP3   OH273815   2.932   0.056   2.988  0.2076 -0.2617  0.3517
17467TIP3    H173816   2.880  -0.021   3.010 -0.1570  0.1057  0.7828
17467TIP3    H273817   2.908   0.076   2.897  0.8146 -1.0567  0.0032
17468TIP3   OH273818   0.181   4.624  14.428  0.2759 -0.0103  0.0781
17468TIP3    H173819   0.233   4.616  14.508 -3.8651 -0.8204  3.0618
17468TIP3    H273820   0.209   4.550  14.374  4.4829  1.5892 -0.3126
17469TIP3   OH273821   4.449   0.337  13.343  0.6625 -0.3790  0.0901
17469TIP3    H173822   4.428   0.274  13.411  0.3973  0.1610  0.5118
17469TIP3    H273823   4.506   0.289  13.283 -1.0626 -1.6322 -0.6475
17470TIP3   OH273824   6.048   3.452   3.273 -0.5998  0.3926  0.0287
17470TIP3    H173825   5.969   3.505   3.261 -0.3888  1.1324  1.6467
17470TIP3    H273826   6.120   3.515   3.269 -0.2244 -0.0006  0.4217
17471TIP3   OH273827   2.303   4.560  12.591 -0.5436 -0.2757  0.2255
17471TIP3    H173828   2.249   4.499  12.641  0.2557 -1.0212  0.2042
17471TIP3    H273829   2.303   4.524  12.502 -0.7830  0.2511  0.0085
17472TIP3   OH273830   3.579   6.735  17.308  0.5523 -0.3239  0.3576
17472TIP3    H173831   3.551   6.692  17.388 -0.7322 -1.2119 -0.5299
17472TIP3    H273832   3.648   6.795  17.336 -0.5820  0.1900  2.3042
17473TIP3   OH273833   2.029   3.910   4.051  0.1837  0.0987  0.6365
17473TIP3    H173834   2.014   3.974   3.981  0.3694 -2.0162 -1.4751
17473TIP3    H273835   2.100   3.948   4.103 -0.0024  1.8007 -0.2613
17474TIP3   OH273836   1.283   2.174   2.752 -0.0419  0.1885 -0.0598
17474TIP3    H173837   1.298   2.269   2.743 -1.5466  0.6128  1.5186
17474TIP3    H273838   1.191   2.167   2.777 -0.7499 -1.8872 -2.8194
17475TIP3   OH273839   0.043   5.759  17.215 -0.2011 -0.3091  0.2219
17475TIP3    H173840   0.022   5.805  17.134  0.9586 -0.0254  0.0612
17475TIP3    H273841   0.134   5.785  17.234  0.0845 -1.6235  0.7490
17476TIP3   OH273842   0.447   6.539   5.272 -0.6265 -0.1210  0.1287
17476TIP3    H173843   0.451   6.483   5.350  2.4395  0.4820  0.5564
17476TIP3    H273844   0.407   6.485   5.205 -2.3140 -1.0592  1.7831
17477TIP3   OH273845   5.723   6.272  14.020  0.7046 -0.4199  0.4950
17477TIP3    H173846   5.685   6.350  13.978 -0.0500 -1.5050 -0.9556
17477TIP3    H273847   5.816   6.275  13.996  0.9878  0.7318  1.6237
17478TIP3   OH273848   3.965   5.983  17.072  0.8385 -0.1140  0.0917
17478TIP3    H173849   4.023   5.907  17.067 -0.0698 -0.7689 -1.0896
17478TIP3    H273850   4.012   6.046  17.126  2.2612 -0.9539 -0.1161
17479TIP3   OH273851   5.363   4.292  14.000 -0.1244 -0.0293  0.1169
17479TIP3    H173852   5.445   4.339  13.985  1.4819 -1.8599  2.4420
17479TIP3    H273853   5.302   4.359  14.029 -0.0138  1.6215 -3.0316
17480TIP3   OH273854   0.769   1.487  15.018 -0.4816  0.2975 -0.0688
17480TIP3    H173855   0.811   1.411  14.977 -2.5563  1.4296 -5.0260
17480TIP3    H273856   0.687   1.452  15.053 -1.8199  0.0830 -3.0421
17481TIP3   OH273857   1.979   0.229   4.879  0.1791  0.3297  0.2325
17481TIP3    H173858   1.992   0.167   4.952 -0.9671 -1.1910 -0.7833
17481TIP3    H273859   1.929   0.179   4.815  0.5481  1.8697 -1.3079
17482TIP3   OH273860   4.347   0.632   1.951 -0.5176  0.6621  0.4485
17482TIP3    H173861   4.375   0.556   2.002  0.7247  0.5457 -0.3630
17482TIP3    H273862   4.252   0.622   1.943 -0.4216 -0.5778  0.7066
17483TIP3   OH273863   1.045   1.970  16.782 -0.0408 -0.0297 -0.0493
17483TIP3    H173864   1.008   1.974  16.870 -0.0855  2.0025 -0.1204
17483TIP3    H273865   1.115   1.905  16.789 -0.9029 -0.8783  1.1254
17484TIP3   OH273866   4.899   3.971   2.875  0.2191  0.7097 -0.3067
17484TIP3    H173867   4.841   4.018   2.815 -0.0845 -0.8312 -1.2694
17484TIP3    H273868   4.845   3.898   2.908  0.5636  1.1774  1.4154
17485TIP3   OH273869   2.839   5.228   0.284 -0.4304  0.0200  0.0654
17485TIP3    H173870   2.865   5.139   0.309 -2.1439 -0.1703  1.3461
17485TIP3    H273871   2.902   5.254   0.217  1.6069 -1.2398  1.3863
17486TIP3   OH273872   3.057   1.139   1.207  0.4207  0.6157 -0.0905
17486TIP3    H173873   3.029   1.133   1.116 -0.3219  1.8628  0.0290
17486TIP3    H273874   3.073   1.048   1.234 -0.7484  0.1091 -1.0343
17487TIP3   OH273875   6.547   0.971  12.688  0.3451  0.3114 -0.9915
17487TIP3    H173876   6.611   1.043  12.685  1.0621 -0.3486 -2.0049
17487TIP3    H273877   6.569   0.916  12.613 -0.4747 -0.7443 -0.4815
17488TIP3   OH273878   0.946   3.034  15.406  0.3417 -0.2135 -0.1862
17488TIP3    H173879   0.931   3.066  15.317  1.4960 -0.6831 -0.5701
17488TIP3    H273880   0.879   2.967  15.420 -0.3910  0.4712 -0.3709
17489TIP3   OH273881   1.756   1.822   6.735 -0.1518  0.0590 -0.3534
17489TIP3    H173882   1.689   1.756   6.716 -2.4300  1.5364  1.8110
17489TIP3    H273883   1.716   1.878   6.802  3.4335  0.8624  1.3765
17490TIP3   OH273884   2.904   3.965  11.808  0.5781 -0.3863  0.1213
17490TIP3    H173885   2.963   4.011  11.867  0.3927  2.6663 -1.8403
17490TIP3    H273886   2.878   4.031  11.744 -0.9349 -2.9261 -2.0991
17491TIP3   OH273887   5.738   2.860  11.771  0.3511  0.1378  0.3472
17491TIP3    H173888   5.689   2.791  11.816 -0.0166 -1.4684 -2.2789
17491TIP3    H273889   5.714   2.940  11.816 -0.5500 -1.2326  2.4566
17492TIP3   OH273890   2.972   6.439  16.068  0.1575  0.0192 -0.3125
17492TIP3    H173891   2.903   6.500  16.044 -0.5383 -0.9190 -0.7355
17492TIP3    H273892   3.017   6.482  16.141 -0.2380  1.0829 -0.6824
17493TIP3   OH273893   5.459   2.049   3.764  0.1486 -0.1673  0.0666
17493TIP3    H173894   5.500   2.135   3.767  2.9063 -1.3835 -0.0149
17493TIP3    H273895   5.406   2.051   3.684  1.4040  0.9467 -0.7691
17494TIP3   OH273896   0.195   0.825   2.453  0.5722 -0.1677 -0.4047
17494TIP3    H173897   0.286   0.848   2.435  0.3618  1.0782  0.0591
17494TIP3    H273898   0.153   0.907   2.478 -1.1803 -0.3274 -2.5102
17495TIP3   OH273899   4.103   3.641  13.135  0.4714  0.1937 -0.1976
17495TIP3    H173900   4.134   3.725  13.169 -1.0377 -0.0523  2.0170
17495TIP3    H273901   4.070   3.595  13.212  0.2761 -2.0184 -1.5136
17496TIP3   OH273902   4.069   1.601  16.416  0.0002  0.4827 -0.6249
17496TIP3    H173903   4.076   1.617  16.510 -0.5056 -1.8694 -0.1213
17496TIP3    H273904   3.980   1.630  16.393  0.8015  2.9724 -0.8758
17497TIP3   OH273905   4.859   5.017   4.291  0.3724 -0.3841 -0.5784
17497TIP3    H173906   4.804   4.959   4.238 -1.0373 -0.9597  1.3862
17497TIP3    H273907   4.948   4.984   4.279  0.0252 -0.7976 -2.1528
17498TIP3   OH273908   6.178   5.028   5.397 -0.3330 -0.4667  0.3671
17498TIP3    H173909   6.205   5.080   5.473 -0.5545 -0.3232  0.3507
17498TIP3    H273910   6.098   4.984   5.426  0.0674 -1.1172  0.5164
17499TIP3   OH273911   5.813   2.857   2.109 -0.2133 -0.2635 -0.3724
17499TIP3    H173912   5.874   2.790   2.141  0.1870  0.2514 -0.0386
17499TIP3    H273913   5.824   2.855   2.014 -0.9029 -1.3195 -0.4442
17500TIP3   OH273914   2.269   0.101  14.232 -0.0597 -0.1748  0.2326
17500TIP3    H173915   2.321   0.023  14.212  0.5226  0.1399  0.4972
17500TIP3    H273916   2.261   0.101  14.327  2.3846  1.5911  0.5310
17501TIP3   OH273917   2.875   1.626  11.347  0.1329  0.4429  0.0841
17501TIP3    H173918   2.884   1.677  11.427 -0.6761 -0.2812  0.6551
17501TIP3    H273919   2.783   1.638  11.321 -0.2916 -1.2939  0.6515
17502TIP3   OH273920   6.151   4.429  16.420  0.6272  0.0040 -0.0638
17502TIP3    H173921   6.064   4.451  16.453  0.6182 -0.3589  0.1626
17502TIP3    H273922   6.169   4.495  16.353 -0.4236 -0.7798 -1.1481
17503TIP3   OH273923   1.076   5.624  16.083  0.0107  0.1821 -0.5702
17503TIP3    H173924   1.090   5.529  16.083  1.4994  0.2304  3.2289
17503TIP3    H273925   1.005   5.638  16.145  1.5759  1.6226  1.0120
17504TIP3   OH273926   6.038   1.264  13.663 -0.7046  0.5737 -0.6402
17504TIP3    H173927   6.122   1.274  13.708 -1.2028 -1.2247  0.8458
17504TIP3    H273928   5.996   1.350  13.669  1.4183  1.8250 -2.3792
17505TIP3   OH273929   2.156   5.899   6.852  0.0419 -0.0772 -0.1894
17505TIP3    H173930   2.179   5.931   6.765  1.9193 -1.7963 -0.3891
17505TIP3    H273931   2.168   5.974   6.910  3.2831 -0.0125 -0.7765
17506TIP3   OH273932   0.510   1.218   2.920 -0.3200  0.2515 -0.1501
17506TIP3    H173933   0.445   1.273   2.876 -0.4140  1.0708  0.9554
17506TIP3    H273934   0.547   1.164   2.850 -1.2210  0.7292 -1.0316
17507TIP3   OH273935   4.073   2.763  10.700 -0.1138  0.1757 -0.1273
17507TIP3    H173936   4.101   2.694  10.640  2.4444  0.0068  1.1371
17507TIP3    H273937   3.985   2.737  10.727  0.0120 -1.5263 -1.1807
17508TIP3   OH273938   2.916   1.684  15.424 -0.2392 -0.7348 -0.4541
17508TIP3    H173939   3.001   1.726  15.430 -0.4657 -0.1815 -1.0248
17508TIP3    H273940   2.892   1.664  15.514 -0.1628  0.4440 -0.1609
17509TIP3   OH273941   5.151   1.205  17.216  0.3088 -1.0144 -0.3255
17509TIP3    H173942   5.187   1.152  17.288  0.2147 -0.9270 -0.2151
17509TIP3    H273943   5.116   1.140  17.155  0.9215 -1.1132 -0.5743
17510TIP3   OH273944   5.885   2.203  13.918 -0.1207 -0.9789 -0.1861
17510TIP3    H173945   5.900   2.235  13.829  1.2367 -0.6552  0.1356
17510TIP3    H273946   5.918   2.273  13.975 -0.1797 -1.5383  0.5556
17511TIP3   OH273947   3.226   4.645  12.767  0.3739  0.0580 -0.3985
17511TIP3    H173948   3.307   4.625  12.722  0.6643 -1.2814  0.6737
17511TIP3    H273949   3.177   4.563  12.768 -0.2760  0.4352  0.4054
17512TIP3   OH273950   4.893   0.006  16.263 -0.1486 -0.1287 -0.3259
17512TIP3    H173951   4.812   0.056  16.275 -1.2622 -1.9712  0.3977
17512TIP3    H273952   4.958   0.052  16.315 -1.1712  0.4432  0.4767
17513TIP3   OH273953   5.653   6.174   2.475  0.3250  0.2031  0.1541
17513TIP3    H173954   5.691   6.246   2.525  2.0815  0.2965 -1.2164
17513TIP3    H273955   5.608   6.120   2.540  1.4667  0.9755  1.6375
17514TIP3   OH273956   0.980   1.331  12.433  0.0644 -0.0591 -0.2380
17514TIP3    H173957   0.966   1.299  12.344  0.3987  1.1478 -0.7521
17514TIP3    H273958   1.069   1.367  12.432 -0.3964  1.1445  0.1959
17515TIP3   OH273959   3.395   5.917   1.683 -0.5890  0.3822 -0.1282
17515TIP3    H173960   3.301   5.934   1.693 -0.2632  2.0955  0.4449
17515TIP3    H273961   3.411   5.925   1.589 -1.1873 -1.0708 -0.3774
17516TIP3   OH273962   5.213   3.513  10.754 -0.0896 -0.7012 -0.1205
17516TIP3    H173963   5.271   3.589  10.760 -0.2102 -0.6254  0.0908
17516TIP3    H273964   5.175   3.505  10.841  1.8977 -2.5703  0.6415
17517TIP3   OH273965   1.249   3.023  12.239  0.7396  0.6738 -0.2435
17517TIP3    H173966   1.171   3.034  12.293  0.2400 -1.7109 -0.3715
17517TIP3    H273967   1.315   2.988  12.299  1.2707  1.2895 -0.4550
17518TIP3   OH273968   4.295   6.326   3.313  0.3955 -0.4238 -0.5930
17518TIP3    H173969   4.334   6.411   3.294  1.6288 -1.2789 -2.1867
17518TIP3    H273970   4.348   6.264   3.263 -1.9789 -1.8556 -1.5189
17519TIP3   OH273971   4.203   0.252  16.966 -0.0018  0.5213 -0.3618
17519TIP3    H173972   4.221   0.267  17.058  0.2904  1.3788 -0.5474
17519TIP3    H273973   4.109   0.268  16.957  0.0208  0.7104 -0.2641
17520TIP3   OH273974   3.578   2.996   1.215  0.5253  0.0321 -0.2707
17520TIP3    H173975   3.520   2.928   1.180  0.9965 -0.6632  0.2798
17520TIP3    H273976   3.624   2.954   1.287 -0.4237  1.4337  1.2339
17521TIP3   OH273977   2.748   4.217  14.218  0.3560  0.1934  0.4952
17521TIP3    H173978   2.659   4.184  14.206  0.0053  0.7951  1.3287
17521TIP3    H273979   2.804   4.150  14.178 -0.5442  0.7073 -1.7618
17522TIP3   OH273980   2.905   6.359   6.132 -0.0962  0.0461  0.2630
17522TIP3    H173981   2.968   6.421   6.169  1.3556 -1.0571 -0.2731
17522TIP3    H273982   2.894   6.292   6.200 -0.8579  0.3422  0.4356
17523TIP3   OH273983   1.369   5.513  16.333 -0.2190 -0.0689 -0.3622
17523TIP3    H173984   1.372   5.585  16.270 -1.7584 -0.9502 -1.5016
17523TIP3    H273985   1.416   5.546  16.410 -0.9193  2.1635 -0.8366
17524TIP3   OH273986   4.037   1.843  12.357 -0.0666  0.1306  0.5828
17524TIP3    H173987   4.111   1.810  12.409  0.0176  1.0550  1.0653
17524TIP3    H273988   4.030   1.936  12.381 -0.2714  0.4869 -0.7617
17525TIP3   OH273989   3.594   5.531   6.364  0.4347  0.4689  0.0921
17525TIP3    H173990   3.674   5.481   6.357  0.4072  0.2728  1.0570
17525TIP3    H273991   3.585   5.551   6.457 -0.9246  0.0049  0.0934
17526TIP3   OH273992   4.741   0.955  14.142 -0.0227  0.0107 -0.3968
17526TIP3    H173993   4.665   0.915  14.099  0.3213  0.5231 -1.5193
17526TIP3    H273994   4.732   1.048  14.123  0.9164  0.0690 -0.5942
17527TIP3   OH273995   0.390   5.229  11.442  0.1417 -0.4502 -0.2426
17527TIP3    H173996   0.442   5.155  11.474  0.6960  0.6068  1.4223
17527TIP3    H273997   0.453   5.299  11.428 -0.6176  0.3363  0.1521
17528TIP3   OH273998   1.953   1.717  12.632 -0.2204  0.1489 -0.2515
17528TIP3    H173999   1.943   1.752  12.543  2.1814 -0.3340 -0.7992
17528TIP3    H274000   2.026   1.767  12.669  0.0245 -0.9121  0.7700
17529TIP3   OH274001   2.772   5.496  12.334  0.1476 -0.7067 -0.1240
17529TIP3    H174002   2.825   5.424  12.369 -0.0980 -0.5454  0.6123
17529TIP3    H274003   2.682   5.472  12.356 -0.0619 -0.8106 -1.0589
17530TIP3   OH274004   5.978   1.338   4.010 -0.2851  0.1084 -0.0188
17530TIP3    H174005   6.047   1.349   3.945 -0.0611  1.5229  0.4302
17530TIP3    H274006   6.004   1.395   4.082 -1.6567  0.2594  0.3783
17531TIP3   OH274007   1.965   3.659  15.114 -0.1410 -1.0590  0.5601
17531TIP3    H174008   1.995   3.570  15.096  2.2835 -0.5780  1.8360
17531TIP3    H274009   2.043   3.705  15.146 -1.5317  1.2790  0.8200
17532TIP3   OH274010   3.322   4.736   2.386  0.0673  0.0186  0.2420
17532TIP3    H174011   3.297   4.779   2.304 -0.0213  0.9158  0.7370
17532TIP3    H274012   3.395   4.787   2.419  1.2995 -1.4085 -0.1708
17533TIP3   OH274013   1.819   0.511  13.698 -0.4584  0.3024  0.3185
17533TIP3    H174014   1.755   0.463  13.750  0.8495 -0.2468  1.4903
17533TIP3    H274015   1.865   0.444  13.648 -0.2525  0.5920  0.1136
17534TIP3   OH274016   3.681   2.983   5.795  0.4509 -0.2571 -0.2112
17534TIP3    H174017   3.704   3.065   5.840  0.5418  0.1748 -1.0254
17534TIP3    H274018   3.629   2.935   5.859  0.8539  0.1945  0.4801
17535TIP3   OH274019   0.552   2.149  11.353  0.0465  1.1853  0.0522
17535TIP3    H174020   0.478   2.210  11.351  0.1937  1.3762  0.3560
17535TIP3    H274021   0.560   2.120  11.262 -1.2954  0.0646  0.2575
17536TIP3   OH274022   4.799   2.921   3.298  0.0443 -0.7239  0.4939
17536TIP3    H174023   4.722   2.963   3.336  1.2995 -0.0650  2.4590
17536TIP3    H274024   4.860   2.992   3.283 -0.2776 -0.9991 -2.6884
17537TIP3   OH274025   5.355   2.793  12.053  0.1568  0.0374  0.2536
17537TIP3    H174026   5.405   2.873  12.070  1.3880 -1.0425  1.9968
17537TIP3    H274027   5.266   2.824  12.033  1.2184  1.9624 -1.9669
17538TIP3   OH274028   5.112   0.211   5.747  0.3697  0.5314  0.8217
17538TIP3    H174029   5.169   0.282   5.719  0.2767  1.2859  2.4336
17538TIP3    H274030   5.078   0.239   5.832  0.1995 -1.3695  1.4380
17539TIP3   OH274031   4.410   3.104  10.785 -0.0016  0.0077  0.1613
17539TIP3    H174032   4.348   3.137  10.720  0.9652  2.4465  0.3448
17539TIP3    H274033   4.457   3.034  10.741  0.4642  1.4398 -1.7307
17540TIP3   OH274034   0.431   1.854   3.422 -0.0944 -0.2280  0.2291
17540TIP3    H174035   0.522   1.852   3.394 -0.6618 -0.2500 -1.7314
17540TIP3    H274036   0.422   1.937   3.469  0.9329 -0.2507  0.4926
17541TIP3   OH274037   5.521   2.043  15.695  0.3078 -0.5327  0.0606
17541TIP3    H174038   5.554   2.084  15.774 -1.6414  1.5546 -0.1340
17541TIP3    H274039   5.580   2.073  15.626  1.4718 -1.6494  0.5077
17542TIP3   OH274040   5.648   4.514   0.674 -0.0042  0.4510  0.2180
17542TIP3    H174041   5.658   4.597   0.626  0.1065 -0.0221 -0.5903
17542TIP3    H274042   5.715   4.518   0.742  1.0251  0.3876 -0.7513
17543TIP3   OH274043   0.789   3.407   5.748 -0.5050 -0.1142  0.1763
17543TIP3    H174044   0.810   3.382   5.838 -0.5371 -1.0370 -0.0554
17543TIP3    H274045   0.806   3.501   5.744 -1.0872  0.0579  1.3060
17544TIP3   OH274046   5.652   5.604   3.559  0.1963  0.4642  0.1245
17544TIP3    H174047   5.639   5.554   3.640 -1.7233  1.2690  0.3675
17544TIP3    H274048   5.620   5.692   3.580  0.5466  0.9329 -1.2327
17545TIP3   OH274049   3.734   2.019  17.360  0.0741  0.3595 -0.2902
17545TIP3    H174050   3.690   2.064  17.432  1.1787  1.0885 -0.0524
17545TIP3    H274051   3.822   2.002  17.392  0.2740 -0.2099 -1.1124
17546TIP3   OH274052   6.151   6.357  14.217 -0.0663 -0.6772 -0.1770
17546TIP3    H174053   6.150   6.266  14.189 -0.8098 -0.5597 -0.5491
17546TIP3    H274054   6.061   6.387  14.207  0.1126  0.0226  0.2006
17547TIP3   OH274055   4.985   5.014   3.327  0.2668 -0.9582 -0.1516
17547TIP3    H174056   5.060   4.965   3.295  0.2981 -0.4639 -0.8504
17547TIP3    H274057   5.023   5.094   3.364  0.1132 -0.8451 -0.2362
17548TIP3   OH274058   1.080   2.250  16.116  0.3158 -0.4673 -0.3531
17548TIP3    H174059   1.075   2.216  16.026  1.4525 -1.4102 -0.0805
17548TIP3    H274060   1.099   2.344  16.105  0.9017 -0.6637 -1.1010
17549TIP3   OH274061   4.688   1.041  11.770 -0.4365  0.0063  0.3611
17549TIP3    H174062   4.678   1.117  11.827 -0.6125 -1.6402  2.6444
17549TIP3    H274063   4.779   1.045  11.741  0.5182 -0.5569  3.0397
17550TIP3   OH274064   5.924   3.904  16.055 -0.1435 -0.3648 -0.0995
17550TIP3    H174065   5.907   3.880  16.147  2.1340  1.0308  0.7644
17550TIP3    H274066   6.003   3.857  16.032 -0.4655 -0.3767 -1.2375
17551TIP3   OH274067   5.000   4.373   5.871  0.0032 -0.4989 -0.3531
17551TIP3    H174068   4.927   4.355   5.812 -0.4618  1.7141 -0.5387
17551TIP3    H274069   4.960   4.412   5.948  0.9156 -0.0206 -0.1029
17552TIP3   OH274070   1.155   6.539  11.786  0.4756 -0.1501  0.9327
17552TIP3    H174071   1.116   6.544  11.874  0.2688  0.5015  0.8116
17552TIP3    H274072   1.129   6.621  11.744  1.9567  0.2835  0.8254
17553TIP3   OH274073   3.835   1.723   5.384 -0.2324 -0.2057  0.0118
17553TIP3    H174074   3.912   1.727   5.440 -1.0568 -1.2790  1.2891
17553TIP3    H274075   3.783   1.652   5.420 -2.4240  1.2850 -0.0312
17554TIP3   OH274076   0.938   3.184   1.438  0.5433  0.4497 -0.3432
17554TIP3    H174077   0.960   3.151   1.351  0.8072  2.1912 -0.9644
17554TIP3    H274078   1.004   3.145   1.495 -0.6858 -2.1844 -0.5471
17555TIP3   OH274079   4.736   3.826   0.838 -0.1473  0.5730 -0.5927
17555TIP3    H174080   4.699   3.748   0.879  3.0788 -0.5005  0.6144
17555TIP3    H274081   4.697   3.828   0.751  0.2741 -2.9745 -1.0099
17556TIP3   OH274082   3.884   0.594  12.276  0.4337  0.0452 -0.2342
17556TIP3    H174083   3.913   0.683  12.255 -1.5163  0.5925 -0.7524
17556TIP3    H274084   3.848   0.561  12.194 -0.2998 -0.6322  0.3556
17557TIP3   OH274085   1.033   3.865  12.464  0.0308  0.4746 -0.3642
17557TIP3    H174086   0.971   3.849  12.393  0.7728  0.5862 -1.0519
17557TIP3    H274087   1.015   3.797  12.528 -1.4328  1.0639 -0.1037
17558TIP3   OH274088   4.253   0.442   2.636 -0.4099 -0.3398  0.0499
17558TIP3    H174089   4.264   0.432   2.541  0.7016 -1.1933  0.2438
17558TIP3    H274090   4.325   0.391   2.674 -0.7170  0.1562  1.3548
17559TIP3   OH274091   6.352   5.173   6.201 -0.4673  0.2829 -0.3021
17559TIP3    H174092   6.344   5.095   6.147  1.1113 -1.0778  1.3176
17559TIP3    H274093   6.338   5.143   6.290 -3.1882  2.4976  0.1803
17560TIP3   OH274094   6.489   1.672  15.338  0.6115 -0.0825 -0.6505
17560TIP3    H174095   6.557   1.710  15.284  0.2084  0.2696 -0.9173
17560TIP3    H274096   6.471   1.739  15.404 -1.0035  0.7790 -1.8861
17561TIP3   OH274097   6.355   5.817  15.705 -0.1518 -0.0132 -0.4443
17561TIP3    H174098   6.340   5.749  15.638 -1.0279 -1.4443  1.1354
17561TIP3    H274099   6.273   5.820  15.755 -0.5036  2.9241 -1.0115
17562TIP3   OH274100   1.867   0.780  15.102 -0.5243 -0.2435 -0.0214
17562TIP3    H174101   1.905   0.793  15.189  0.5419  0.2474 -0.5432
17562TIP3    H274102   1.915   0.841  15.046 -0.2679 -1.5112 -1.2227
17563TIP3   OH274103   3.741   0.844  17.321 -0.2122 -0.3284 -0.3150
17563TIP3    H174104   3.830   0.871  17.299 -0.0468  1.1555  1.8328
17563TIP3    H274105   3.753   0.780  17.391 -0.8234 -0.1857 -0.0757
17564TIP3   OH274106   5.401   1.776  16.335 -0.2960 -0.2149 -0.1287
17564TIP3    H174107   5.343   1.743  16.267  0.1100 -1.0552 -0.0830
17564TIP3    H274108   5.405   1.705  16.400  0.2402  0.1009  0.1996
17565TIP3   OH274109   4.043   4.620  14.974 -0.0342 -0.4073  0.0227
17565TIP3    H174110   4.116   4.641  15.033 -0.7450  1.0645  0.4151
17565TIP3    H274111   3.984   4.567  15.027  0.8946 -1.9539 -0.4165
17566TIP3   OH274112   2.148   5.728   1.103  0.4939  0.5206 -0.1433
17566TIP3    H174113   2.227   5.675   1.088  0.7848  0.4318  1.4628
17566TIP3    H274114   2.176   5.794   1.166 -1.5038 -1.7309  3.4626
17567TIP3   OH274115   3.370   5.141  16.485  0.1792 -0.5189 -0.4844
17567TIP3    H174116   3.311   5.138  16.409  1.1019  1.9408 -1.4176
17567TIP3    H274117   3.331   5.206  16.543  0.8935 -0.3740 -0.1541
17568TIP3   OH274118   1.239   6.322   4.676 -0.0878 -0.4126 -0.0334
17568TIP3    H174119   1.245   6.313   4.581  0.0483  0.7384 -0.1499
17568TIP3    H274120   1.330   6.320   4.706 -0.0177  0.8276 -0.1097
17569TIP3   OH274121   1.472   1.622   1.422 -0.4663  0.0692 -0.0500
17569TIP3    H174122   1.411   1.676   1.473 -1.2042 -0.6051 -0.1975
17569TIP3    H274123   1.417   1.553   1.384  0.6990 -1.7290  1.3952
17570TIP3   OH274124   4.188   0.923   1.636  0.6860  0.5252 -0.2319
17570TIP3    H174125   4.103   0.963   1.621 -0.3340 -0.6471  1.9283
17570TIP3    H274126   4.207   0.941   1.728  0.2944 -3.4396  0.8365
17571TIP3   OH274127   4.950   3.134   3.198  0.2311  0.8742  0.2090
17571TIP3    H174128   4.989   3.088   3.123 -0.2250 -0.6818  0.8860
17571TIP3    H274129   4.906   3.209   3.159  1.0846  0.8126 -0.9377
17572TIP3   OH274130   6.509   6.742   1.194  0.4503  0.7217 -0.1394
17572TIP3    H174131   6.583   6.706   1.146 -0.2160 -1.0141  0.0880
17572TIP3    H274132   6.521   6.712   1.284 -0.1175  1.0965  0.0708
17573TIP3   OH274133   1.249   5.990  13.915 -0.6951  0.3068 -0.4734
17573TIP3    H174134   1.336   5.987  13.953 -1.5110  1.1042  1.5920
17573TIP3    H274135   1.221   5.899  13.908  0.2264  0.0588 -1.0279
17574TIP3   OH274136   2.745   2.141  17.276  0.7224 -0.5661  0.1833
17574TIP3    H174137   2.759   2.167  17.367 -2.6037  1.3749  0.2779
17574TIP3    H274138   2.806   2.195  17.226  1.0525 -0.0688  1.1008
17575TIP3   OH274139   1.855   1.980   4.731 -0.0622  0.1069  0.7611
17575TIP3    H174140   1.931   1.921   4.730 -0.6463 -0.6679  0.6097
17575TIP3    H274141   1.816   1.966   4.818 -0.9067 -0.6735  0.2756
17576TIP3   OH274142   5.740   1.420  11.342  0.3805 -0.5121  0.2254
17576TIP3    H174143   5.789   1.502  11.354 -0.9523  0.4919 -0.9226
17576TIP3    H274144   5.652   1.448  11.320 -0.6200 -2.2858  1.7134
17577TIP3   OH274145   4.358   2.027  10.271  0.0975  0.2452  0.2336
17577TIP3    H174146   4.345   1.974  10.349  1.9774 -0.1263  0.3478
17577TIP3    H274147   4.414   1.973  10.215 -1.6161  0.2777 -1.6292
17578TIP3   OH274148   4.073   0.794   5.630  0.5055  0.0523 -0.5633
17578TIP3    H174149   4.166   0.773   5.640  0.6201  0.6765 -0.2286
17578TIP3    H274150   4.034   0.771   5.714  0.2896 -0.5059 -0.8086
17579TIP3   OH274151   1.976   0.966   0.974 -0.2921  0.2394 -0.2967
17579TIP3    H174152   2.030   0.910   1.030  1.0709 -0.5068 -2.2266
17579TIP3    H274153   1.930   0.905   0.917 -2.4381  0.9269  0.5839
17580TIP3   OH274154   2.482   0.099  15.991  0.1297  0.2603 -0.1939
17580TIP3    H174155   2.551   0.118  16.054 -1.3609 -0.5096  1.7636
17580TIP3    H274156   2.416   0.166  16.007  0.3249  0.9567 -2.0056
17581TIP3   OH274157   5.290   4.048  13.507  0.6232 -0.6880 -0.7676
17581TIP3    H174158   5.364   4.044  13.447  1.1915  1.0391 -0.2436
17581TIP3    H274159   5.321   4.104  13.579 -0.1845 -2.3348  0.9303
17582TIP3   OH274160   2.537   1.149   4.407  0.1279 -0.1098 -0.3845
17582TIP3    H174161   2.465   1.087   4.394  0.1888 -0.1428 -0.5667
17582TIP3    H274162   2.506   1.208   4.476 -1.5337  2.0858 -2.8193
17583TIP3   OH274163   0.114   4.630  16.542 -0.8646  0.4703 -0.0947
17583TIP3    H174164   0.171   4.562  16.507 -1.5413 -0.8955  1.3452
17583TIP3    H274165   0.052   4.649  16.471 -0.1104  0.2681 -0.8205
17584TIP3   OH274166   0.508   1.814   1.743  0.0859  0.2406 -0.0832
17584TIP3    H174167   0.516   1.729   1.786 -0.3559 -0.2265 -0.8998
17584TIP3    H274168   0.583   1.819   1.684 -0.1695  0.1812 -0.4186
17585TIP3   OH274169   2.363   2.740  17.053 -0.2718  0.0156 -0.6510
17585TIP3    H174170   2.354   2.812  17.115  0.6595  0.1627 -0.6815
17585TIP3    H274171   2.385   2.783  16.970 -0.5279 -0.2524 -0.8583
17586TIP3   OH274172   1.283   2.342  11.457 -0.6114  0.4110 -0.1915
17586TIP3    H174173   1.189   2.345  11.439 -1.0648  1.7973  1.9907
17586TIP3    H274174   1.289   2.322  11.550  1.2360  0.9723 -0.1439
17587TIP3   OH274175   5.268   3.410   4.012 -0.7931  0.2664  0.2581
17587TIP3    H174176   5.257   3.447   3.924 -3.0372 -0.2075  0.2759
17587TIP3    H274177   5.187   3.432   4.058  0.3022  0.4387  2.2148
17588TIP3   OH274178   2.273   2.590   3.707 -0.2276  0.0658  0.2994
17588TIP3    H174179   2.367   2.576   3.692 -0.6604 -3.4181 -0.0189
17588TIP3    H274180   2.247   2.649   3.637  1.5065  0.0754 -0.4000
17589TIP3   OH274181   6.041   2.930  17.077  0.0958  0.1055 -0.4223
17589TIP3    H174182   6.007   3.008  17.119 -0.0171 -0.5006  0.6488
17589TIP3    H274183   6.133   2.951  17.058 -0.0842  0.6879 -0.6672
17590TIP3   OH274184   0.707   1.938  10.518  0.0790  0.2272  0.2780
17590TIP3    H174185   0.703   1.866  10.581 -0.7191  0.6853  0.7739
17590TIP3    H274186   0.636   1.997  10.545 -0.9452 -0.0336 -1.6406
17591TIP3   OH274187   3.930   5.410  13.027  0.2179 -0.0248 -0.0021
17591TIP3    H174188   3.972   5.407  12.941 -0.9752  1.8250 -0.7281
17591TIP3    H274189   3.853   5.355  13.019  1.6599 -2.3014  0.8967
17592TIP3   OH274190   1.047   3.148  16.221 -0.0420 -0.2512  0.2393
17592TIP3    H174191   1.073   3.142  16.129 -1.0091 -0.5975 -0.0299
17592TIP3    H274192   0.953   3.130  16.220 -0.3710  1.2553  1.1186
17593TIP3   OH274193   0.156   4.158  12.006  0.0604 -0.0926  0.2627
17593TIP3    H174194   0.078   4.199  11.968 -0.3481 -0.0167  1.1605
17593TIP3    H274195   0.126   4.072  12.034 -0.4846  0.9051  3.1102
17594TIP3   OH274196   3.276   3.494   0.917 -0.1018 -0.0977 -0.1415
17594TIP3    H174197   3.346   3.506   0.980 -0.7754 -1.6191  0.9607
17594TIP3    H274198   3.222   3.424   0.954 -1.6512  0.3516 -1.4242
17595TIP3   OH274199   0.155   4.064  11.139  0.0211 -0.2988 -0.2995
17595TIP3    H174200   0.186   4.140  11.189  0.2178  0.7099 -1.8689
17595TIP3    H274201   0.227   4.045  11.078 -0.8884 -0.3615 -1.3921
17596TIP3   OH274202   0.402   5.966   2.990 -0.1156 -0.3388  0.2017
17596TIP3    H174203   0.368   5.938   2.906  0.3519 -0.9617  0.2160
17596TIP3    H274204   0.414   5.885   3.040 -0.7337  0.0484  0.9978
17597TIP3   OH274205   6.744   2.771  15.857 -0.2718  0.0160 -0.1407
17597TIP3    H174206   6.653   2.755  15.883 -0.0258  0.2840  0.9131
17597TIP3    H274207   6.795   2.757  15.936  0.3821  1.9593 -0.1473
17598TIP3   OH274208   1.145   3.463   2.483 -0.1028  0.0261  0.0063
17598TIP3    H174209   1.192   3.382   2.463 -0.8509 -0.4920  0.2968
17598TIP3    H274210   1.067   3.459   2.428  0.7948  1.5089 -1.4855
17599TIP3   OH274211   4.294   5.408  13.077  0.5334  0.0114  0.6820
17599TIP3    H174212   4.322   5.478  13.019 -1.4385 -0.0318 -0.4118
17599TIP3    H274213   4.244   5.452  13.146  1.2230 -0.1337  1.2956
17600TIP3   OH274214   6.653   0.212   6.597 -0.6402  0.3878  0.1901
17600TIP3    H174215   6.726   0.150   6.591 -1.0318  0.0377 -1.5744
17600TIP3    H274216   6.692   0.291   6.635  0.2018 -0.4272  1.0863
17601TIP3   OH274217   2.127   1.988  14.839 -0.2292 -0.8077 -0.3412
17601TIP3    H174218   2.040   2.021  14.860  1.4291  3.6866  0.8194
17601TIP3    H274219   2.132   1.989  14.744 -1.3869 -0.9957 -0.4106
17602TIP3   OH274220   6.013   1.202  11.555  0.5843  0.6898  0.4327
17602TIP3    H174221   5.971   1.117  11.543  1.5125  0.1242  1.0454
17602TIP3    H274222   5.942   1.261  11.580 -0.1596  0.2236 -0.5226
17603TIP3   OH274223   0.943   4.324  17.191 -0.2059  0.1568  0.1499
17603TIP3    H174224   0.988   4.406  17.215 -0.5850  1.1006 -2.0971
17603TIP3    H274225   0.851   4.341  17.209 -0.3416  0.4198 -0.7537
17604TIP3   OH274226   6.116   2.585  10.780 -0.7173  0.4565 -0.1729
17604TIP3    H174227   6.130   2.581  10.685  1.0992  0.5477  0.0594
17604TIP3    H274228   6.126   2.677  10.802 -0.4452  0.3382  0.2036
17605TIP3   OH274229   5.184   5.291  17.092 -0.1534  0.1621  0.0143
17605TIP3    H174230   5.133   5.312  17.014 -2.3094 -1.6902  0.8095
17605TIP3    H274231   5.131   5.323  17.164  0.3631 -0.7860  0.8390
17606TIP3   OH274232   5.610   1.550   4.287 -0.0905 -0.7242 -0.5722
17606TIP3    H174233   5.683   1.590   4.335  0.7616 -1.3921 -1.2697
17606TIP3    H274234   5.569   1.624   4.241  1.1699 -0.5409 -1.4692
17607TIP3   OH274235   1.175   5.072  13.633  0.3313 -0.1677 -0.5135
17607TIP3    H174236   1.167   5.106  13.723  0.7259  0.5128 -0.7311
17607TIP3    H274237   1.246   5.008  13.638  2.0660  1.6350 -0.8232
17608TIP3   OH274238   2.722   5.107  15.994  0.1137  0.3283 -0.2789
17608TIP3    H174239   2.735   5.191  15.950 -0.0992 -0.1748 -1.3240
17608TIP3    H274240   2.679   5.130  16.076 -2.9696  0.9942 -1.9506
17609TIP3   OH274241   1.157   2.778   2.081  0.8604 -0.5294  0.2382
17609TIP3    H174242   1.090   2.716   2.055  1.3322 -0.8281 -0.2898
17609TIP3    H274243   1.228   2.765   2.018  0.2416  1.8311 -1.0907
17610TIP3   OH274244   3.804   0.086   1.230  0.1932 -0.3322 -0.2076
17610TIP3    H174245   3.841   0.156   1.283 -0.9803 -0.4718  0.8395
17610TIP3    H274246   3.755   0.032   1.292  0.1092 -1.4202 -1.1829
17611TIP3   OH274247   0.178   5.891   1.729 -0.1442  0.5806  0.0161
17611TIP3    H174248   0.268   5.887   1.762 -0.4045 -1.3038  0.6361
17611TIP3    H274249   0.124   5.894   1.808 -0.7272 -2.4346 -0.1643
17612TIP3   OH274250   3.871   1.990   4.536 -0.6930  0.2291  0.3409
17612TIP3    H174251   3.934   2.056   4.505 -2.3475  0.9727 -1.7430
17612TIP3    H274252   3.855   2.013   4.627  1.7032  0.2320  0.8340
17613TIP3   OH274253   5.165   2.079   3.124 -0.3145  0.1066  0.4016
17613TIP3    H174254   5.218   2.009   3.161 -1.5207 -0.6025  0.8503
17613TIP3    H274255   5.111   2.035   3.058 -0.4876  0.7738  0.0943
17614TIP3   OH274256   4.812   3.455  14.393  0.2647  0.1120 -0.4869
17614TIP3    H174257   4.755   3.415  14.459  1.8561 -0.8565  0.3838
17614TIP3    H274258   4.772   3.539  14.374 -0.4602  0.2656  1.4814
17615TIP3   OH274259   5.386   1.126   3.514 -0.5367 -0.6109 -0.3446
17615TIP3    H174260   5.316   1.102   3.454  0.2726 -1.2510 -1.0493
17615TIP3    H274261   5.366   1.077   3.594 -0.7120 -1.0583 -0.6542
17616TIP3   OH274262   6.182   2.790  14.976  0.0315  0.0735 -0.6490
17616TIP3    H174263   6.210   2.729  14.907 -4.4554 -2.3402 -0.6996
17616TIP3    H274264   6.146   2.865  14.928  2.2851  1.2071 -0.6655
17617TIP3   OH274265   1.666   3.315  13.736  0.1127  0.2266  0.3820
17617TIP3    H174266   1.747   3.306  13.686  0.8886  1.0290  1.4623
17617TIP3    H274267   1.691   3.360  13.816 -1.4483  0.7004  0.6469
17618TIP3   OH274268   5.469   4.220   1.136 -0.1455 -0.0022  0.3870
17618TIP3    H174269   5.468   4.133   1.096 -1.9580 -0.5687  1.5377
17618TIP3    H274270   5.410   4.272   1.081 -1.1477 -0.2622  1.1857
17619TIP3   OH274271   5.541   4.985  12.999 -0.1555  0.9152  0.2601
17619TIP3    H174272   5.480   4.914  12.981  0.2062  0.2713  1.4451
17619TIP3    H274273   5.628   4.945  12.988  0.0560  0.9575  1.5728
17620TIP3   OH274274   5.354   5.855  13.595  0.1021 -0.0137  0.2265
17620TIP3    H174275   5.350   5.828  13.503  2.2225  0.6081 -0.1167
17620TIP3    H274276   5.354   5.951  13.592  0.2603  0.0130  0.8744
17621TIP3   OH274277   1.971   4.581  16.867 -0.4081  0.4258 -0.0519
17621TIP3    H174278   1.917   4.512  16.829 -1.5776  1.0028  0.5012
17621TIP3    H274279   2.061   4.549  16.859 -0.8930 -0.9351 -0.2342
17622TIP3   OH274280   1.501   0.843   6.010 -0.0188  0.7223  0.1402
17622TIP3    H174281   1.538   0.916   5.961 -1.4809  0.9805 -0.6312
17622TIP3    H274282   1.425   0.814   5.958  1.5374 -2.5753 -0.5794
17623TIP3   OH274283   1.994   4.944   6.098  0.5853  0.3840  0.1587
17623TIP3    H174284   2.071   5.001   6.099  0.0933  1.0685  0.4704
17623TIP3    H274285   1.922   5.001   6.070 -0.1464  0.2486  1.6195
17624TIP3   OH274286   1.898   3.798   6.635  0.0289 -0.6029  0.4174
17624TIP3    H174287   1.880   3.786   6.728 -0.8580  0.2254  0.3695
17624TIP3    H274288   1.946   3.881   6.630 -0.7787 -0.1421  0.0673
17625TIP3   OH274289   2.168   3.904  17.228  0.3998  1.0911 -0.1002
17625TIP3    H174290   2.233   3.924  17.160  0.9819 -0.9703 -0.2210
17625TIP3    H274291   2.207   3.832  17.278 -2.3857 -1.3494 -1.1591
17626TIP3   OH274292   4.389   3.801   3.062 -0.1548  0.0378 -0.1014
17626TIP3    H174293   4.420   3.753   2.985 -0.2772 -1.5360  0.7772
17626TIP3    H274294   4.369   3.888   3.030 -0.2321 -0.5878 -1.8599
17627TIP3   OH274295   6.516   2.228   4.947  0.4124 -0.2895 -0.0696
17627TIP3    H174296   6.483   2.313   4.977 -0.2360 -0.8731  0.9188
17627TIP3    H274297   6.442   2.169   4.958  1.2461 -1.2531  0.4461
17628TIP3   OH274298   2.286   4.561  16.561  0.4734 -0.2973  0.0115
17628TIP3    H174299   2.230   4.638  16.569 -1.0163 -1.5013  2.0667
17628TIP3    H274300   2.370   4.588  16.599  0.0781  0.4223  0.3943
17629TIP3   OH274301   3.006   0.249  13.894  0.0237 -0.6750 -0.1191
17629TIP3    H174302   3.089   0.274  13.936  0.2354 -0.4427 -0.6599
17629TIP3    H274303   3.031   0.230  13.803 -0.5393 -0.4702 -0.3175
17630TIP3   OH274304   1.181   5.253  16.295  0.3632  0.5770  0.3471
17630TIP3    H174305   1.214   5.308  16.366  0.1314  0.0378  0.8739
17630TIP3    H274306   1.239   5.274  16.221  0.3102  1.4928  0.5421
17631TIP3   OH274307   6.642   1.876  15.962  0.8609 -0.6770  0.1280
17631TIP3    H174308   6.574   1.808  15.962  0.0740  0.0636 -1.2911
17631TIP3    H274309   6.667   1.885  15.870  1.0548  0.8525  0.3031
17632TIP3   OH274310   0.999   3.935  11.244  0.0311 -0.1824  0.3280
17632TIP3    H174311   1.026   3.990  11.318 -2.2881 -0.3041  1.3420
17632TIP3    H274312   0.920   3.891  11.274  0.5047 -2.3144 -1.3079
17633TIP3   OH274313   1.925   2.955  11.222 -0.7481 -0.2005 -0.7211
17633TIP3    H174314   1.967   2.870  11.214 -0.9757 -0.2415 -1.5317
17633TIP3    H274315   1.987   3.017  11.184 -1.0290 -0.1412 -1.0848
17634TIP3   OH274316   4.050   3.894   6.297 -0.4027  0.0896  0.3048
17634TIP3    H174317   4.144   3.877   6.298 -0.8927 -3.2779 -0.2819
17634TIP3    H274318   4.030   3.914   6.206 -0.2152  1.6235  0.5631
17635TIP3   OH274319   4.072   5.234  12.400 -0.1153  1.0453  0.2404
17635TIP3    H174320   4.074   5.267  12.310  1.0561 -2.5872 -1.2496
17635TIP3    H274321   4.164   5.217  12.421 -0.5574 -0.4281  1.1307
17636TIP3   OH274322   5.123   6.385   0.506  0.4084  0.0904 -0.5055
17636TIP3    H174323   5.092   6.462   0.554 -0.2249 -0.0821 -0.6255
17636TIP3    H274324   5.152   6.324   0.573 -0.8790 -0.3278 -0.2885
17637TIP3   OH274325   1.486   2.317   0.983 -0.1569 -0.2533  0.3583
17637TIP3    H174326   1.474   2.359   1.068 -2.1832 -0.6392  0.3110
17637TIP3    H274327   1.491   2.224   1.003 -3.3233 -0.6305 -0.0382
17638TIP3   OH274328   5.818   0.336  15.717  0.0864  0.7098 -0.4370
17638TIP3    H174329   5.727   0.342  15.745  0.0426  0.4219 -0.5155
17638TIP3    H274330   5.820   0.376  15.631 -0.1177  0.0161 -0.7700
17639TIP3   OH274331   1.187   0.012  16.467  0.5306 -0.0279 -0.4273
17639TIP3    H174332   1.142   0.055  16.395 -0.7070 -2.3373 -1.1133
17639TIP3    H274333   1.130   0.026  16.543  0.8723  0.7520 -0.3029
17640TIP3   OH274334   0.233   4.743   5.072 -0.0959 -0.6598 -0.5440
17640TIP3    H174335   0.227   4.808   5.142 -0.5461 -1.5691  0.2856
17640TIP3    H274336   0.190   4.666   5.108 -2.5334 -0.4209 -2.6786
17641TIP3   OH274337   0.639   5.049   2.373 -0.1209  0.4712 -0.0607
17641TIP3    H174338   0.698   4.974   2.365  0.7139  0.6571  3.1501
17641TIP3    H274339   0.566   5.016   2.426 -0.1505  1.6764  0.6868
17642TIP3   OH274340   5.069   1.148   3.815 -0.3054  0.1457 -0.1108
17642TIP3    H174341   5.038   1.227   3.860  0.6845  0.0861  0.7074
17642TIP3    H274342   5.160   1.167   3.793 -0.1425 -0.6699 -0.1599
17643TIP3   OH274343   1.970   3.712  13.041  0.5497 -0.0993  0.4091
17643TIP3    H174344   2.035   3.716  13.112 -0.4791  0.9932  1.3475
17643TIP3    H274345   1.939   3.622  13.041 -1.1895  0.3589  3.0824
17644TIP3   OH274346   1.615   0.306   0.243 -0.4321 -0.8325 -0.3837
17644TIP3    H174347   1.571   0.224   0.263 -0.2544 -0.7531  0.3605
17644TIP3    H274348   1.558   0.374   0.278 -0.5038 -0.6372 -0.8591
17645TIP3   OH274349   2.270   4.182  15.743 -0.5151  0.0440  0.4819
17645TIP3    H174350   2.284   4.226  15.827 -0.9525  0.0430  0.5542
17645TIP3    H274351   2.305   4.243  15.678  0.0058 -0.0390  0.6755
17646TIP3   OH274352   1.409   2.384   4.359 -0.4001  0.1112  0.3300
17646TIP3    H174353   1.464   2.445   4.311  0.8106 -0.2921  1.1697
17646TIP3    H274354   1.381   2.320   4.293 -1.0583  1.1001 -0.3912
17647TIP3   OH274355   4.279   2.992  14.802  0.1034 -0.4242 -0.0421
17647TIP3    H174356   4.196   2.947  14.815  0.1282 -0.0261  1.7687
17647TIP3    H274357   4.342   2.939  14.851  0.2852  1.0825  1.4056
17648TIP3   OH274358   2.624   1.428  17.170 -0.7324 -0.3341 -0.1253
17648TIP3    H174359   2.597   1.346  17.129  1.2653 -1.2351  0.2540
17648TIP3    H274360   2.645   1.404  17.260  0.3314  0.4715 -0.1362
17649TIP3   OH274361   4.408   1.612  13.459 -0.1512  0.0843 -0.0837
17649TIP3    H174362   4.332   1.653  13.500  0.1711 -0.4631  1.0847
17649TIP3    H274363   4.482   1.663  13.489 -0.0192  0.4764 -1.0431
17650TIP3   OH274364   0.781   5.643  12.383 -0.8130  0.0319  0.2162
17650TIP3    H174365   0.822   5.594  12.312 -1.9213 -0.3083 -0.2092
17650TIP3    H274366   0.762   5.729  12.346  0.0832  0.4202  0.6165
17651TIP3   OH274367   1.004   4.030   1.450 -0.2367 -0.3392  0.2934
17651TIP3    H174368   0.978   4.071   1.368 -0.5702  2.0724  1.5228
17651TIP3    H274369   1.093   4.061   1.466  0.1796 -1.5383  0.4170
17652TIP3   OH274370   6.205   5.295   1.137  0.0287 -0.2556  0.2305
17652TIP3    H174371   6.265   5.226   1.168  0.1916 -0.2556 -0.0845
17652TIP3    H274372   6.235   5.314   1.048 -1.6349 -1.6024 -0.6618
17653TIP3   OH274373   6.301   1.300  14.287 -0.4494  0.7197 -0.0937
17653TIP3    H174374   6.243   1.281  14.214  1.4706 -1.4950 -1.1750
17653TIP3    H274375   6.243   1.326  14.358 -2.6393 -0.1271 -1.4751
17654TIP3   OH274376   1.740   3.842  14.442  0.0552  0.1029  0.0934
17654TIP3    H174377   1.777   3.788  14.512  1.0922  0.1672 -0.4019
17654TIP3    H274378   1.684   3.782  14.393 -1.2659  0.2155  1.3723
17655TIP3   OH274379   2.789   2.787   4.916  0.0139 -0.0269  0.4214
17655TIP3    H174380   2.742   2.859   4.957  0.9605 -0.0375  1.5654
17655TIP3    H274381   2.738   2.767   4.837 -2.5219 -0.7308  2.1167
17656TIP3   OH274382   2.181   0.645   4.938 -0.1960  0.4286 -0.2275
17656TIP3    H174383   2.209   0.665   4.849 -0.4561 -1.5897 -0.8153
17656TIP3    H274384   2.219   0.560   4.957 -1.3276  0.1601  1.0418
17657TIP3   OH274385   3.168   5.756  11.542 -0.3324  0.1057 -0.2463
17657TIP3    H174386   3.254   5.718  11.562 -1.1191 -1.7049 -0.1050
17657TIP3    H274387   3.109   5.680  11.536 -1.7120  1.2088 -1.4404
17658TIP3   OH274388   0.057   6.112   4.531  0.5239  0.4879  0.7872
17658TIP3    H174389  -0.035   6.133   4.514 -0.0216 -0.6131  2.1880
17658TIP3    H274390   0.098   6.197   4.548  0.3469  1.2674 -2.1384
17659TIP3   OH274391   4.317   4.050   4.395  0.8454 -0.0205  0.0004
17659TIP3    H174392   4.301   3.962   4.361 -1.8847  0.7300 -0.9594
17659TIP3    H274393   4.314   4.106   4.317  0.5071  1.1322  0.8143
17660TIP3   OH274394   1.574   6.590  14.727 -0.0457  0.0969 -0.4837
17660TIP3    H174395   1.576   6.666  14.785  0.0787 -0.1952 -0.1028
17660TIP3    H274396   1.527   6.523  14.777 -2.3182  0.6516 -1.7074
17661TIP3   OH274397   0.042   3.164   4.233 -0.3913 -0.1116 -0.2088
17661TIP3    H174398   0.070   3.155   4.142  0.3642  2.6652 -0.3416
17661TIP3    H274399  -0.052   3.144   4.232 -1.8321  5.1754 -2.8331
17662TIP3   OH274400   1.624   3.535  11.490 -0.1476 -0.3077  0.0799
17662TIP3    H174401   1.579   3.461  11.530 -2.6504  0.0881 -1.8155
17662TIP3    H274402   1.670   3.498  11.415 -1.4459  0.0057 -0.9030
17663TIP3   OH274403   3.876   4.279  13.228  0.3172 -0.0389  0.2073
17663TIP3    H174404   3.968   4.259  13.249  0.2389  1.0787  1.8720
17663TIP3    H274405   3.874   4.286  13.133  1.2894 -3.0413 -0.1497
17664TIP3   OH274406   6.071   1.559   5.480 -0.3763  0.0676 -0.6600
17664TIP3    H174407   6.145   1.565   5.540 -1.6147  0.5641  0.8677
17664TIP3    H274408   6.087   1.479   5.430  0.1975 -0.9153  1.0292
17665TIP3   OH274409   0.702   5.402  17.031  0.3301 -0.3181  0.0737
17665TIP3    H174410   0.777   5.451  17.066 -0.0176 -0.8276  1.5992
17665TIP3    H274411   0.687   5.440  16.944  0.6770  1.6209  0.8132
17666TIP3   OH274412   4.707   0.395   1.020 -0.2960  0.3279  0.5227
17666TIP3    H174413   4.720   0.375   1.113 -1.1143 -0.6537  0.4387
17666TIP3    H274414   4.708   0.490   1.016  0.8169  0.3806  1.3754
17667TIP3   OH274415   1.366   6.641   0.079 -0.1798  0.2821 -0.1957
17667TIP3    H174416   1.437   6.583   0.052 -0.5274 -1.0291  1.5273
17667TIP3    H274417   1.288   6.603   0.038 -0.2505  0.1472  0.0594
17668TIP3   OH274418   5.325   2.813  14.879  0.4304 -0.3061  0.6935
17668TIP3    H174419   5.322   2.719  14.865  1.4901 -0.0654 -1.4600
17668TIP3    H274420   5.368   2.824  14.964 -0.0940 -1.7384  1.1656
17669TIP3   OH274421   6.715   3.431  15.895  0.4334 -0.6523  0.3099
17669TIP3    H174422   6.689   3.520  15.872  0.3545 -0.3210  1.5879
17669TIP3    H274423   6.810   3.437  15.908  0.3851 -0.6710  0.6951
17670TIP3   OH274424   5.067   0.507   5.064 -0.2639 -0.3045 -0.0577
17670TIP3    H174425   5.048   0.594   5.030  1.0566  0.0967  0.2022
17670TIP3    H274426   5.150   0.482   5.023  0.5436 -0.4784  1.6003
17671TIP3   OH274427   2.351   0.831  11.962  0.0871 -0.3516 -0.1010
17671TIP3    H174428   2.355   0.755  12.019  1.4858  1.0635  1.8038
17671TIP3    H274429   2.334   0.905  12.020  0.2043  0.9999 -1.6878
17672TIP3   OH274430   5.791   6.718   4.186 -0.4144  0.2353  0.0265
17672TIP3    H174431   5.841   6.705   4.105 -1.4086  0.8486 -0.7028
17672TIP3    H274432   5.844   6.676   4.254  0.0161 -1.0459 -1.0670
17673TIP3   OH274433   5.159   5.472   2.942 -0.1581  0.1186  0.2431
17673TIP3    H174434   5.167   5.506   2.853 -2.6279 -0.2855 -0.2043
17673TIP3    H274435   5.139   5.548   2.996 -0.1101  0.1617  0.1998
17674TIP3   OH274436   1.030   2.212   2.831  0.4624  0.3626 -0.1801
17674TIP3    H174437   0.952   2.185   2.880  0.1473  0.0673 -0.8264
17674TIP3    H274438   1.019   2.307   2.820  1.6414  0.8286  2.2063
17675TIP3   OH274439   2.796   0.911   0.091 -0.4531 -0.1726 -0.3189
17675TIP3    H174440   2.814   0.948   0.177 -1.1419 -0.8538  0.1300
17675TIP3    H274441   2.867   0.943   0.036 -0.0768  0.3790  0.4694
17676TIP3   OH274442   1.511   2.008  16.537 -0.0761  0.0949 -0.3786
17676TIP3    H174443   1.582   2.073  16.533 -1.2241  1.4457  0.2157
17676TIP3    H274444   1.439   2.054  16.580 -1.4229 -1.1392 -1.2207
17677TIP3   OH274445   4.238   2.512   6.365  0.1236  0.0918 -0.4572
17677TIP3    H174446   4.163   2.454   6.379  1.1693 -1.4728 -1.0661
17677TIP3    H274447   4.211   2.568   6.292 -1.1325  0.8257  0.5339
17678TIP3   OH274448   5.005   1.407   3.623  0.6458 -0.4501 -0.0955
17678TIP3    H174449   4.997   1.446   3.710  0.3868 -0.6170 -0.0432
17678TIP3    H274450   5.098   1.413   3.603  0.6396  0.0164 -0.0052
17679TIP3   OH274451   4.230   2.294  14.725 -0.0777 -0.4003  0.5220
17679TIP3    H174452   4.260   2.221  14.780  0.1366  0.0864  1.0538
17679TIP3    H274453   4.202   2.361  14.787 -0.0785  0.0564  0.0315
17680TIP3   OH274454   0.995   4.525  14.709  0.4369  0.3204  0.1730
17680TIP3    H174455   1.067   4.473  14.672  1.4897  2.1673 -0.4818
17680TIP3    H274456   0.916   4.485  14.674  1.2790  0.1172 -1.5951
17681TIP3   OH274457   1.598   0.105  13.946  0.0593 -0.5066  0.0169
17681TIP3    H174458   1.553   0.060  14.018  0.1708 -1.8576 -0.7443
17681TIP3    H274459   1.583   0.050  13.870  0.1867  0.7680 -0.9542
17682TIP3   OH274460   3.260   1.530   5.326  0.5087  0.0333  0.4878
17682TIP3    H174461   3.352   1.553   5.315  0.3756  0.5003  0.3223
17682TIP3    H274462   3.213   1.593   5.272  0.1979 -1.4186 -1.0464
17683TIP3   OH274463   1.082   4.241  13.135  0.1447  0.2242 -0.2471
17683TIP3    H174464   1.164   4.210  13.097  0.1314 -2.1325  1.4237
17683TIP3    H274465   1.104   4.263  13.226 -0.8458  0.6766 -0.1018
17684TIP3   OH274466   2.730   3.695  14.946 -0.3544 -0.0762  0.4312
17684TIP3    H174467   2.740   3.644  14.865 -0.3442  0.6539 -0.0370
17684TIP3    H274468   2.789   3.652  15.008 -0.8852 -1.0707  0.2720
17685TIP3   OH274469   3.860   4.407  13.499 -0.4060  0.3618  0.1665
17685TIP3    H174470   3.783   4.432  13.449 -1.7206  0.7540  2.2837
17685TIP3    H274471   3.927   4.389  13.432 -1.6743  2.0225 -1.6603
17686TIP3   OH274472   6.355   3.878  13.823 -0.1791 -0.1394 -0.2540
17686TIP3    H174473   6.375   3.785  13.816  1.2669  0.1546 -0.4452
17686TIP3    H274474   6.300   3.897  13.746 -2.5179 -1.2756  1.0521
17687TIP3   OH274475   4.642   4.817  15.046  0.3280 -0.1959 -0.1730
17687TIP3    H174476   4.577   4.826  14.975  2.1894  1.0373 -1.8148
17687TIP3    H274477   4.714   4.873  15.020  1.8992 -1.1582  1.8300
17688TIP3   OH274478   0.169   3.452   5.188 -0.1810 -0.0188 -0.1907
17688TIP3    H174479   0.260   3.463   5.213 -0.0799 -1.1531 -0.0456
17688TIP3    H274480   0.132   3.540   5.196  1.3749  0.9095 -2.2814
17689TIP3   OH274481   5.895   5.586  13.524 -0.0709 -0.6880  0.0634
17689TIP3    H174482   5.840   5.608  13.598  0.2310 -1.3358  0.4939
17689TIP3    H274483   5.967   5.535  13.562 -0.2679 -1.6068 -0.7565
17690TIP3   OH274484   5.199   3.591   5.779 -0.0022 -0.0775 -0.5218
17690TIP3    H174485   5.288   3.601   5.746  0.2251 -0.8246 -0.1515
17690TIP3    H274486   5.210   3.557   5.868 -0.6223  1.3585  0.1354
17691TIP3   OH274487   5.191   4.472  16.694  0.4923  1.1098 -0.0729
17691TIP3    H174488   5.097   4.456  16.696  0.5983  0.5306  1.2102
17691TIP3    H274489   5.230   4.385  16.686  0.9278  1.4050 -1.5757
17692TIP3   OH274490   4.627   3.132  17.349  0.0944  0.2051  0.3713
17692TIP3    H174491   4.669   3.046  17.352  0.2741  0.3058  0.7686
17692TIP3    H274492   4.696   3.193  17.374  0.0308  0.4909 -0.1304
17693TIP3   OH274493   2.008   1.825  17.253  0.4686 -0.2899 -0.2369
17693TIP3    H174494   2.033   1.918  17.257  3.8833 -0.8998 -2.6787
17693TIP3    H274495   1.959   1.818  17.171  0.4502 -0.6475 -0.1929
17694TIP3   OH274496   5.565   4.188  16.493  0.1779 -0.1817 -0.2893
17694TIP3    H174497   5.657   4.192  16.467 -0.1194  0.2519 -1.3419
17694TIP3    H274498   5.521   4.246  16.431 -0.4611  1.6749  1.7917
17695TIP3   OH274499   2.746   6.535   2.780  0.0632  0.5238  0.0886
17695TIP3    H174500   2.837   6.529   2.811 -0.0297  0.9729  0.4593
17695TIP3    H274501   2.723   6.446   2.754  0.7766  0.4904 -0.4798
17696TIP3   OH274502   3.210   4.364   5.645  0.2066 -0.0503 -0.0106
17696TIP3    H174503   3.250   4.447   5.670  0.0165 -0.1707  0.7047
17696TIP3    H274504   3.202   4.369   5.549  2.1204 -0.1253 -0.2125
17697TIP3   OH274505   0.814   2.227  16.199  0.0877 -0.5195 -0.2055
17697TIP3    H174506   0.909   2.227  16.198  0.1296 -2.0731  0.5016
17697TIP3    H274507   0.790   2.315  16.228  1.3432 -0.5203  0.9225
17698TIP3   OH274508   3.586   6.758   3.587  0.5026  0.2795  0.1515
17698TIP3    H174509   3.507   6.768   3.639  0.1922  1.6744 -0.5229
17698TIP3    H274510   3.569   6.684   3.530 -1.4708  2.1190 -1.8438
17699TIP3   OH274511   1.326   5.366   2.186  0.3630 -0.3741  0.1733
17699TIP3    H174512   1.268   5.420   2.132  0.5805 -0.5277 -0.2166
17699TIP3    H274513   1.376   5.429   2.237 -1.0347 -0.2499  1.4744
17700TIP3   OH274514   0.247   3.591   0.725  0.2409 -0.1842  0.1102
17700TIP3    H174515   0.158   3.576   0.692  0.3455 -3.2276  0.8889
17700TIP3    H274516   0.247   3.549   0.811  1.8288  1.8291  1.1828
17701TIP3   OH274517   0.966   3.308   3.544  0.2387  0.2255  0.2544
17701TIP3    H174518   0.959   3.237   3.607 -0.9827 -0.0518 -0.1715
17701TIP3    H274519   0.891   3.297   3.486  0.8650  0.9669 -0.7484
17702TIP3   OH274520   2.075   0.409  14.402  0.3017  0.2114  0.3944
17702TIP3    H174521   2.059   0.476  14.336  0.5176  0.5315  0.6675
17702TIP3    H274522   2.145   0.445  14.457  0.0473 -0.0052  0.8634
17703TIP3   OH274523   3.692   3.090   4.698 -0.2261  0.0534 -0.0856
17703TIP3    H174524   3.670   3.182   4.685  1.8409  0.4358 -1.3625
17703TIP3    H274525   3.742   3.088   4.780  0.6319  0.2586 -0.5942
17704TIP3   OH274526   0.018   2.049   4.520 -0.1062  0.1949 -0.4534
17704TIP3    H174527   0.006   2.023   4.428 -0.7211  1.4626 -0.7549
17704TIP3    H274528   0.004   2.144   4.520 -0.6203  0.1400  1.0460
17705TIP3   OH274529   0.043   0.861   5.199 -0.1394 -0.3450  0.3420
17705TIP3    H174530  -0.038   0.863   5.250 -1.1645 -2.1085 -1.0988
17705TIP3    H274531   0.098   0.797   5.245  0.5730  0.9902  1.4278
17706TIP3   OH274532   6.403   2.487   4.568  0.0438  0.5166  0.2463
17706TIP3    H174533   6.431   2.444   4.487  0.5693 -0.2536  0.8156
17706TIP3    H274534   6.311   2.509   4.554  0.3682  1.2153 -0.8930
17707TIP3   OH274535   2.270   2.484  11.391  0.0151 -0.3094  0.4511
17707TIP3    H174536   2.330   2.559  11.401  0.2806 -0.3563 -0.6492
17707TIP3    H274537   2.271   2.465  11.297  0.1175 -1.8412  0.7345
17708TIP3   OH274538   4.892   5.814   5.274  0.0008  0.1027 -0.3802
17708TIP3    H174539   4.878   5.738   5.330 -0.0937  0.2323 -0.2275
17708TIP3    H274540   4.984   5.809   5.248 -0.5729 -1.4817 -2.4287
17709TIP3   OH274541   6.091   5.082   6.349 -0.1488  0.1145 -0.5683
17709TIP3    H174542   6.157   5.076   6.417 -1.5998  1.1542  1.0129
17709TIP3    H274543   6.029   5.148   6.381 -1.1770  0.2433 -2.6489
17710TIP3   OH274544   3.088   5.868  13.091 -0.1818  0.3017 -0.1154
17710TIP3    H174545   3.102   5.821  13.173  1.8768  2.5698  0.9599
17710TIP3    H274546   3.132   5.814  13.025  0.4720 -0.2308  0.7311
17711TIP3   OH274547   1.287   3.562  15.636 -0.1872 -1.0384 -0.0421
17711TIP3    H174548   1.273   3.469  15.652 -2.5827 -0.5280  1.1828
17711TIP3    H274549   1.258   3.606  15.716  2.5758  0.7292  0.1533
17712TIP3   OH274550   3.482   5.687   4.253 -0.2789 -0.4344 -0.5510
17712TIP3    H174551   3.526   5.748   4.313 -1.7439  0.4405 -0.3390
17712TIP3    H274552   3.397   5.670   4.294 -0.3721 -1.7112 -1.2121
17713TIP3   OH274553   0.222   4.091  12.421  0.2688  0.2859 -0.3112
17713TIP3    H174554   0.237   4.175  12.378  3.2627  0.4923  0.8434
17713TIP3    H274555   0.216   4.113  12.514 -0.0565 -0.6655 -0.1024
17714TIP3   OH274556   1.898   4.071   6.653 -0.5759 -0.1746  1.2947
17714TIP3    H174557   1.943   4.103   6.575 -1.3723  0.3872  1.0522
17714TIP3    H274558   1.821   4.128   6.661 -0.4906 -0.2118  2.5021
17715TIP3   OH274559   4.831   2.971   4.990 -0.7213 -0.0158 -0.3911
17715TIP3    H174560   4.811   2.890   5.037  1.1845 -1.9753 -2.7130
17715TIP3    H274561   4.761   2.980   4.926 -0.3321 -0.4974 -0.8930
17716TIP3   OH274562   3.779   4.198   3.393  0.4450  0.4706  0.0781
17716TIP3    H174563   3.802   4.283   3.430  0.3671  0.4882  0.0844
17716TIP3    H274564   3.730   4.218   3.314  2.0581  0.4550 -0.9803
17717TIP3   OH274565   2.738   6.418  15.223  0.4114 -0.0401 -0.6631
17717TIP3    H174566   2.764   6.478  15.153 -1.6672  1.7044 -0.0492
17717TIP3    H274567   2.759   6.331  15.189  3.1051  0.9394 -1.7895
17718TIP3   OH274568   4.155   2.565   5.358  0.6038  0.1663  0.6150
17718TIP3    H174569   4.089   2.629   5.328  0.0838 -0.1714  1.0234
17718TIP3    H274570   4.104   2.487   5.378  0.9166  0.4186  2.5050
17719TIP3   OH274571   0.266   5.287   3.008  0.2154 -0.2717  0.1912
17719TIP3    H174572   0.186   5.237   3.025 -0.5725  0.3448 -1.4793
17719TIP3    H274573   0.317   5.231   2.951 -0.9717  0.9787 -2.2538
17720TIP3   OH274574   1.019   3.350  14.327 -0.7904 -0.1121  0.7100
17720TIP3    H174575   0.932   3.325  14.357  0.1404 -0.1406  3.6093
17720TIP3    H274576   1.071   3.360  14.406  1.6838  0.6714 -0.8780
17721TIP3   OH274577   4.697   4.547  10.949 -0.7711 -1.0031  0.4516
17721TIP3    H174578   4.788   4.523  10.930 -0.7036 -1.4922  1.3476
17721TIP3    H274579   4.658   4.561  10.862  0.5603  0.8433  0.0827
17722TIP3   OH274580   5.643   3.166  12.718 -0.2387  0.1890 -0.3193
17722TIP3    H174581   5.564   3.220  12.726 -0.1568  0.2687 -0.0278
17722TIP3    H274582   5.705   3.222  12.671 -0.1782  0.3241 -0.0801
17723TIP3   OH274583   4.969   3.684  16.822  1.0998 -0.2385 -0.3418
17723TIP3    H174584   4.969   3.650  16.912 -1.0006 -0.6521 -0.4285
17723TIP3    H274585   4.919   3.619  16.772  0.2766  1.0850 -1.3188
17724TIP3   OH274586   3.276   1.274  14.871  0.3022 -0.2716  0.5160
17724TIP3    H174587   3.188   1.310  14.865 -0.5578 -2.2371  0.7080
17724TIP3    H274588   3.299   1.282  14.964  1.1966  2.0501  0.1728
17725TIP3   OH274589   1.702   1.601  11.733 -0.0311  0.5806  0.5538
17725TIP3    H174590   1.659   1.627  11.814 -0.4403  0.3842  0.4012
17725TIP3    H274591   1.641   1.626  11.664 -0.4265 -0.7294  0.3944
17726TIP3   OH274592   4.885   3.036  17.080  0.3328 -0.2818  0.2977
17726TIP3    H174593   4.855   3.000  17.164 -0.8196  0.3223  0.1658
17726TIP3    H274594   4.812   3.020  17.020  1.9024 -2.5613 -1.1606
17727TIP3   OH274595   1.506   3.229   2.911 -0.3160  0.0484 -0.5738
17727TIP3    H174596   1.513   3.305   2.969  0.0499  0.2400 -0.8644
17727TIP3    H274597   1.547   3.158   2.960  0.4737  0.3330 -0.8073
17728TIP3   OH274598   5.358   5.072  15.794 -0.4734  0.4494 -0.0877
17728TIP3    H174599   5.430   5.009  15.795  0.3073  1.2914  2.0734
17728TIP3    H274600   5.291   5.033  15.849 -1.9145 -0.4769 -2.3432
17729TIP3   OH274601   0.193   5.364  12.858 -0.1942 -0.0710  0.2889
17729TIP3    H174602   0.151   5.363  12.945 -2.3152 -1.1643 -0.6683
17729TIP3    H274603   0.134   5.417  12.804 -0.0485 -1.1586 -0.9842
17730TIP3   OH274604   0.561   3.829   5.325 -0.3071 -0.0132 -0.6338
17730TIP3    H174605   0.564   3.850   5.418 -0.3481 -1.2044 -0.3468
17730TIP3    H274606   0.598   3.741   5.319 -0.8934 -0.2055 -1.6586
17731TIP3   OH274607   4.463   4.984   2.315 -0.0161  0.4654 -0.4284
17731TIP3    H174608   4.407   5.040   2.261 -0.2919  1.6391  0.9997
17731TIP3    H274609   4.405   4.950   2.382  0.3762 -0.7486 -0.6886
17732TIP3   OH274610   2.402   3.618   3.627  0.4917 -0.6058 -0.0839
17732TIP3    H174611   2.449   3.699   3.649  0.7974 -0.8726  0.2857
17732TIP3    H274612   2.460   3.573   3.566  0.7722 -0.9795  0.4453
17733TIP3   OH274613   3.210   1.435   2.910 -0.2099  0.8324  0.0320
17733TIP3    H174614   3.136   1.467   2.961 -2.5277 -3.7313  0.0543
17733TIP3    H274615   3.195   1.471   2.822 -0.2683  2.9460  0.8552
17734TIP3   OH274616   4.400   2.727   3.872 -0.3724  0.3355  0.0991
17734TIP3    H174617   4.315   2.720   3.915  0.4008 -0.5210  1.5394
17734TIP3    H274618   4.435   2.638   3.873  0.7019  0.7400 -0.1466
17735TIP3   OH274619   6.490   0.649  13.719 -0.0996  0.2689 -0.6047
17735TIP3    H174620   6.404   0.689  13.732 -0.2013 -0.2108  0.3559
17735TIP3    H274621   6.482   0.601  13.637 -1.2866 -1.0638  0.2344
17736TIP3   OH274622   3.644   0.250  15.039 -0.5887 -0.2402  0.3595
17736TIP3    H174623   3.640   0.328  14.984 -0.9425 -1.2780 -1.1508
17736TIP3    H274624   3.737   0.227  15.041 -0.7245 -1.0520 -1.1185
17737TIP3   OH274625   4.997   5.125   4.767  0.3279 -0.7103 -0.1458
17737TIP3    H174626   4.941   5.050   4.745 -0.4796 -0.1321 -0.0877
17737TIP3    H274627   5.010   5.171   4.684  1.2381 -1.1757 -0.2776
17738TIP3   OH274628   1.488   5.469   1.661 -0.0031 -0.6118  0.5710
17738TIP3    H174629   1.416   5.420   1.700  0.1402 -1.7941 -0.5663
17738TIP3    H274630   1.558   5.404   1.650  1.0428  0.3715  1.1062
17739TIP3   OH274631   6.617   2.414   1.909  0.1031  0.2741  0.2176
17739TIP3    H174632   6.602   2.495   1.860  0.2645 -0.2932 -0.7986
17739TIP3    H274633   6.694   2.433   1.963 -0.3819  1.0764  0.6454
17740TIP3   OH274634   2.102   5.109   5.837  0.1542  0.0797 -0.0729
17740TIP3    H174635   2.079   5.169   5.908  2.2019  1.9071 -0.8450
17740TIP3    H274636   2.023   5.100   5.785 -0.8211  0.2649  1.3239
17741TIP3   OH274637   2.128   0.203  15.201 -0.1635  0.4136  0.4884
17741TIP3    H174638   2.117   0.219  15.107 -0.7851  2.6932  0.8812
17741TIP3    H274639   2.068   0.131  15.220 -0.7762  0.5861 -0.6894
17742TIP3   OH274640   3.524   2.532  12.489 -0.2237  0.2916  0.1180
17742TIP3    H174641   3.512   2.437  12.495  1.0603  0.1739  1.1410
17742TIP3    H274642   3.562   2.546  12.403 -0.1947 -0.1492  0.0563
17743TIP3   OH274643   1.915   2.434  13.190  0.4383 -0.4238  0.2879
17743TIP3    H174644   1.979   2.499  13.159 -1.8325  2.4797  1.1464
17743TIP3    H274645   1.918   2.364  13.125  2.1323  1.1397 -1.4697
17744TIP3   OH274646   3.158   1.395  12.885  0.1233 -0.5267 -0.0005
17744TIP3    H174647   3.192   1.438  12.964  0.9080 -0.2262 -0.4937
17744TIP3    H274648   3.126   1.467  12.831  2.3767 -0.4163 -1.2822
17745TIP3   OH274649   2.822   5.258  11.379 -0.6359 -0.0337 -0.0490
17745TIP3    H174650   2.866   5.176  11.400  0.4523  0.4801 -0.1822
17745TIP3    H274651   2.835   5.313  11.457 -3.1189 -0.6387  0.8610
17746TIP3   OH274652   2.546   3.989   6.733  0.0541 -0.0042  0.0413
17746TIP3    H174653   2.528   3.967   6.641  0.7364  0.7370 -0.2891
17746TIP3    H274654   2.504   3.920   6.783 -0.1435 -0.5455 -0.8470
17747TIP3   OH274655   1.450   5.283   4.276  0.0843 -0.1606 -0.0304
17747TIP3    H174656   1.445   5.188   4.285  0.9357 -0.4744 -2.2810
17747TIP3    H274657   1.387   5.304   4.207 -0.5158  1.0098  0.8346
17748TIP3   OH274658   0.831   2.780  11.593 -0.5908  0.2924 -0.0654
17748TIP3    H174659   0.897   2.818  11.651  0.5148 -1.6233  0.0140
17748TIP3    H274660   0.763   2.747  11.652 -0.4857  0.2084  0.0090
17749TIP3   OH274661   3.442   5.347  12.054 -0.1519  0.0046 -0.2987
17749TIP3    H174662   3.429   5.263  12.009  0.4158 -0.2526 -0.0028
17749TIP3    H274663   3.359   5.363  12.100 -0.5216 -0.0282 -0.9458
17750TIP3   OH274664   3.540   4.626  16.024  0.3400  0.4647  0.1564
17750TIP3    H174665   3.549   4.531  16.024 -0.8953  0.3182 -1.1574
17750TIP3    H274666   3.624   4.658  16.058  0.4667 -1.0952  1.4020
17751TIP3   OH274667   5.698   5.302   1.617  0.3586  0.5970  0.1323
17751TIP3    H174668   5.666   5.281   1.705 -0.3536  0.1090 -0.2320
17751TIP3    H274669   5.717   5.395   1.620 -2.7246  1.3555 -0.0678
17752TIP3   OH274670   4.120   0.289   0.267 -0.7931  0.4464  0.1960
17752TIP3    H174671   4.157   0.299   0.354  1.1083 -1.1582 -0.3718
17752TIP3    H274672   4.080   0.202   0.267  1.4707 -0.6828 -1.2266
17753TIP3   OH274673   2.717   6.459   4.919  0.2199 -0.3313  0.7691
17753TIP3    H174674   2.753   6.378   4.955 -2.2034 -1.2376  1.3857
17753TIP3    H274675   2.683   6.433   4.833  1.6725  0.6747 -0.1419
17754TIP3   OH274676   3.492   3.358  10.661 -0.1274  0.1919  0.4773
17754TIP3    H174677   3.418   3.299  10.647  0.9056 -1.0086 -0.1235
17754TIP3    H274678   3.483   3.423  10.592 -0.7046  0.1454  0.5007
17755TIP3   OH274679   3.290   4.360  14.719 -0.1641 -0.3952 -0.5517
17755TIP3    H174680   3.243   4.377  14.801 -0.1079  0.0314 -0.6071
17755TIP3    H274681   3.231   4.303  14.670 -0.7378  0.3258 -0.7185
17756TIP3   OH274682   6.080   1.728   1.759  0.1588 -0.0083 -0.6674
17756TIP3    H174683   6.099   1.796   1.823  1.4011 -2.0088  1.2179
17756TIP3    H274684   5.985   1.723   1.757  0.0566  1.4461 -0.5274
17757TIP3   OH274685   4.452   1.187   0.164 -0.5786  0.0768  0.0360
17757TIP3    H174686   4.520   1.253   0.175  0.0653 -0.6484  0.4180
17757TIP3    H274687   4.464   1.155   0.074 -0.4075 -0.0662  0.1107
17758TIP3   OH274688   0.885   4.603  13.161  0.4330 -0.3944 -0.2553
17758TIP3    H174689   0.856   4.560  13.080 -0.0244 -0.2112 -0.1954
17758TIP3    H274690   0.959   4.551  13.191  0.9670 -0.1427 -1.0861
17759TIP3   OH274691   5.710   2.837   1.122 -0.5190  1.0591 -0.1187
17759TIP3    H174692   5.793   2.866   1.084 -0.3171 -1.0650 -1.4619
17759TIP3    H274693   5.643   2.886   1.074 -0.2154 -0.8036 -2.6967
17760TIP3   OH274694   3.225   5.384   0.767 -0.3101 -0.5477  0.0079
17760TIP3    H174695   3.293   5.329   0.805 -1.7068 -1.9553  0.5670
17760TIP3    H274696   3.195   5.337   0.689 -0.0629  0.4972 -0.7542
17761TIP3   OH274697   3.320   2.707  15.184  1.0236  0.0384  0.3159
17761TIP3    H174698   3.288   2.718  15.273 -0.7950  0.9803 -0.4102
17761TIP3    H274699   3.351   2.616  15.180 -1.2176 -0.8338  1.2101
17762TIP3   OH274700   1.463   4.316   5.678 -0.4930 -0.4569  0.5211
17762TIP3    H174701   1.547   4.270   5.682 -0.7200 -1.0788 -0.9581
17762TIP3    H274702   1.449   4.332   5.584  0.2248  3.9285  0.9452
17763TIP3   OH274703   0.802   6.156  12.799  0.3012 -0.1277  1.1829
17763TIP3    H174704   0.854   6.082  12.831 -0.2013  0.4986  3.6811
17763TIP3    H274705   0.861   6.232  12.809  0.7817 -0.1122 -1.2642
17764TIP3   OH274706   5.006   5.811   1.314  0.1188  0.1893 -0.3655
17764TIP3    H174707   5.083   5.867   1.330  0.5609 -0.4440 -0.2194
17764TIP3    H274708   5.044   5.726   1.292 -0.5571 -0.6387  1.5555
17765TIP3   OH274709   4.551   0.217  14.955 -0.0619 -0.0441  0.2371
17765TIP3    H174710   4.562   0.163  15.033 -0.7649  0.1533  0.4860
17765TIP3    H274711   4.639   0.224  14.918 -0.1403 -2.3938 -0.5213
17766TIP3   OH274712   4.729   2.722  15.824 -0.0902  0.6044  0.1802
17766TIP3    H174713   4.664   2.653  15.837 -1.6771  1.8801 -0.6427
17766TIP3    H274714   4.684   2.803  15.849  0.5060  1.7665 -2.2377
17767TIP3   OH274715   0.757   2.052   4.529 -0.2741  0.7925 -0.1412
17767TIP3    H174716   0.822   2.080   4.464  0.0563  0.4501  0.0387
17767TIP3    H274717   0.803   2.056   4.612  0.0789 -1.1721 -0.2028
17768TIP3   OH274718   3.775   4.712  11.613 -0.0534  0.0473 -0.4796
17768TIP3    H174719   3.740   4.626  11.588  0.0880  0.0160 -0.5733
17768TIP3    H274720   3.701   4.759  11.650 -0.3859  0.2794 -1.4197
17769TIP3   OH274721   3.187   2.415   1.115 -0.5445 -0.7717  0.0155
17769TIP3    H174722   3.215   2.372   1.195 -0.0627 -0.0889  0.2177
17769TIP3    H274723   3.097   2.383   1.101 -0.2719 -1.6704  0.2661
17770TIP3   OH274724   4.083   1.553  13.299 -0.3682  0.8157  0.4037
17770TIP3    H174725   4.159   1.590  13.253  0.2367 -0.6347  0.2025
17770TIP3    H274726   4.116   1.530  13.385 -0.4690 -0.1909  0.1797
17771TIP3   OH274727   1.294   0.453   1.222 -0.2190  0.6874 -0.1645
17771TIP3    H174728   1.384   0.486   1.222 -0.0906  0.3463  0.1307
17771TIP3    H274729   1.240   0.530   1.208  0.0727  1.0203  0.5022
17772TIP3   OH274730   2.316   4.948   1.594 -0.1611  0.1981  0.0869
17772TIP3    H174731   2.375   4.987   1.659  0.5166 -0.6814  0.0076
17772TIP3    H274732   2.351   4.860   1.579 -1.5680 -0.3895  0.1323
17773TIP3   OH274733   4.463   0.748   2.518  0.7319  0.0477  0.0889
17773TIP3    H174734   4.469   0.834   2.561  2.1438 -0.0429  0.1390
17773TIP3    H274735   4.453   0.769   2.425  0.4680  0.2662  0.1662
17774TIP3   OH274736   2.003   6.083  16.463  0.6966  0.1544  0.2153
17774TIP3    H174737   1.981   6.101  16.372 -0.6243 -0.7766  0.3255
17774TIP3    H274738   2.093   6.116  16.473  1.4473 -1.0720 -1.8149
17775TIP3   OH274739   4.238   3.090   4.945  0.0116  0.3828 -0.1699
17775TIP3    H174740   4.308   3.072   5.007  0.1772 -1.2601 -0.7915
17775TIP3    H274741   4.194   3.006   4.933 -2.1060  1.3595  0.2243
17776TIP3   OH274742   0.005   3.092   0.524  0.6878  0.0699 -0.2395
17776TIP3    H174743  -0.076   3.042   0.533  0.9258 -0.2219  0.2922
17776TIP3    H274744   0.056   3.043   0.460  0.5744  0.0936 -0.3505
17777TIP3   OH274745   2.736   1.831   5.388  0.3684 -0.1824  0.1366
17777TIP3    H174746   2.716   1.892   5.317 -0.4300  3.4127  3.1480
17777TIP3    H274747   2.656   1.778   5.396 -0.2952  0.7002 -0.3969
17778TIP3   OH274748   5.694   0.018  11.755 -0.5999  0.4230  0.1997
17778TIP3    H174749   5.618   0.075  11.773 -1.3949 -0.7783  0.7883
17778TIP3    H274750   5.713  -0.023  11.839 -0.3673 -0.5473 -0.3128
17779TIP3   OH274751   0.368   2.637  15.816  0.6284  0.2546  0.2334
17779TIP3    H174752   0.329   2.623  15.730  0.9096  0.9352 -0.0081
17779TIP3    H274753   0.438   2.572  15.822  0.4467  0.0408  0.0582
17780TIP3   OH274754   4.691   6.256  15.300 -0.2551  0.2870  0.4143
17780TIP3    H174755   4.681   6.168  15.338 -1.8999  0.1785 -0.1616
17780TIP3    H274756   4.696   6.241  15.206  1.0630  0.7361  0.3927
17781TIP3   OH274757   2.520   2.980  11.752  0.3690  0.3219 -0.3049
17781TIP3    H174758   2.589   2.988  11.686 -0.6740  1.7511 -1.3029
17781TIP3    H274759   2.491   2.889  11.746  2.1284 -0.3111  0.1435
17782TIP3   OH274760   2.520   3.271   6.563 -0.1333  0.3667  0.4208
17782TIP3    H174761   2.606   3.305   6.539 -1.2948  2.1317 -1.6527
17782TIP3    H274762   2.459   3.318   6.506 -2.3485 -1.9296  0.7048
17783TIP3   OH274763   1.755   3.077  11.022 -0.4087 -0.0677  0.4052
17783TIP3    H174764   1.754   3.172  11.026 -0.5192  0.0020 -0.9749
17783TIP3    H274765   1.774   3.050  11.112 -1.7337  1.2100  1.1217
17784TIP3   OH274766   0.505   3.155   0.672 -0.1242 -0.0863 -0.1770
17784TIP3    H174767   0.527   3.103   0.749  0.1010 -0.1898 -0.3115
17784TIP3    H274768   0.445   3.222   0.705  0.8145  0.5379  0.3084
17785TIP3   OH274769   3.296   5.028   1.372  0.0241 -0.0130 -0.5178
17785TIP3    H174770   3.269   5.058   1.459 -0.3624  1.2500 -1.0565
17785TIP3    H274771   3.350   4.951   1.389 -3.1961 -2.2226  0.6518
17786TIP3   OH274772   0.010   4.396  11.045 -0.4299  0.0767 -0.2425
17786TIP3    H174773   0.037   4.342  10.971  1.3364  0.2420  0.2493
17786TIP3    H274774   0.066   4.474  11.040 -1.7866  1.1136  0.0271
17787TIP3   OH274775   1.754   6.566  11.903  0.1543  0.3096  0.2828
17787TIP3    H174776   1.676   6.537  11.857 -0.2655 -1.7297  2.1156
17787TIP3    H274777   1.801   6.485  11.924  0.4155  1.0888  3.1760
17788TIP3   OH274778   5.865   2.279   4.094  0.5078 -0.3055  0.2921
17788TIP3    H174779   5.860   2.320   4.180  0.1042 -0.8394  0.5287
17788TIP3    H274780   5.937   2.217   4.101  0.8795  0.0892  0.0467
17789TIP3   OH274781   4.842   3.417   5.502  0.0157  0.3185 -0.4887
17789TIP3    H174782   4.916   3.424   5.562 -0.5432 -2.7111  0.7406
17789TIP3    H274783   4.804   3.505   5.501  2.7152  1.6049 -0.0431
17790TIP3   OH274784   4.722   1.446  16.567 -0.0417  0.1438  0.0023
17790TIP3    H174785   4.734   1.537  16.541  0.9537  0.0216 -0.0184
17790TIP3    H274786   4.636   1.444  16.609 -1.0427  0.6390 -1.9305
17791TIP3   OH274787   6.520   6.072   4.367  0.3093 -0.4015 -0.0282
17791TIP3    H174788   6.463   6.039   4.437  0.5902  0.9224  0.8699
17791TIP3    H274789   6.519   6.003   4.301 -2.0630 -0.5955  0.0992
17792TIP3   OH274790   2.916   6.658   4.918  0.1918 -0.0110 -0.3229
17792TIP3    H174791   2.867   6.735   4.889  0.6772  0.1062 -0.8449
17792TIP3    H274792   2.849   6.588   4.923 -0.2592  0.4503  0.2251
17793TIP3   OH274793   5.969   0.151   5.664  0.4431 -0.1625 -0.4128
17793TIP3    H174794   5.954   0.113   5.578 -0.1476 -0.8250 -0.0269
17793TIP3    H274795   5.903   0.219   5.672  0.2157 -0.3922 -0.3155
17794TIP3   OH274796   3.591   3.699   0.724 -0.4330  0.2467  0.0638
17794TIP3    H174797   3.620   3.786   0.695  2.4465  0.2260  2.3899
17794TIP3    H274798   3.636   3.638   0.666 -2.4296  0.2236 -1.5488
17795TIP3   OH274799   6.064   6.439  11.403 -0.0195  0.3196 -0.5647
17795TIP3    H174800   6.045   6.429  11.309 -0.2024  0.5612 -0.5530
17795TIP3    H274801   5.990   6.397  11.447 -0.4395  1.0984 -0.5218
17796TIP3   OH274802   6.079   4.283   5.764 -0.1180 -0.5012 -0.5320
17796TIP3    H174803   6.138   4.210   5.747 -0.9199 -0.5478 -3.6973
17796TIP3    H274804   6.088   4.340   5.688  0.5015  2.8222  1.8231
17797TIP3   OH274805   4.333   1.362  12.378  0.3640 -0.3275 -0.2314
17797TIP3    H174806   4.344   1.314  12.460 -0.3791 -0.1335 -0.0071
17797TIP3    H274807   4.273   1.307  12.327 -1.6189  0.9642  0.5755
17798TIP3   OH274808   3.608   0.125  16.351 -0.2012 -0.0809  0.0411
17798TIP3    H174809   3.626   0.145  16.443 -1.0999 -0.1279  0.2348
17798TIP3    H274810   3.546   0.193  16.324 -0.0662 -0.1670 -0.4872
17799TIP3   OH274811   6.529   5.426   3.817  0.1610 -0.0053  0.2635
17799TIP3    H174812   6.593   5.357   3.801 -0.3299 -0.8976  1.8794
17799TIP3    H274813   6.481   5.435   3.735  3.0148  1.4845 -1.3968
17800TIP3   OH274814   0.937   1.853  16.292 -0.1781  0.3143  0.1206
17800TIP3    H174815   0.988   1.928  16.322  0.9350  0.0494 -0.9796
17800TIP3    H274816   1.001   1.782  16.287 -0.8076 -0.2190 -0.6223
17801TIP3   OH274817   2.630   5.826  16.662  0.1884  0.1139  0.9014
17801TIP3    H174818   2.725   5.835  16.653  0.0142  1.7029  0.3980
17801TIP3    H274819   2.595   5.910  16.633 -1.4758 -0.9996 -0.5700
17802TIP3   OH274820   0.359   1.189  16.781  0.5084 -0.4332 -0.2495
17802TIP3    H174821   0.385   1.097  16.785  1.3183 -0.1676  1.9203
17802TIP3    H274822   0.363   1.219  16.871  3.1827  2.5410 -1.1983
17803TIP3   OH274823   3.377   6.053  11.098 -0.2397  0.3904 -0.4712
17803TIP3    H174824   3.394   5.959  11.109 -0.4957  0.3234 -0.6403
17803TIP3    H274825   3.456   6.087  11.055 -0.4346  0.1205 -1.0555
17804TIP3   OH274826   0.459   5.551  14.803 -0.0469 -0.7942  0.0114
17804TIP3    H174827   0.448   5.483  14.737 -0.6450  2.0803 -3.1157
17804TIP3    H274828   0.370   5.584  14.818  0.4666  0.9347 -0.5180
17805TIP3   OH274829   4.941   3.254  13.446 -0.6403  0.1359  0.1918
17805TIP3    H174830   5.000   3.210  13.386  0.2043  1.5186 -0.0349
17805TIP3    H274831   4.867   3.282  13.391  0.0805  1.3053 -0.2233
17806TIP3   OH274832   5.513   2.676  11.866  0.2982 -0.3612 -0.7599
17806TIP3    H174833   5.454   2.722  11.926 -0.4638 -1.6563 -0.4675
17806TIP3    H274834   5.590   2.657  11.919  0.3547  0.0274 -0.7003
17807TIP3   OH274835   4.563   5.080  13.110  0.3550 -0.3248  0.1862
17807TIP3    H174836   4.489   5.019  13.106  0.0381  0.0268  0.5886
17807TIP3    H274837   4.630   5.040  13.054 -0.7101  0.1392 -1.4803
17808TIP3   OH274838   0.316   6.547  12.078  0.0439 -0.1419  0.6742
17808TIP3    H174839   0.286   6.473  12.025  0.2205  0.6647 -0.6144
17808TIP3    H274840   0.409   6.529  12.093  0.0736 -0.2190  0.4135
17809TIP3   OH274841   0.881   6.723  16.372 -0.1160 -0.0119 -0.7685
17809TIP3    H174842   0.810   6.760  16.424  0.9151  0.6261  0.2171
17809TIP3    H274843   0.940   6.796  16.355 -1.2377  0.2229 -4.3792
17810TIP3   OH274844   4.569   5.203  14.291 -0.0209  0.0901  0.4608
17810TIP3    H174845   4.594   5.111  14.293 -2.6808 -0.7787 -1.4211
17810TIP3    H274846   4.581   5.230  14.200 -0.7747  1.1505  0.6540
17811TIP3   OH274847   2.885   4.215  15.312 -0.3109  0.0310  0.3968
17811TIP3    H174848   2.919   4.144  15.365  2.4797  0.1138 -1.1249
17811TIP3    H274849   2.933   4.293  15.342 -0.4755  0.5273 -0.5733
17812TIP3   OH274850   5.673   4.805   1.513  0.3671 -0.3100  0.7653
17812TIP3    H174851   5.626   4.866   1.457  0.3987 -0.4570  0.5784
17812TIP3    H274852   5.758   4.793   1.471  0.3882 -0.4275  0.8375
17813TIP3   OH274853   5.781   1.655   1.225  0.5202  0.3152 -0.6068
17813TIP3    H174854   5.819   1.619   1.306 -0.3714  0.5862 -0.0469
17813TIP3    H274855   5.691   1.677   1.249  1.1783  3.6279 -0.6490
17814TIP3   OH274856   3.711   0.489  12.475  0.5300  0.3686  0.2055
17814TIP3    H174857   3.622   0.513  12.450  0.4921  0.4737  0.4401
17814TIP3    H274858   3.766   0.524  12.404  0.4795  1.2054  0.5631
17815TIP3   OH274859   3.442   6.665  14.614  0.4432 -0.0487 -0.4123
17815TIP3    H174860   3.401   6.675  14.700 -0.3853 -0.3239 -0.7676
17815TIP3    H274861   3.415   6.578  14.584 -1.1358  0.8846 -1.9046
17816TIP3   OH274862   5.202   4.532  14.069  0.3703  0.0578  0.2669
17816TIP3    H174863   5.178   4.547  13.978 -2.4873  2.3477  1.2443
17816TIP3    H274864   5.262   4.603  14.090 -0.0606  0.3556  0.5073
17817TIP3   OH274865   1.149   2.305  11.717 -0.2103 -0.2037  0.4125
17817TIP3    H174866   1.080   2.268  11.772 -1.5333  0.8111 -0.5069
17817TIP3    H274867   1.181   2.381  11.766 -1.6436  0.9194 -0.3413
17818TIP3   OH274868   0.158   0.925  10.868 -0.1921 -0.2327 -0.0870
17818TIP3    H174869   0.112   0.844  10.889 -1.7956  0.2613 -1.5182
17818TIP3    H274870   0.236   0.897  10.819 -0.4985 -0.9309 -0.1815
17819TIP3   OH274871   1.831   4.303   1.823  0.1506  0.3973 -0.6112
17819TIP3    H174872   1.798   4.343   1.903  1.0547  0.0707 -0.0560
17819TIP3    H274873   1.915   4.264   1.849 -0.4942 -1.5114 -1.2057
17820TIP3   OH274874   3.956   2.362   5.466 -0.1004  0.2973 -0.1057
17820TIP3    H174875   3.998   2.289   5.513  0.4470  0.7227  0.0871
17820TIP3    H274876   3.864   2.338   5.461  0.0408 -0.3144  0.1350
17821TIP3   OH274877   4.844   1.692  16.382  0.1638 -0.3825  0.3688
17821TIP3    H174878   4.850   1.785  16.358 -0.3005 -0.4137  0.1339
17821TIP3    H274879   4.915   1.651  16.333 -0.0773 -0.2645 -0.0845
17822TIP3   OH274880   1.863   2.783  13.987 -0.0539 -0.1275 -0.1626
17822TIP3    H174881   1.815   2.714  13.942 -0.0082 -0.2928  0.0386
17822TIP3    H274882   1.956   2.763  13.971 -0.0065  1.8317 -3.0595
17823TIP3   OH274883   1.185   1.368  14.529  0.4167  0.4883 -0.3730
17823TIP3    H174884   1.273   1.332  14.540 -0.0034 -0.4536  0.0864
17823TIP3    H274885   1.199   1.459  14.502  1.5499 -0.3768 -3.0696
17824TIP3   OH274886   2.171   3.392  13.151  0.3096 -0.1040 -0.2125
17824TIP3    H174887   2.167   3.297  13.160  0.0877 -0.0001  1.0365
17824TIP3    H274888   2.137   3.425  13.235  0.0642  1.0727 -0.7592
17825TIP3   OH274889   5.639   3.935  12.667 -0.5831 -0.0808 -0.0644
17825TIP3    H174890   5.562   3.986  12.691  0.5931  1.9647 -0.4200
17825TIP3    H274891   5.703   4.000  12.636  2.2710 -1.2772  2.6955
17826TIP3   OH274892   5.993   2.583  13.363  0.1725  0.4697 -0.1526
17826TIP3    H174893   5.946   2.666  13.365  0.7920  0.8938 -1.5159
17826TIP3    H274894   6.061   2.591  13.429 -0.9168  0.3030  1.0195
17827TIP3   OH274895   3.937   6.274   3.955  0.1295  0.0509  0.1381
17827TIP3    H174896   4.018   6.273   3.904 -0.0766  3.0992 -0.4439
17827TIP3    H274897   3.956   6.333   4.028 -0.4315 -2.1829  2.2187
17828TIP3   OH274898   2.426   1.863  16.225 -0.0050  0.7405  0.2566
17828TIP3    H174899   2.332   1.852  16.217 -0.0473 -0.2027  1.6508
17828TIP3    H274900   2.451   1.916  16.150 -1.1250 -1.8137 -2.0966
17829TIP3   OH274901   5.770   4.921  16.649  0.5126  0.5740 -0.5272
17829TIP3    H174902   5.832   4.923  16.576 -2.1034  1.2393 -2.9236
17829TIP3    H274903   5.690   4.885  16.611 -0.9377  0.7975  2.0852
17830TIP3   OH274904   6.217   1.356  14.546 -0.0607 -0.2779 -0.0138
17830TIP3    H174905   6.281   1.353  14.616 -0.1903 -0.6872  0.0909
17830TIP3    H274906   6.153   1.421  14.575 -0.9526 -1.5574  0.9885
17831TIP3   OH274907   6.078   2.086  11.939  0.2738 -0.0129  0.0485
17831TIP3    H174908   6.123   2.114  12.019  0.1164  0.4641 -0.0310
17831TIP3    H274909   6.006   2.148  11.928  1.0956  0.7760 -1.2058
17832TIP3   OH274910   2.387   4.527  14.714 -0.2724  0.5138 -0.5162
17832TIP3    H174911   2.403   4.436  14.739 -0.5165  0.4550 -0.5720
17832TIP3    H274912   2.421   4.579  14.787  1.3327  0.4523 -1.1613
17833TIP3   OH274913   0.127   0.721   1.087 -0.2492  0.0286  0.1166
17833TIP3    H174914   0.137   0.639   1.040 -0.3911  1.3531 -2.4269
17833TIP3    H274915   0.217   0.752   1.101 -0.2252  0.5604 -1.1159
17834TIP3   OH274916   5.606   3.249  14.630  0.0449  0.4519 -0.0070
17834TIP3    H174917   5.527   3.259  14.577  1.8035 -1.2842 -3.2597
17834TIP3    H274918   5.591   3.169  14.681 -0.2268  0.0061 -0.7754
17835TIP3   OH274919   1.597   5.697   4.339  0.3603  0.2263 -0.4508
17835TIP3    H174920   1.589   5.695   4.244 -0.2724 -3.3708 -0.4564
17835TIP3    H274921   1.684   5.661   4.357 -0.4864 -1.6111  0.2824
17836TIP3   OH274922   2.633   5.900   0.789  0.1952  0.3772 -0.1137
17836TIP3    H174923   2.645   5.820   0.839  1.9569  0.3767 -0.4720
17836TIP3    H274924   2.715   5.948   0.800 -1.1020  2.5486  0.7805
17837TIP3   OH274925   5.811   5.461   0.025  0.2191  0.2879 -0.4158
17837TIP3    H174926   5.748   5.513   0.075 -0.7556 -0.4164 -0.8658
17837TIP3    H274927   5.760   5.427  -0.049  1.2101 -0.0704 -0.9459
17838TIP3   OH274928   3.117   6.377   3.305  0.0748 -0.3682  0.0976
17838TIP3    H174929   3.182   6.419   3.361 -0.8713  2.3652 -0.7180
17838TIP3    H274930   3.038   6.429   3.316 -0.4672 -0.3841 -2.8783
17839TIP3   OH274931   6.707   6.245  12.890  0.7282 -0.3482  0.4329
17839TIP3    H174932   6.667   6.292  12.817 -0.1532 -1.4040  0.2135
17839TIP3    H274933   6.801   6.244  12.870  0.7939  1.4293  0.5235
17840TIP3   OH274934   4.056   3.031  15.000 -0.1452  0.0856 -0.6760
17840TIP3    H174935   3.977   3.018  15.053  0.4588 -3.6293 -0.3955
17840TIP3    H274936   4.123   3.058  15.063 -0.3885 -0.2028 -0.2902
17841TIP3   OH274937   4.954   5.793  11.589  0.1635  0.4782 -0.0247
17841TIP3    H174938   4.991   5.766  11.505  2.1300 -0.5198  1.0860
17841TIP3    H274939   5.026   5.783  11.651 -1.2812  1.0000  1.8268
17842TIP3   OH274940   0.066   6.524   0.448 -0.5781  0.1446 -0.3993
17842TIP3    H174941  -0.027   6.501   0.438 -1.0652  1.0499  1.5279
17842TIP3    H274942   0.079   6.594   0.384 -0.6506 -1.3111 -2.0864
17843TIP3   OH274943   4.176   1.148   5.471 -0.6325 -0.0380  0.2083
17843TIP3    H174944   4.195   1.154   5.564  0.1983 -0.2786  0.0616
17843TIP3    H274945   4.258   1.117   5.431 -0.7659  0.6845 -0.6761
17844TIP3   OH274946   0.518   2.850   2.917 -0.0721 -0.4476 -0.3592
17844TIP3    H174947   0.524   2.945   2.931 -0.7592 -0.4806  0.2105
17844TIP3    H274948   0.608   2.823   2.902  0.3967  0.0155  1.3864
17845TIP3   OH274949   3.481   0.704   1.156  0.4135  0.5650  0.1796
17845TIP3    H174950   3.562   0.655   1.170  2.3908  3.8813  1.6865
17845TIP3    H274951   3.451   0.727   1.244 -0.8451  1.3985 -0.4293
17846TIP3   OH274952   0.803   5.108  13.728  0.3011  0.0472  0.2002
17846TIP3    H174953   0.814   5.119  13.822  3.5056  1.0324 -0.1718
17846TIP3    H274954   0.812   5.013  13.714 -0.8001 -0.1777  0.9044
17847TIP3   OH274955   6.605   1.032  15.507  0.3349 -0.4031  0.0554
17847TIP3    H174956   6.545   1.101  15.534  0.4849 -0.7571  1.4163
17847TIP3    H274957   6.674   1.076  15.459  1.1830  0.6591  2.1023
17848TIP3   OH274958   0.520   4.369  16.509  0.1066  0.0169  0.2558
17848TIP3    H174959   0.429   4.377  16.536 -0.0932 -2.9866  0.8223
17848TIP3    H274960   0.516   4.346  16.416  0.4933  2.6654 -0.5052
17849TIP3   OH274961   5.083   5.314  13.993  0.3731  0.3790  0.5210
17849TIP3    H174962   5.054   5.290  14.082 -0.7302  0.6579  0.2566
17849TIP3    H274963   5.062   5.238  13.940 -0.7295  0.9158  0.1601
17850TIP3   OH274964   5.642   6.401   4.197 -0.8400 -0.0193 -0.4355
17850TIP3    H174965   5.729   6.366   4.182 -1.0785 -0.8694  0.0967
17850TIP3    H274966   5.616   6.366   4.283 -1.3982  0.8410 -0.2374
17851TIP3   OH274967   3.447   2.604   2.146  0.0252 -0.0271  0.3145
17851TIP3    H174968   3.472   2.516   2.173  0.3680 -0.0049  0.0646
17851TIP3    H274969   3.470   2.659   2.221 -1.2212 -0.2974  0.9271
17852TIP3   OH274970   3.560   2.576  13.082 -0.8600  0.0023 -0.0389
17852TIP3    H174971   3.588   2.602  13.170  2.4663 -2.3099 -0.2202
17852TIP3    H274972   3.486   2.518  13.097 -0.5671 -0.0815  1.2262
17853TIP3   OH274973   0.921   4.924   6.324 -0.0163 -0.5892 -0.1266
17853TIP3    H174974   0.951   4.833   6.329 -0.5376 -0.7285  0.7832
17853TIP3    H274975   0.860   4.933   6.397 -0.5556  0.2818 -0.6613
17854TIP3   OH274976   4.714   1.737   3.266 -0.4595  0.3849 -1.1799
17854TIP3    H174977   4.651   1.771   3.202 -0.2968  1.4867 -0.7809
17854TIP3    H274978   4.662   1.684   3.326 -1.0224  1.2603 -0.8740
17855TIP3   OH274979   2.794   4.800   0.773  0.3906 -0.4950 -0.1600
17855TIP3    H174980   2.795   4.869   0.840 -1.2886 -0.2620 -0.3302
17855TIP3    H274981   2.855   4.734   0.805  1.1540  0.5393  0.5819
17856TIP3   OH274982   1.655   1.117   0.334 -0.1424  0.0072 -0.6633
17856TIP3    H174983   1.600   1.057   0.284 -0.5213 -0.5897  0.4317
17856TIP3    H274984   1.593   1.164   0.390  0.2550  0.7783 -0.8664
17857TIP3   OH274985   0.886   5.104   0.713 -0.0327 -0.0767  0.1979
17857TIP3    H174986   0.930   5.188   0.723  2.4297 -1.1049 -1.2214
17857TIP3    H274987   0.843   5.108   0.628 -0.4120 -0.0813  0.3824
17858TIP3   OH274988   1.143   5.913  15.028 -0.0384 -0.2633  0.0449
17858TIP3    H174989   1.105   5.960  15.102  1.1439  2.9869 -1.2373
17858TIP3    H274990   1.208   5.855  15.068  2.0977  2.8957  1.6355
17859TIP3   OH274991   4.748   0.638  16.832  0.2794 -0.1472 -0.2585
17859TIP3    H174992   4.659   0.634  16.868  0.0786  0.9756 -0.5814
17859TIP3    H274993   4.784   0.551  16.847  0.0328  0.1274  2.1997
17860TIP3   OH274994   6.534   5.273  16.249  1.0830 -0.4374 -0.0444
17860TIP3    H174995   6.557   5.215  16.177 -0.4762 -0.0306 -0.9119
17860TIP3    H274996   6.597   5.345  16.241  2.0597 -1.2501  0.1170
17861TIP3   OH274997   4.815   1.653  15.904 -0.1914 -0.2818  0.2645
17861TIP3    H174998   4.893   1.689  15.861  1.2941  1.1475  3.7396
17861TIP3    H274999   4.820   1.559  15.889  3.0811 -0.4231  1.4373
17862TIP3   OH275000   5.426   2.707  15.161 -0.2822 -0.1595  0.3232
17862TIP3    H175001   5.514   2.704  15.123 -0.6732 -1.2760 -0.5665
17862TIP3    H275002   5.439   2.681  15.252  0.4103  0.4557  0.4063
17863TIP3   OH275003   0.158   5.373   6.304  0.1706  0.7400  0.0223
17863TIP3    H175004   0.192   5.412   6.223  1.5162  1.1166  0.7451
17863TIP3    H275005   0.096   5.437   6.337  1.4224  1.7340  0.5338
17864TIP3   OH275006   2.026   6.350   0.066 -0.0317 -0.7064  0.2311
17864TIP3    H175007   2.107   6.300   0.070 -0.1148 -0.9074 -0.5579
17864TIP3    H275008   2.034   6.414   0.137  0.7667 -0.7959  0.2270
17865TIP3   OH275009   3.331   2.410   4.653  0.5485 -0.7632 -0.4189
17865TIP3    H175010   3.396   2.472   4.688 -0.9292  0.3678  0.4249
17865TIP3    H275011   3.356   2.326   4.690 -0.3170  0.1896  2.6145
17866TIP3   OH275012   5.414   0.518  13.209  0.1286 -0.4045  0.0388
17866TIP3    H175013   5.482   0.575  13.246  0.2038  0.6709 -1.6191
17866TIP3    H275014   5.449   0.430  13.217  0.3280 -0.1779  2.0380
17867TIP3   OH275015   4.843   5.146   6.484  0.2890  0.2476  0.0988
17867TIP3    H175016   4.813   5.063   6.522  0.1105 -0.0433 -0.6509
17867TIP3    H275017   4.766   5.201   6.481  0.3575  0.3592  0.3839
17868TIP3   OH275018   5.107   1.487   0.229  0.9005 -0.0214  0.2339
17868TIP3    H175019   5.181   1.432   0.254  0.7440  0.8111  2.8142
17868TIP3    H275020   5.138   1.577   0.241 -0.0613  0.3866 -0.1578
17869TIP3   OH275021   3.812   3.340  17.141 -0.0506 -0.0848 -0.3307
17869TIP3    H175022   3.753   3.276  17.102 -0.9559  1.8125 -2.2985
17869TIP3    H275023   3.755   3.397  17.192  0.1159  1.3762 -1.7080
17870TIP3   OH275024   3.287   2.906   4.522 -0.2003 -0.0651  0.0104
17870TIP3    H175025   3.314   2.955   4.599 -2.2041  0.0558  0.6899
17870TIP3    H275026   3.210   2.857   4.550 -0.7194 -0.3687 -1.7811
17871TIP3   OH275027   0.283   4.019  17.370 -0.0103 -0.7742  0.3904
17871TIP3    H175028   0.281   4.089  17.435  0.6390 -0.5360  0.1526
17871TIP3    H275029   0.330   4.056  17.295  0.9880 -1.6945  0.5378
17872TIP3   OH275030   1.703   1.398   1.699 -0.4907  0.3934  0.1945
17872TIP3    H175031   1.694   1.492   1.684 -2.3395  0.4492  1.3798
17872TIP3    H275032   1.623   1.373   1.746  0.4626 -1.5667  0.8813
17873TIP3   OH275033   2.361   3.506   2.587 -0.2091  0.1853 -0.2172
17873TIP3    H175034   2.273   3.527   2.556 -0.4262 -1.8827 -1.1489
17873TIP3    H275035   2.412   3.492   2.508  0.3269 -0.9517  0.3008
17874TIP3   OH275036   5.012   6.748   3.177 -0.9155  0.0561 -0.4008
17874TIP3    H175037   5.024   6.754   3.082 -0.2051  0.6496 -0.2785
17874TIP3    H275038   4.935   6.692   3.188 -1.0086 -0.0053 -1.3261
17875TIP3   OH275039   3.317   2.862   5.018  0.2350  0.4729  0.0380
17875TIP3    H175040   3.315   2.798   5.089 -0.3502  0.1445 -0.2650
17875TIP3    H275041   3.231   2.854   4.977  0.7954  0.2130 -1.1035
17876TIP3   OH275042   3.953   4.215  12.304  0.1921  0.4042  0.3904
17876TIP3    H175043   4.014   4.143  12.285  0.1293  0.1390  1.1389
17876TIP3    H275044   4.007   4.294  12.298  0.0973  0.3744 -1.1727
17877TIP3   OH275045   3.489   5.328   4.245 -0.1399 -0.5212 -0.2365
17877TIP3    H175046   3.408   5.314   4.194 -0.9849 -0.3122  1.0015
17877TIP3    H275047   3.531   5.402   4.202 -1.1145  0.0001 -0.3279
17878TIP3   OH275048   4.966   1.995  13.887 -0.4314 -0.2908  0.3242
17878TIP3    H175049   4.942   1.903  13.896 -0.3887 -0.3708 -0.3271
17878TIP3    H275050   4.971   2.010  13.792  0.9742  0.0130  0.4154
17879TIP3   OH275051   4.393   3.718   1.481  0.3274 -0.1436  1.1202
17879TIP3    H175052   4.431   3.804   1.468  1.0227 -0.7986 -1.9236
17879TIP3    H275053   4.299   3.734   1.490 -0.1492  0.8448 -3.4306
17880TIP3   OH275054   0.497   4.274  15.172  0.0105 -0.0952 -0.2545
17880TIP3    H175055   0.571   4.326  15.139 -0.2912  0.2156 -0.4550
17880TIP3    H275056   0.438   4.267  15.097 -0.7310  0.7025  0.2377
17881TIP3   OH275057   1.807   5.848   2.902  0.0981 -0.2224  0.0592
17881TIP3    H175058   1.749   5.917   2.933 -1.3040 -1.3256 -0.0388
17881TIP3    H275059   1.841   5.808   2.982 -1.8368 -1.6623  0.2259
17882TIP3   OH275060   4.557   4.618   3.181  0.6461 -0.5752 -0.2136
17882TIP3    H175061   4.648   4.645   3.186  0.7113 -0.5055 -1.5118
17882TIP3    H275062   4.545   4.559   3.256  0.8826  1.8374  1.8467
17883TIP3   OH275063   4.611   0.490  11.576 -0.8320 -0.1223 -0.3987
17883TIP3    H175064   4.651   0.570  11.612 -0.8920 -0.2752  0.0073
17883TIP3    H275065   4.623   0.499  11.481 -1.0066  0.4618 -0.3734
17884TIP3   OH275066   0.201   2.344   0.513  0.1205  0.2176  0.3439
17884TIP3    H175067   0.168   2.260   0.545  0.7632  0.1176  0.7782
17884TIP3    H275068   0.287   2.324   0.477  0.2431  0.6737  0.3702
17885TIP3   OH275069   0.887   5.674  16.254 -0.3372  0.0913  0.0205
17885TIP3    H175070   0.878   5.592  16.303  0.5757 -0.7519 -1.2008
17885TIP3    H275071   0.808   5.724  16.277 -1.0598 -1.2512  0.5351
17886TIP3   OH275072   4.338   4.391   2.707  0.2328 -0.1745  0.3700
17886TIP3    H175073   4.326   4.479   2.743  1.4232 -0.3615  1.2919
17886TIP3    H275074   4.325   4.402   2.613  1.3190  1.1818  0.3499
17887TIP3   OH275075   5.300   2.284   0.059  0.4146  0.1039  0.3723
17887TIP3    H175076   5.389   2.264   0.089 -0.1357 -0.5724  1.6330
17887TIP3    H275077   5.264   2.342   0.125 -0.5189 -0.6694  0.5784
17888TIP3   OH275078   0.705   6.630  11.634  0.8055 -0.2088 -0.2739
17888TIP3    H175079   0.753   6.559  11.677  1.3607 -0.2249 -0.9036
17888TIP3    H275080   0.771   6.697  11.620  0.3195  0.3671  0.1516
17889TIP3   OH275081   4.185   3.120  15.241 -0.2971 -0.2869  0.3846
17889TIP3    H175082   4.112   3.132  15.302  0.2161  0.6324  0.8461
17889TIP3    H275083   4.251   3.072  15.292  1.0575  2.4301  1.3964
17890TIP3   OH275084   2.201   6.710  16.982 -0.3529  0.1647  0.7361
17890TIP3    H175085   2.140   6.651  16.938  0.3319  1.1821 -1.7518
17890TIP3    H275086   2.282   6.659  16.989 -0.6437 -0.2144  1.4388
17891TIP3   OH275087   2.794   5.769  12.693  0.3842  0.5332  0.2232
17891TIP3    H175088   2.874   5.748  12.742  0.3907 -1.0497 -0.3835
17891TIP3    H275089   2.776   5.689  12.643 -2.6951  0.0908  1.8081
17892TIP3   OH275090   1.835   5.142  15.064  0.3234  0.2060  0.5279
17892TIP3    H175091   1.774   5.077  15.100  1.2240 -0.9594  0.0107
17892TIP3    H275092   1.798   5.163  14.978 -0.3826  0.9737  1.0076
17893TIP3   OH275093   5.518   5.718   4.896  0.0876 -0.4942 -0.2600
17893TIP3    H175094   5.515   5.737   4.990  0.5738 -1.6566  0.0122
17893TIP3    H275095   5.427   5.731   4.867 -0.1847 -0.6474  0.4868
17894TIP3   OH275096   2.549   1.911  14.169 -0.1227  0.4111  0.1177
17894TIP3    H175097   2.478   1.875  14.117 -0.6581  0.1225  1.0235
17894TIP3    H275098   2.514   1.914  14.258 -0.5672  4.1962 -0.0054
17895TIP3   OH275099   2.692   5.383  15.652  0.5958  0.2084  0.1970
17895TIP3    H175100   2.782   5.363  15.677  0.2307 -2.8741 -0.6194
17895TIP3    H275101   2.647   5.398  15.735  1.5050  0.1859  0.7111
17896TIP3   OH275102   1.038   0.797  16.280 -0.1204  0.1542 -0.1502
17896TIP3    H175103   1.056   0.786  16.187  1.4766  1.2673 -0.0232
17896TIP3    H275104   0.948   0.831  16.284 -0.3413 -0.2751 -1.2518
17897TIP3   OH275105   5.675   2.485  12.609  0.4214  0.0865  0.2964
17897TIP3    H175106   5.588   2.452  12.588  1.5142 -2.8469 -0.1303
17897TIP3    H275107   5.673   2.495  12.705 -0.5063  0.5161  0.2476
17898TIP3   OH275108   1.830   3.159   3.711 -0.1626 -0.0940  0.0981
17898TIP3    H175109   1.832   3.078   3.761  0.6005 -0.0238  0.2025
17898TIP3    H275110   1.922   3.186   3.706 -0.3609  0.5354 -0.3035
17899TIP3   OH275111   4.068   2.116  12.451  0.1276  0.1883  0.2008
17899TIP3    H175112   4.134   2.170  12.407  1.4031  0.7636  2.6285
17899TIP3    H275113   4.061   2.154  12.539 -0.1615 -2.5904  1.4633
17900TIP3   OH275114   1.173   5.042  16.851 -0.2257 -0.2347  0.3345
17900TIP3    H175115   1.228   5.086  16.916  0.1854 -1.1540  0.6217
17900TIP3    H275116   1.090   5.091  16.853  0.1742  0.4387  0.7334
17901TIP3   OH275117   4.000   1.507  15.557 -0.1266 -0.2494 -0.1605
17901TIP3    H175118   3.935   1.463  15.612 -0.0664 -0.6905 -0.4325
17901TIP3    H275119   3.968   1.496  15.468  0.1914 -0.2503 -0.2769
17902TIP3   OH275120   6.136   5.416   0.443  0.0937  0.1125  0.0920
17902TIP3    H175121   6.179   5.497   0.472  0.0934  0.0137  0.3731
17902TIP3    H275122   6.051   5.446   0.409 -0.8325  0.0288  2.2005
17903TIP3   OH275123   4.092   2.329  14.476 -0.4388 -0.2871  0.2134
17903TIP3    H175124   4.056   2.251  14.435 -0.8989 -0.3161  0.6542
17903TIP3    H275125   4.145   2.297  14.549 -1.0424 -0.1765  0.7090
17904TIP3   OH275126   2.363   3.247   5.369 -0.5819  0.0874  0.7140
17904TIP3    H175127   2.340   3.313   5.435 -1.0696 -1.3516  2.0463
17904TIP3    H275128   2.314   3.169   5.396 -0.0238 -0.8229 -0.8237
17905TIP3   OH275129   1.126   2.783   4.274  0.2863  0.1595 -0.2446
17905TIP3    H175130   1.138   2.708   4.214  1.3089  0.5724 -0.5792
17905TIP3    H275131   1.210   2.828   4.272  0.5985 -0.1983  2.0652
17906TIP3   OH275132   1.692   5.503  12.253 -0.7211  0.6458  0.6881
17906TIP3    H175133   1.682   5.598  12.255 -1.5826  0.5593  2.6812
17906TIP3    H275134   1.773   5.486  12.301 -0.2544  0.3879 -0.1740
17907TIP3   OH275135   0.023   1.801   1.376 -0.5107  0.2915  0.0632
17907TIP3    H175136   0.043   1.746   1.452 -1.1128 -0.3850 -0.2631
17907TIP3    H275137   0.108   1.819   1.337 -0.3332 -0.7222 -0.0398
17908TIP3   OH275138   0.474   0.431   0.497 -0.6906 -0.4667  0.0339
17908TIP3    H175139   0.397   0.388   0.534 -1.2717 -0.4553 -1.1471
17908TIP3    H275140   0.532   0.359   0.473 -1.6361 -0.6517 -1.8818
17909TIP3   OH275141   4.282   1.996  15.013 -0.4114 -0.2502 -0.0913
17909TIP3    H175142   4.302   1.967  15.102  2.3108  0.8567 -0.2557
17909TIP3    H275143   4.228   2.074  15.024  0.0066 -0.0519  0.6032
17910TIP3   OH275144   4.880   4.600  15.452  0.3136 -0.3732 -0.4887
17910TIP3    H175145   4.811   4.622  15.390 -0.5235  3.4679  1.4545
17910TIP3    H275146   4.834   4.593  15.536  2.0822  1.5766  0.7425
17911TIP3   OH275147   3.085   4.923   0.475 -0.3700  0.1419  0.6280
17911TIP3    H175148   2.990   4.924   0.485 -0.4841  1.0816 -0.4286
17911TIP3    H275149   3.112   5.014   0.484  0.2569  0.0949 -0.5453
17912TIP3   OH275150   4.010   1.933   1.017 -0.0210 -0.0384  0.6261
17912TIP3    H175151   3.951   1.941   1.092 -0.9859  0.1656 -0.1347
17912TIP3    H275152   4.029   1.839   1.012 -1.6537 -0.3561 -0.1266
17913TIP3   OH275153   3.938   3.489   5.404  0.1476  0.2127  0.5992
17913TIP3    H175154   3.916   3.538   5.484  1.4522  1.2907  0.3279
17913TIP3    H275155   3.960   3.556   5.340 -0.3122 -0.6714 -0.5071
17914TIP3   OH275156   3.514   2.792   2.365  0.3173 -0.1838  0.1749
17914TIP3    H175157   3.525   2.734   2.440  0.1195 -2.0654 -1.2018
17914TIP3    H275158   3.521   2.880   2.403 -0.0768 -1.0446  2.4355
17915TIP3   OH275159   1.742   6.591  16.872  0.4154  0.1867 -0.1733
17915TIP3    H175160   1.678   6.588  16.944 -1.7023 -0.9136 -1.9679
17915TIP3    H275161   1.801   6.662  16.896  0.1265 -0.4407  2.8710
17916TIP3   OH275162   3.830   1.310   3.176 -0.3576  0.2331  0.2175
17916TIP3    H175163   3.804   1.395   3.140 -0.7978  0.6843  1.5677
17916TIP3    H275164   3.774   1.247   3.131 -2.6311  1.0128  1.8068
17917TIP3   OH275165   3.043   1.734  12.233  0.1304 -0.3470 -0.4461
17917TIP3    H175166   3.080   1.810  12.188  0.0028  0.0851  0.1640
17917TIP3    H275167   3.066   1.748  12.325  0.9211 -1.5203 -0.4448
17918TIP3   OH275168   4.289   4.591   0.500 -0.0829 -0.3390 -0.1398
17918TIP3    H175169   4.336   4.537   0.436 -0.6042  0.5275 -1.2835
17918TIP3    H275170   4.248   4.528   0.560  1.4212 -1.1370  0.1002
17919TIP3   OH275171   3.382   6.504   3.941  1.0749  0.5853 -0.6898
17919TIP3    H175172   3.464   6.515   3.990  1.9447  0.7447 -2.1223
17919TIP3    H275173   3.410   6.490   3.850 -0.4972  2.1928 -1.4915
17920TIP3   OH275174   6.055   2.241   2.120  0.5415  0.1697  0.2885
17920TIP3    H175175   6.022   2.217   2.034  2.2773 -0.0231 -0.3686
17920TIP3    H275176   6.009   2.182   2.181 -0.1310 -0.2208 -0.5765
17921TIP3   OH275177   4.346   0.328  16.761 -0.1573 -0.3038 -0.4555
17921TIP3    H175178   4.275   0.303  16.820 -0.0126  0.2105 -0.0548
17921TIP3    H275179   4.384   0.407  16.800 -1.0046  0.9243 -2.0027
17922TIP3   OH275180   2.672   1.326  14.365  0.0213 -0.2988  0.3003
17922TIP3    H175181   2.635   1.408  14.396  0.6903  0.3702 -0.6095
17922TIP3    H275182   2.767   1.342  14.361  0.1562 -1.1027  0.0852
17923TIP3   OH275183   1.594   1.980   2.449 -0.4413 -0.3233 -0.0658
17923TIP3    H175184   1.527   1.985   2.518 -0.1952 -2.1360  0.3577
17923TIP3    H275185   1.658   1.918   2.483 -0.5759 -1.6952 -2.1510
17924TIP3   OH275186   4.093   0.411  12.099 -0.4363  0.4708 -0.2813
17924TIP3    H175187   4.143   0.485  12.131  3.2397 -1.8696 -0.0827
17924TIP3    H275188   4.054   0.371  12.177 -1.9884  1.7503 -0.3386
17925TIP3   OH275189   3.765   4.694   3.700 -0.6133  0.0487 -0.0098
17925TIP3    H175190   3.849   4.655   3.679 -0.1548 -0.1237  1.9729
17925TIP3    H275191   3.784   4.786   3.716 -0.8717  0.0832  0.1049
17926TIP3   OH275192   4.083   5.041   5.073  1.1514  0.2288 -0.3183
17926TIP3    H175193   4.060   5.004   5.158  1.7095  0.2462 -0.1549
17926TIP3    H275194   4.030   5.121   5.067  1.0659  0.1978 -0.0080
17927TIP3   OH275195   5.018   5.430   2.336 -0.2195  1.0447 -0.4304
17927TIP3    H175196   4.990   5.392   2.253  0.1895 -0.6162  0.1449
17927TIP3    H275197   5.103   5.469   2.317  0.9601 -1.2954 -0.3786
17928TIP3   OH275198   3.693   0.813  15.617 -0.6552  0.2761  0.2928
17928TIP3    H175199   3.640   0.824  15.696 -0.3683 -1.4519  0.7735
17928TIP3    H275200   3.766   0.873  15.628 -0.7898  0.2867  1.1999
17929TIP3   OH275201   0.381   2.913   4.166 -0.5295 -0.3399 -0.3502
17929TIP3    H175202   0.343   2.958   4.090  0.0395  1.0786  0.1692
17929TIP3    H275203   0.451   2.859   4.130  0.0556  0.6977 -0.8025
17930TIP3   OH275204   1.528   0.770  11.468  0.0389  0.4105 -0.3250
17930TIP3    H175205   1.541   0.684  11.429 -2.4880 -0.7123  1.1021
17930TIP3    H275206   1.594   0.775  11.538  0.2692 -0.3118 -0.4881
17931TIP3   OH275207   5.038   5.463   1.943  0.0285  0.2613 -0.1980
17931TIP3    H175208   5.057   5.393   2.006  0.6675  0.4974 -0.1196
17931TIP3    H275209   4.952   5.441   1.908 -0.0772 -0.1932  0.3293
17932TIP3   OH275210   1.658   3.970   4.194 -0.6013  0.2353  0.0473
17932TIP3    H175211   1.683   3.879   4.212 -0.2889  0.2736 -0.2033
17932TIP3    H275212   1.734   4.022   4.221 -0.3998  0.3487 -0.7293
17933TIP3   OH275213   1.249   6.129   1.912  0.2822 -0.2483 -0.1896
17933TIP3    H175214   1.333   6.089   1.890 -0.3388 -1.7165 -0.0176
17933TIP3    H275215   1.266   6.175   1.994  0.7327 -1.2591  0.3142
17934TIP3   OH275216   5.704   2.824  13.573 -0.1765 -0.2506  0.0048
17934TIP3    H175217   5.639   2.851  13.509 -1.0676  0.9935  1.3747
17934TIP3    H275218   5.682   2.733  13.592 -1.5058  0.1333  0.4048
17935TIP3   OH275219   5.392   3.589  12.343  0.4716  0.7361  0.3898
17935TIP3    H175220   5.463   3.611  12.282  0.7648  0.7199  0.7181
17935TIP3    H275221   5.320   3.648  12.319  0.5884  0.7355  0.0369
17936TIP3   OH275222   4.968   3.718  15.484  0.1953 -0.0326 -0.8478
17936TIP3    H175223   5.018   3.752  15.409 -0.5565  1.8364 -0.5428
17936TIP3    H275224   5.032   3.711  15.554  0.2590  1.4254 -0.7361
17937TIP3   OH275225   4.834   1.175   3.576  0.3905  0.4503 -0.0873
17937TIP3    H175226   4.900   1.241   3.596  0.1806  0.6246  0.0326
17937TIP3    H275227   4.784   1.212   3.503 -0.0813  0.6753  0.3395
17938TIP3   OH275228   0.617   4.197  11.936 -0.1104 -0.1669  0.5841
17938TIP3    H175229   0.525   4.200  11.911  0.1608  0.6483 -0.4183
17938TIP3    H275230   0.658   4.265  11.882  1.0636 -0.4732  1.0613
17939TIP3   OH275231   1.246   4.251  16.223  0.5698  0.0054  0.6591
17939TIP3    H175232   1.214   4.278  16.309 -0.3617 -0.9802  0.6354
17939TIP3    H275233   1.168   4.222  16.175  1.4659 -2.7995  0.7195
17940TIP3   OH275234   0.683   4.608   4.731 -0.5288 -1.0544  0.3219
17940TIP3    H175235   0.593   4.613   4.762 -0.2375  0.4206  1.0461
17940TIP3    H275236   0.695   4.516   4.707 -2.4434 -1.1344 -0.5323
17941TIP3   OH275237   3.942   1.182  15.822 -0.3128 -0.2272  0.0433
17941TIP3    H175238   4.019   1.224  15.785 -0.0053 -0.5988  0.2428
17941TIP3    H275239   3.933   1.221  15.909  0.4538 -1.1302  0.5495
17942TIP3   OH275240   5.398   5.511  16.286  0.2783  0.2990 -0.1715
17942TIP3    H175241   5.350   5.493  16.367 -0.7166 -1.1122 -1.0270
17942TIP3    H275242   5.331   5.527  16.220  1.0717  1.2971 -0.7795
17943TIP3   OH275243   6.615   3.957  16.707  0.7766 -0.4789  0.3071
17943TIP3    H175244   6.683   3.964  16.774 -0.3657  0.0097  1.4495
17943TIP3    H275245   6.536   3.992  16.749  0.0126 -0.2404 -1.2720
17944TIP3   OH275246   2.517   1.232   0.436  0.1795 -0.0868 -0.3899
17944TIP3    H175247   2.479   1.158   0.387 -1.1538  0.6881 -0.5995
17944TIP3    H275248   2.444   1.293   0.444  0.7965  0.4576  1.2874
17945TIP3   OH275249   4.957   3.030   3.665  0.0246 -0.3451  0.0297
17945TIP3    H175250   4.867   3.034   3.633  0.4996 -0.6695 -1.4195
17945TIP3    H275251   5.011   3.059   3.591  1.0874  0.4769  1.0730
17946TIP3   OH275252   2.651   1.348   3.824  0.2945 -0.4113  0.3255
17946TIP3    H175253   2.603   1.268   3.841 -0.8776  0.0966 -0.4636
17946TIP3    H275254   2.639   1.364   3.730 -1.3561  1.8089  0.8346
17947TIP3   OH275255   1.217   3.922   4.913  0.2365 -0.2855 -0.0519
17947TIP3    H175256   1.241   3.923   4.821 -0.6103 -0.8102 -0.2917
17947TIP3    H275257   1.186   4.011   4.931 -1.9184 -0.7937 -0.9403
17948TIP3   OH275258   0.587   4.165   2.083  0.0349 -0.0427  0.2722
17948TIP3    H175259   0.555   4.190   2.169  3.3570  0.2891  1.5611
17948TIP3    H275260   0.632   4.081   2.097 -0.3523 -0.5746 -1.3997
17949TIP3   OH275261   5.936   2.096   3.146 -0.0429  0.2023  0.0673
17949TIP3    H175262   5.943   2.192   3.142 -0.1390  0.2711  1.2300
17949TIP3    H275263   6.026   2.065   3.140  0.0360  0.3951  0.2320
17950TIP3   OH275264   2.882   4.410   0.899 -0.1289  0.0531  0.1715
17950TIP3    H175265   2.872   4.315   0.890 -0.6784  0.2385 -1.6295
17950TIP3    H275266   2.793   4.442   0.914  0.1256  0.2606  1.3372
17951TIP3   OH275267   4.302   1.708   5.925 -0.0122  0.0688  0.2835
17951TIP3    H175268   4.323   1.667   6.009  0.9509 -1.6076 -0.7231
17951TIP3    H275269   4.370   1.676   5.865 -0.5405  1.4032 -1.0999
17952TIP3   OH275270   0.244   5.895   2.783  0.3136 -0.0191  0.6306
17952TIP3    H175271   0.213   5.947   2.709  0.7319 -0.4734  0.1244
17952TIP3    H275272   0.245   5.805   2.750 -0.0422 -0.3020  1.3744
17953TIP3   OH275273   6.086   0.885  17.075  0.0409  0.2438 -0.4097
17953TIP3    H175274   6.153   0.820  17.058 -1.7471 -1.6451 -0.5502
17953TIP3    H275275   6.083   0.892  17.171 -0.2285 -0.4209 -0.3659
17954TIP3   OH275276   4.544   4.352  15.361  0.6077 -0.3082  0.1482
17954TIP3    H175277   4.516   4.405  15.287 -1.3998 -0.1591  0.9396
17954TIP3    H275278   4.532   4.408  15.437  1.0151 -1.0066  0.7424
17955TIP3   OH275279   1.021   3.126  16.520 -0.0218 -0.1898  0.4602
17955TIP3    H175280   1.027   3.040  16.478 -0.8662  1.1838 -2.7704
17955TIP3    H275281   1.097   3.173  16.487 -1.4838  1.4023 -0.8113
17956TIP3   OH275282   5.683   2.293  16.149  0.0632  0.8805  0.0098
17956TIP3    H175283   5.732   2.278  16.230  0.5032  1.0591 -0.2161
17956TIP3    H275284   5.631   2.372  16.166  1.0137  1.5911 -0.2528
17957TIP3   OH275285   5.635   1.361   5.760 -0.2897 -0.1280  0.3348
17957TIP3    H175286   5.631   1.404   5.845  2.6683 -2.1536  1.6788
17957TIP3    H275287   5.557   1.305   5.758 -0.6420  0.2978  1.5147
17958TIP3   OH275288   2.695   0.482   3.814  0.1556 -0.1488  0.2447
17958TIP3    H175289   2.748   0.555   3.847  1.2027  0.1243 -1.8067
17958TIP3    H275290   2.631   0.523   3.756  0.4508 -0.7941 -0.5632
17959TIP3   OH275291   1.029   0.872   4.916 -0.0285 -0.1775 -0.1288
17959TIP3    H175292   1.026   0.791   4.968  0.7110 -0.9061 -1.1951
17959TIP3    H275293   1.004   0.845   4.828 -0.3755  0.8815 -0.3678
17960TIP3   OH275294   1.507   1.951  17.314  0.0837 -0.2728  0.4159
17960TIP3    H175295   1.416   1.923  17.326  0.0016 -0.0529  0.3103
17960TIP3    H275296   1.536   1.976  17.402 -0.1541  0.2431  0.3539
17961TIP3   OH275297   4.539   0.460  17.130  0.3357 -0.5808 -0.5187
17961TIP3    H175298   4.534   0.542  17.080  1.2179  0.0525  0.4152
17961TIP3    H275299   4.482   0.475  17.205  1.8982 -0.1094  0.6198
17962TIP3   OH275300   0.170   3.612  10.833 -0.0326 -0.5141 -0.1080
17962TIP3    H175301   0.075   3.617  10.824  0.1919 -0.3644 -3.2448
17962TIP3    H275302   0.203   3.678  10.773  2.0890 -0.9689  0.4866
17963TIP3   OH275303   3.019   1.355   0.506  0.2026  0.2963 -0.0377
17963TIP3    H175304   2.958   1.362   0.433  0.7576  0.7184 -0.4697
17963TIP3    H275305   3.104   1.339   0.465  0.7166  1.6827  0.4448
17964TIP3   OH275306   2.406   5.975   0.064 -0.1949 -0.4763  0.1578
17964TIP3    H175307   2.381   6.068   0.064 -1.7949 -0.7948  2.8899
17964TIP3    H275308   2.428   5.956  -0.027 -1.7919  2.0674 -0.8749
17965TIP3   OH275309   6.345   2.770  12.361  0.0082 -0.1446  0.4528
17965TIP3    H175310   6.429   2.808  12.388  0.2198 -1.1194  1.2061
17965TIP3    H275311   6.303   2.839  12.310 -0.5554  1.9842  3.5027
17966TIP3   OH275312   0.921   0.491  11.263 -0.6005  0.0526  0.2809
17966TIP3    H175313   1.011   0.461  11.247  0.4023  1.4381  2.6496
17966TIP3    H275314   0.875   0.414  11.295  0.6923 -0.0428  2.0735
17967TIP3   OH275315   1.425   4.355  13.173 -0.0295  0.7917  0.5553
17967TIP3    H175316   1.420   4.426  13.237  0.1656  1.3184 -0.0024
17967TIP3    H275317   1.400   4.277  13.222 -1.0292  1.3583  0.9907
17968TIP3   OH275318   4.171   5.387  13.719  0.0390  0.0649 -0.4059
17968TIP3    H175319   4.223   5.333  13.659  2.6382  0.8788  0.9508
17968TIP3    H275320   4.217   5.471  13.722 -1.6519  1.0221  0.5627
17969TIP3   OH275321   6.243   3.448  14.318 -0.2269  0.0603 -0.3389
17969TIP3    H175322   6.177   3.379  14.307 -0.4816  0.5487 -2.1594
17969TIP3    H275323   6.321   3.414  14.276  0.3873 -0.0582  0.8503
17970TIP3   OH275324   5.484   2.688   4.967 -0.2160 -0.2318 -0.2080
17970TIP3    H175325   5.547   2.745   4.925 -0.5973  2.1074  2.1608
17970TIP3    H275326   5.524   2.664   5.051 -0.8259 -2.0507 -0.3794
17971TIP3   OH275327   4.431   5.102   4.950  0.7983  0.3303  0.1638
17971TIP3    H175328   4.512   5.138   4.986 -0.6352  0.4921  3.6035
17971TIP3    H275329   4.362   5.158   4.986 -0.9977 -1.1101 -0.8632
17972TIP3   OH275330   3.510   1.162  10.446  0.0602 -0.4373  0.1542
17972TIP3    H175331   3.542   1.072  10.444  0.0160 -0.4947  1.3581
17972TIP3    H275332   3.582   1.212  10.485 -0.2915 -0.1228  0.4052
17973TIP3   OH275333   0.011   3.745  12.295 -0.4339  0.4285 -0.1287
17973TIP3    H175334  -0.029   3.668  12.255 -1.1581  1.2789 -1.0805
17973TIP3    H275335   0.105   3.733  12.280 -0.4286 -0.7660  0.6675
17974TIP3   OH275336   6.163   5.388  10.692 -0.3517 -0.5951 -0.4959
17974TIP3    H175337   6.119   5.307  10.717  1.1717 -1.7557 -1.3728
17974TIP3    H275338   6.195   5.424  10.774 -0.5674 -1.1816 -0.1466
17975TIP3   OH275339   6.459   2.805  10.552  0.4154 -0.1065 -0.0476
17975TIP3    H175340   6.415   2.879  10.594 -0.9986  0.0956 -1.7757
17975TIP3    H275341   6.396   2.733  10.558  0.4054 -0.2220 -1.3017
17976TIP3   OH275342   2.563   4.268   5.513 -0.2212 -0.0877  0.3707
17976TIP3    H175343   2.550   4.221   5.595  1.0845 -1.0271  0.0552
17976TIP3    H275344   2.591   4.355   5.539  1.1458 -0.6787  0.9331
17977TIP3   OH275345   3.464   0.534  12.322  0.1629  0.3425  0.2096
17977TIP3    H175346   3.461   0.570  12.234 -0.4813 -0.1239  0.0340
17977TIP3    H275347   3.480   0.441  12.311 -0.5170  0.1742  0.5457
17978TIP3   OH275348   4.774   6.086   0.185 -0.3433 -0.5454 -0.0575
17978TIP3    H175349   4.772   6.050   0.273  1.9221 -0.8890 -0.0981
17978TIP3    H275350   4.785   6.009   0.128  1.3504 -0.0940 -0.3793
17979TIP3   OH275351   3.194   1.710   2.695 -0.1798 -0.2745 -0.1474
17979TIP3    H175352   3.271   1.656   2.677 -1.5634 -2.4909  0.2024
17979TIP3    H275353   3.206   1.740   2.785  0.7200  0.2532 -0.4250
17980TIP3   OH275354   4.437   0.625  16.493 -0.3360  0.0345 -0.2922
17980TIP3    H175355   4.520   0.672  16.497  0.1572 -0.8419 -0.2801
17980TIP3    H275356   4.408   0.635  16.402 -0.8244  1.3521 -0.0205
17981TIP3   OH275357   4.205   5.467   3.640 -0.2366 -0.4803 -0.1534
17981TIP3    H175358   4.118   5.455   3.600 -1.1277  0.0071  1.5571
17981TIP3    H275359   4.253   5.521   3.577 -1.1145 -0.8863 -1.2028
17982TIP3   OH275360   0.141   0.652  12.275  0.3719  0.4715 -0.2691
17982TIP3    H175361   0.182   0.639  12.189 -1.3391 -0.2052 -1.0296
17982TIP3    H275362   0.132   0.564  12.311 -1.2295  0.4947 -0.5421
17983TIP3   OH275363   4.584   0.255  13.951 -0.0108 -0.0783 -0.2401
17983TIP3    H175364   4.668   0.231  13.912 -0.6186 -1.0861 -0.9787
17983TIP3    H275365   4.533   0.291  13.879  0.0020  1.1782  0.3468
17984TIP3   OH275366   1.164   5.119   2.378 -0.9157 -0.1664 -0.1762
17984TIP3    H175367   1.165   5.175   2.455 -2.2147 -0.3593  0.0071
17984TIP3    H275368   1.093   5.153   2.324 -0.3877 -0.3832 -1.0292
17985TIP3   OH275369   2.462   5.928   5.416  0.8241 -0.1423  0.0914
17985TIP3    H175370   2.503   5.842   5.420  1.5521 -0.0317 -2.7734
17985TIP3    H275371   2.530   5.985   5.381 -0.3900  1.0385 -0.4458
17986TIP3   OH275372   4.536   6.212   0.046 -0.1680  0.2479  0.6006
17986TIP3    H175373   4.502   6.258   0.122 -0.2405 -1.8323  1.9026
17986TIP3    H275374   4.631   6.208   0.061  0.3497  2.9262 -1.2611
17987TIP3   OH275375   0.986   2.464  15.348  0.1534 -0.0127 -0.0129
17987TIP3    H175376   0.926   2.533  15.322  0.6039 -0.1996 -1.6667
17987TIP3    H275377   0.992   2.407  15.271  2.7416  0.2193 -0.0839
17988TIP3   OH275378   4.816   6.196  11.709 -0.7390 -0.2640 -0.6538
17988TIP3    H175379   4.740   6.145  11.682 -1.0766  0.1553 -0.5049
17988TIP3    H275380   4.859   6.221  11.627 -0.1692 -1.3773 -0.7094
17989TIP3   OH275381   2.866   1.000   0.341  0.1846 -0.1324  0.5900
17989TIP3    H175382   2.951   0.962   0.317  0.3836  0.6578 -0.0088
17989TIP3    H275383   2.876   1.026   0.432  0.3567 -0.6659  0.7261
17990TIP3   OH275384   5.455   1.565  11.287  0.3010  0.1829 -0.4142
17990TIP3    H175385   5.410   1.600  11.210  0.3081  0.7235 -0.1716
17990TIP3    H275386   5.388   1.563  11.356  0.2349 -0.5047 -0.4828
17991TIP3   OH275387   0.520   5.234   1.834  0.2864  0.4163 -0.0052
17991TIP3    H175388   0.451   5.178   1.798  0.7306 -1.5805  1.9944
17991TIP3    H275389   0.481   5.274   1.911  1.3709 -1.0847  1.4125
17992TIP3   OH275390   4.115   1.913  14.017  0.2504  0.0889  0.1228
17992TIP3    H175391   4.053   1.871  14.077 -0.2317 -1.1244 -1.1735
17992TIP3    H275392   4.062   1.941  13.943  1.0074  0.5823 -0.2424
17993TIP3   OH275393   3.081   1.568  13.385  0.8730 -0.3765 -0.1967
17993TIP3    H175394   3.069   1.587  13.293 -0.9797  1.4790  0.3551
17993TIP3    H275395   2.997   1.531  13.413  0.5183  1.3309  1.2089
17994TIP3   OH275396   5.239   2.951   0.974 -0.7459 -0.2393 -0.1219
17994TIP3    H175397   5.217   2.899   0.897 -0.5705  0.2025 -0.4762
17994TIP3    H275398   5.161   3.004   0.990 -0.7299 -0.2257 -0.0883
17995TIP3   OH275399   0.396   4.226   3.076 -0.0102 -0.0804  0.2378
17995TIP3    H175400   0.370   4.253   2.988  2.6814  0.9501 -0.3523
17995TIP3    H275401   0.417   4.133   3.068 -0.0940 -0.0685 -0.1189
17996TIP3   OH275402   0.327   0.186   2.932 -0.8799 -0.0494 -0.0737
17996TIP3    H175403   0.305   0.107   2.882  1.7059 -1.3328  0.6121
17996TIP3    H275404   0.391   0.232   2.877 -1.3871  0.9075  0.1182
17997TIP3   OH275405   0.684   6.223  14.270  0.6369  0.0404 -0.4223
17997TIP3    H175406   0.646   6.156  14.325 -0.3946 -0.9119 -2.2159
17997TIP3    H275407   0.657   6.201  14.181 -1.1105  3.6757 -0.9941
17998TIP3   OH275408   5.438   0.218   6.040 -0.3283 -0.1410 -0.0598
17998TIP3    H175409   5.517   0.206   6.093  0.4134 -1.6213 -1.4370
17998TIP3    H275410   5.366   0.197   6.099  0.4148 -0.6797  0.6791
17999TIP3   OH275411   4.263   2.986   2.099 -0.1061  0.6416 -0.0421
17999TIP3    H175412   4.205   2.960   2.028  0.6335  0.8772 -0.7450
17999TIP3    H275413   4.229   3.070   2.129 -1.5332 -0.3080  1.1537
18000TIP3   OH275414   3.234   6.550   0.780 -0.1828 -0.2261  0.3883
18000TIP3    H175415   3.302   6.553   0.712 -1.2220  2.6272 -0.6791
18000TIP3    H275416   3.161   6.505   0.739 -0.8367  1.5594 -0.5375
18001TIP3   OH275417   1.826   2.128   5.763  0.1763  0.1646  0.4697
18001TIP3    H175418   1.791   2.212   5.735  0.6659  0.5341  0.9523
18001TIP3    H275419   1.814   2.127   5.858 -0.4671 -0.6081  0.3895
18002TIP3   OH275420   2.567   5.639  12.588  0.4403  0.0207 -0.3860
18002TIP3    H175421   2.581   5.727  12.622  1.5872 -0.6252  0.9126
18002TIP3    H275422   2.493   5.648  12.527 -2.2256  1.1885  2.6956
18003TIP3   OH275423   1.700   6.127  15.503 -0.6583  0.0256  0.1839
18003TIP3    H175424   1.731   6.170  15.423 -3.0376  0.6237 -0.5138
18003TIP3    H275425   1.623   6.178  15.528  0.3878  0.2466  3.2771
18004TIP3   OH275426   6.353   1.037   3.852  0.3096  0.1897 -0.0475
18004TIP3    H175427   6.286   0.969   3.852  0.2007  0.2682  1.4826
18004TIP3    H275428   6.392   1.033   3.939  2.0637  0.4000 -0.7754
18005TIP3   OH275429   0.365   2.230  11.977  0.8001  0.0220  0.1191
18005TIP3    H175430   0.337   2.139  11.973  1.1466 -0.1132  0.7737
18005TIP3    H275431   0.423   2.241  11.901  2.4813 -0.8877  1.2365
18006TIP3   OH275432   1.517   4.818  15.339  0.3846  0.0674 -0.3298
18006TIP3    H175433   1.437   4.769  15.317 -0.1031  0.7392 -0.1130
18006TIP3    H275434   1.585   4.752  15.346 -0.3214 -0.6099  0.2838
18007TIP3   OH275435   1.155   0.094  15.126 -0.5299  0.5480 -0.1210
18007TIP3    H175436   1.080   0.050  15.086 -3.2511  3.7011  0.9896
18007TIP3    H275437   1.126   0.115  15.215  1.9093  1.4716  0.5497
18008TIP3   OH275438   1.478   0.612   5.267  0.1403 -0.2805  0.2392
18008TIP3    H175439   1.489   0.685   5.207 -2.1316 -0.1222 -0.0613
18008TIP3    H275440   1.431   0.649   5.342 -0.6302 -1.3062  0.2881
18009TIP3   OH275441   3.636   1.869   0.852 -0.3485  0.1600  0.3873
18009TIP3    H175442   3.588   1.887   0.933 -0.2096  1.3156  0.2390
18009TIP3    H275443   3.612   1.779   0.829 -1.6634  0.3610  0.8544
18010TIP3   OH275444   5.892   6.518   0.331  0.2114  0.0764  0.2552
18010TIP3    H175445   5.830   6.476   0.391  0.8731 -0.9059  0.2703
18010TIP3    H275446   5.847   6.597   0.302 -1.0954 -0.6584  0.2005
18011TIP3   OH275447   0.054   5.837   3.501  0.6472  0.1950  0.4748
18011TIP3    H175448   0.083   5.916   3.546  0.3683  0.7724 -0.3276
18011TIP3    H275449  -0.020   5.866   3.447  0.9779 -0.4581 -0.3633
18012TIP3   OH275450   6.417   0.526   3.678  0.3521  0.3811 -0.6216
18012TIP3    H175451   6.454   0.580   3.608 -1.4235  1.5047 -0.7437
18012TIP3    H275452   6.328   0.508   3.650 -0.7274  1.6127  1.6974
18013TIP3   OH275453   5.779   3.043  13.261  0.3614 -0.3528 -0.5269
18013TIP3    H175454   5.693   3.084  13.251  0.9802  0.7206 -1.7848
18013TIP3    H275455   5.798   3.006  13.175  1.9908  1.1808 -0.8863
18014TIP3   OH275456   0.401   3.703  12.381 -0.2615 -0.1363 -0.6720
18014TIP3    H175457   0.351   3.720  12.301 -0.8869  1.0945 -0.0598
18014TIP3    H275458   0.355   3.754  12.448 -0.8129 -2.5324  0.8704
18015TIP3   OH275459   5.076   2.915   1.258  0.0344 -0.5861  0.0082
18015TIP3    H175460   4.994   2.957   1.282  0.7612  1.2684 -0.5730
18015TIP3    H275461   5.055   2.864   1.180 -0.4459  0.4581 -0.5737
18016TIP3   OH275462   4.416   3.884  12.566 -0.0732 -0.4717 -0.3888
18016TIP3    H175463   4.351   3.938  12.522 -0.6472  0.1954  1.1856
18016TIP3    H275464   4.370   3.847  12.641  1.2049 -0.3947  0.4764
18017TIP3   OH275465   2.621   6.607   0.186  0.4616 -0.1449 -0.3480
18017TIP3    H175466   2.616   6.700   0.161 -0.4317 -0.6283 -2.1582
18017TIP3    H275467   2.714   6.586   0.180  0.6188  0.5197 -0.4067
18018TIP3   OH275468   3.113   0.918   2.572 -0.2492  0.0066  0.0640
18018TIP3    H175469   3.106   0.830   2.534 -0.2216  0.4678 -1.0497
18018TIP3    H275470   3.060   0.915   2.651  1.5502 -1.6691  1.3015
18019TIP3   OH275471   6.396   3.183   5.189  0.2500  0.1217 -0.4824
18019TIP3    H175472   6.439   3.099   5.171  0.8852  0.6356 -1.5264
18019TIP3    H275473   6.447   3.221   5.260 -0.8174 -0.9081  0.8737
18020TIP3   OH275474   5.877   1.850   3.000  0.0775 -0.3230  0.2012
18020TIP3    H175475   5.862   1.923   3.060 -2.2078  0.5088 -1.2413
18020TIP3    H275476   5.817   1.781   3.030 -0.7314 -0.0763 -0.8094
18021TIP3   OH275477   2.121   4.332  12.658  0.4738 -0.5067  0.3771
18021TIP3    H175478   2.093   4.341  12.567  0.1831  0.2509  0.5367
18021TIP3    H275479   2.083   4.249  12.687  0.5378 -0.7308 -0.1769
18022TIP3   OH275480   0.495   0.161  14.626 -0.3371 -0.0153 -0.4935
18022TIP3    H175481   0.457   0.208  14.700  1.9500  0.7343  0.2907
18022TIP3    H275482   0.556   0.224  14.587  0.9220 -1.5100 -0.9934
18023TIP3   OH275483   5.714   1.034   5.101  0.0831  0.1369 -0.5755
18023TIP3    H175484   5.694   1.119   5.140 -0.3238 -0.1075 -0.2456
18023TIP3    H275485   5.632   0.986   5.103  0.7165 -0.9611  0.9884
18024TIP3   OH275486   5.180   0.167   2.628  0.3100 -0.0659  0.5268
18024TIP3    H175487   5.195   0.182   2.534 -0.1144  0.9139  0.6073
18024TIP3    H275488   5.175   0.071   2.636 -0.0563 -0.1475 -0.5132
18025TIP3   OH275489   0.999   2.074   1.755 -0.0512 -0.6397 -0.2416
18025TIP3    H175490   1.060   2.096   1.684 -0.0988 -2.1240 -0.7820
18025TIP3    H275491   0.967   1.987   1.732 -1.4709 -0.3796  0.6666
18026TIP3   OH275492   0.449   0.903   2.411  0.4130  1.1310  0.4138
18026TIP3    H175493   0.500   0.948   2.479  2.2087 -2.2656  1.5406
18026TIP3    H275494   0.492   0.928   2.329  0.4624  2.4747  0.8124
18027TIP3   OH275495   0.489   3.127   1.233  0.2476 -0.0867 -0.4261
18027TIP3    H175496   0.504   3.083   1.317  0.1792  1.2673  0.3224
18027TIP3    H275497   0.397   3.108   1.213  0.4496 -0.9898 -0.5591
18028TIP3   OH275498   3.648   2.853   5.560 -0.3107 -0.7449  0.4245
18028TIP3    H175499   3.618   2.921   5.620 -1.0089 -0.5846 -0.0884
18028TIP3    H275500   3.737   2.833   5.588 -0.9173 -1.2950  2.0410
18029TIP3   OH275501   0.612   4.728   6.203 -0.1314  0.0570 -0.5680
18029TIP3    H175502   0.577   4.810   6.237  2.2770  0.1915  1.8416
18029TIP3    H275503   0.535   4.671   6.195 -1.2531  0.8939  2.7587
18030TIP3   OH275504   3.984   5.917  11.464  0.6130 -0.3958 -0.5600
18030TIP3    H175505   4.036   5.983  11.418  1.7993 -1.4966 -0.8603
18030TIP3    H275506   4.001   5.934  11.557 -1.0202  1.2109 -0.4792
18031TIP3   OH275507   2.334   5.314  14.853  0.3151  0.1353 -0.6034
18031TIP3    H175508   2.376   5.383  14.905  0.2814 -1.2489  1.3969
18031TIP3    H275509   2.403   5.248  14.842 -0.0698 -0.1707 -1.1730
18032TIP3   OH275510   2.285   6.143  16.453  0.9141  0.4815 -0.3044
18032TIP3    H175511   2.301   6.086  16.378  0.0731  1.1731 -1.0209
18032TIP3    H275512   2.335   6.222  16.434  2.4687 -0.1475  0.9119
18033TIP3   OH275513   4.621   5.823  12.499 -0.0730 -0.4029 -0.7934
18033TIP3    H175514   4.705   5.840  12.456  0.1915 -0.5101 -0.3310
18033TIP3    H275515   4.610   5.728  12.496 -0.0763 -0.4072 -0.6767
18034TIP3   OH275516   1.691   4.330   5.984 -0.2372 -0.4023 -0.5474
18034TIP3    H175517   1.733   4.244   5.972  0.7786 -0.0764  0.4292
18034TIP3    H275518   1.600   4.316   5.961  0.1879 -1.4151 -1.7138
18035TIP3   OH275519   1.430   2.940   5.252 -0.3887  0.0223  0.2430
18035TIP3    H175520   1.426   3.013   5.314  1.2337  0.5552 -0.2189
18035TIP3    H275521   1.522   2.913   5.253 -1.0861 -2.5728  0.9886
18036TIP3   OH275522   3.761   1.481   2.799  0.4758  0.2453  0.6354
18036TIP3    H175523   3.757   1.539   2.875 -1.2876  0.0534  0.7282
18036TIP3    H275524   3.712   1.403   2.825  0.1631  0.0155 -0.5596
18037TIP3   OH275525   3.870   2.533  17.139 -0.0125  0.0977 -0.0395
18037TIP3    H175526   3.826   2.556  17.221 -1.5635 -1.5237 -0.3745
18037TIP3    H275527   3.904   2.445  17.153  0.5773  0.1824 -0.8205
18038TIP3   OH275528   4.377   6.166  14.427 -0.4645 -0.6235  0.5779
18038TIP3    H175529   4.355   6.259  14.432  1.6417 -0.0932  0.7092
18038TIP3    H275530   4.358   6.142  14.337 -0.1837  0.1777  0.2935
18039TIP3   OH275531   0.671   6.374  13.052 -0.0092 -0.0404  0.5587
18039TIP3    H175532   0.723   6.447  13.086 -0.5110  0.2210  0.7620
18039TIP3    H275533   0.726   6.336  12.983  0.7213 -0.1512  1.1913
18040TIP3   OH275534   2.247   5.391   4.764  0.7760  0.1291 -0.0620
18040TIP3    H175535   2.170   5.422   4.716  0.1476  0.2053  0.9566
18040TIP3    H275536   2.248   5.444   4.844  0.5417 -1.4017  1.0116
18041TIP3   OH275537   2.075   3.436   3.794  0.9640  0.0686  0.0305
18041TIP3    H175538   2.008   3.503   3.782  1.8379  0.7530 -1.2742
18041TIP3    H275539   2.145   3.480   3.843  0.6280 -0.5590  1.1302
18042TIP3   OH275540   5.293   3.398   6.272  0.0374 -0.1345  0.3525
18042TIP3    H175541   5.215   3.351   6.244 -1.0360  0.4921  2.1262
18042TIP3    H275542   5.268   3.438   6.355  1.3599  2.4071 -0.3705
18043TIP3   OH275543   4.238   4.040  13.771  0.2408 -0.2031  0.2644
18043TIP3    H175544   4.155   4.069  13.808  1.0420  0.8685  1.3095
18043TIP3    H275545   4.239   4.078  13.683 -0.2813 -0.0421  0.3224
18044TIP3   OH275546   2.499   0.372  16.580 -0.3473  0.5159  0.0995
18044TIP3    H175547   2.534   0.387  16.668  0.2762 -0.1636 -0.0223
18044TIP3    H275548   2.481   0.460  16.546 -0.1751  0.8046  0.7330
18045TIP3   OH275549   4.136   1.720   5.523  0.3941  0.5085  0.6663
18045TIP3    H175550   4.222   1.761   5.531 -0.4082  2.4818 -0.0637
18045TIP3    H275551   4.129   1.661   5.598  1.9283  1.1739  1.3589
18046TIP3   OH275552   0.420   2.225   0.360 -0.4486  0.0760 -0.1430
18046TIP3    H175553   0.404   2.189   0.273  0.5833  2.1261 -1.2626
18046TIP3    H275554   0.515   2.217   0.372 -0.6271 -0.5160  0.9577
18047TIP3   OH275555   6.275   4.208  12.339  0.1073 -0.0052  0.0740
18047TIP3    H175556   6.337   4.180  12.272 -0.2414  0.3263 -0.3855
18047TIP3    H275557   6.331   4.235  12.412  0.5382  0.9874 -0.6009
18048TIP3   OH275558   5.154   1.796   2.057  0.0184 -0.0896 -0.1260
18048TIP3    H175559   5.192   1.864   2.001  1.1534  1.4060  2.2972
18048TIP3    H275560   5.132   1.725   1.997 -1.0082  2.2831 -2.7622
18049TIP3   OH275561   3.535   3.682  15.901 -0.2880  0.3225  0.3419
18049TIP3    H175562   3.543   3.622  15.975 -0.2255 -0.5437 -0.3536
18049TIP3    H275563   3.455   3.732  15.919 -0.9271 -0.7085  0.4004
18050TIP3   OH275564   3.875   0.282   0.475  0.0817 -0.1784 -0.3141
18050TIP3    H175565   3.810   0.223   0.437  0.5360 -1.4830  0.8282
18050TIP3    H275566   3.828   0.326   0.546  0.1393 -0.2965 -0.2016
18051TIP3   OH275567   3.309   5.505   5.498 -0.3698  1.0504 -0.1102
18051TIP3    H175568   3.300   5.430   5.557 -1.2549  1.7179  0.6325
18051TIP3    H275569   3.384   5.483   5.443 -1.8216 -1.3561 -1.3405
18052TIP3   OH275570   0.196   1.374   1.799  0.4105  0.1776 -0.0177
18052TIP3    H175571   0.227   1.284   1.794 -1.4448 -0.5934  1.2768
18052TIP3    H275572   0.148   1.379   1.881  1.6879  2.8000  0.6985
18053TIP3   OH275573   2.371   6.374  12.958 -0.4993  0.2337  0.4431
18053TIP3    H175574   2.423   6.401  12.883  1.8066  0.8701  2.1525
18053TIP3    H275575   2.330   6.454  12.990 -0.9475  0.0830  0.2513
18054TIP3   OH275576   0.597   5.633  15.290 -0.0679  0.1544  0.0080
18054TIP3    H175577   0.616   5.540  15.294  0.0398  0.1592 -0.3564
18054TIP3    H275578   0.619   5.659  15.200 -0.0890  0.5310  0.1066
18055TIP3   OH275579   0.967   0.526   0.520 -0.3775 -0.5376 -0.5076
18055TIP3    H175580   0.926   0.611   0.501 -0.9712 -0.9662 -1.1750
18055TIP3    H275581   1.024   0.510   0.444 -0.2720 -0.7432 -0.3844
18056TIP3   OH275582   2.741   5.087   5.969  0.3319 -0.2901  0.5535
18056TIP3    H175583   2.773   5.068   5.880  1.0539  0.9037  0.5357
18056TIP3    H275584   2.683   5.014   5.990 -0.4928 -0.2035 -1.2212
18057TIP3   OH275585   0.528   4.055  15.316  0.4086 -0.3560 -0.3644
18057TIP3    H175586   0.501   4.091  15.401  2.4504 -0.4155  0.3506
18057TIP3    H275587   0.485   4.112  15.252 -1.2191 -0.3350  0.6624
18058TIP3   OH275588   0.776   1.023   0.673  0.5138  0.2945 -0.0735
18058TIP3    H175589   0.774   1.045   0.766  2.3940 -0.3628  0.1647
18058TIP3    H275590   0.719   0.946   0.665  1.7224 -0.7455  0.8974
18059TIP3   OH275591   1.149   0.550  13.260  0.5942  0.0954 -0.5914
18059TIP3    H175592   1.192   0.546  13.345  0.9539  1.0027 -0.7186
18059TIP3    H275593   1.135   0.643  13.245  2.6181  0.1619 -2.5556
18060TIP3   OH275594   1.287   6.570   0.598 -0.3158  0.1017  0.4891
18060TIP3    H175595   1.306   6.479   0.618  1.9289  0.4457  0.1987
18060TIP3    H275596   1.298   6.576   0.503 -1.8078  0.4087  0.3144
18061TIP3   OH275597   5.227   6.004  15.362  0.4608 -0.4395 -1.1140
18061TIP3    H175598   5.150   6.028  15.310  1.2081  2.0753 -1.2223
18061TIP3    H275599   5.298   6.001  15.298  0.4727 -3.0311 -1.0634
18062TIP3   OH275600   4.840   1.464  11.839 -0.0512  0.5194  0.1298
18062TIP3    H175601   4.783   1.408  11.893 -0.2611 -1.2155 -1.7417
18062TIP3    H275602   4.810   1.449  11.750  1.1538  2.2434 -0.6179
18063TIP3   OH275603   2.965   0.344   1.253 -0.4868  0.0036 -0.6073
18063TIP3    H175604   2.930   0.423   1.212  1.5192  0.7117 -1.0650
18063TIP3    H275605   2.972   0.281   1.182 -1.3852 -0.3725 -0.3844
18064TIP3   OH275606   1.037   5.160   7.157  0.1631  0.5152 -0.3157
18064TIP3    H175607   1.009   5.072   7.133  0.7111  0.1003  0.5332
18064TIP3    H275608   0.992   5.217   7.095 -1.4673 -0.2267  0.1272
18065TIP3   OH275609   1.961   1.721  14.630 -0.2971 -0.8474 -0.0679
18065TIP3    H175610   2.020   1.656  14.593  0.2839 -0.2418 -0.2180
18065TIP3    H275611   1.907   1.672  14.693 -0.1883 -1.5582 -0.5172
18066TIP3   OH275612   3.268   4.996   5.405 -0.2262  0.2097 -0.2574
18066TIP3    H175613   3.217   4.916   5.419 -0.0622  0.3263  1.1464
18066TIP3    H275614   3.357   4.972   5.428  0.0041  0.5418 -0.7886
18067TIP3   OH275615   3.800   2.096  15.172  0.6514  0.2609 -0.5668
18067TIP3    H175616   3.779   2.141  15.091  1.9335  1.5944 -0.2122
18067TIP3    H275617   3.801   2.003  15.149  0.2954  0.5673 -1.8910
18068TIP3   OH275618   0.971   1.804   3.167  0.0544  0.1710 -0.1482
18068TIP3    H175619   0.924   1.887   3.159 -0.5024  0.0113  1.0921
18068TIP3    H275620   0.910   1.739   3.131  0.3394  0.2507 -0.7820
18069TIP3   OH275621   5.795   5.522  11.068 -0.0630  0.4393  0.5516
18069TIP3    H175622   5.815   5.571  10.989  1.7619  0.8139  1.1849
18069TIP3    H275623   5.771   5.434  11.037 -2.4570  1.4020 -0.5337
18070TIP3   OH275624   4.533   6.506  11.019  0.2530  0.4230 -0.0602
18070TIP3    H175625   4.611   6.497  10.965 -0.3413  3.1448 -1.5668
18070TIP3    H275626   4.462   6.470  10.966 -0.1103  1.7903 -0.5454
18071TIP3   OH275627   1.625   6.758  13.399 -0.2959 -0.5873 -0.0109
18071TIP3    H175628   1.557   6.781  13.335 -0.8568 -2.7408 -0.2435
18071TIP3    H275629   1.668   6.682  13.361  2.6854  1.0166 -0.1366
18072TIP3   OH275630   2.950   1.025   3.079  0.0720  0.0016 -0.1326
18072TIP3    H175631   2.960   1.045   2.986  1.5264  0.5351  0.1139
18072TIP3    H275632   2.895   1.096   3.113 -1.5577 -0.8841 -0.7931
18073TIP3   OH275633   2.328   6.408  12.547  0.1229  0.1956  0.2534
18073TIP3    H175634   2.306   6.316  12.537 -0.6932  0.3252  0.8196
18073TIP3    H275635   2.410   6.418  12.498 -0.5971 -0.4905 -1.1527
18074TIP3   OH275636   1.349   5.002   5.070 -0.1746  0.2144  0.2748
18074TIP3    H175637   1.346   4.977   4.978 -0.1437 -1.2416  0.6424
18074TIP3    H275638   1.398   5.084   5.071  0.3095 -0.0396 -0.9485
18075TIP3   OH275639   2.182   4.598   4.128  0.3477 -0.3503  0.3664
18075TIP3    H175640   2.265   4.569   4.166  0.0283 -1.0882  0.5108
18075TIP3    H275641   2.132   4.631   4.203  1.1642  1.7659  0.0551
18076TIP3   OH275642   4.877   1.337  12.225 -0.3919  0.2559  0.0554
18076TIP3    H175643   4.828   1.260  12.256 -0.3916  0.0520 -0.4475
18076TIP3    H275644   4.950   1.301  12.176  0.1138  0.5696  0.5723
18077TIP3   OH275645   1.304   2.803  14.039 -0.5356  0.0976 -0.0441
18077TIP3    H175646   1.321   2.840  14.126 -0.6455  1.0620 -0.4232
18077TIP3    H275647   1.254   2.723  14.057  0.0395 -0.0858  0.8118
18078TIP3   OH275648   5.145   2.668  16.442  0.0918  0.2096 -0.4868
18078TIP3    H175649   5.075   2.605  16.424  2.0979 -2.5665  0.6790
18078TIP3    H275650   5.119   2.710  16.524  0.1136 -1.3648  0.3527
18079TIP3   OH275651   4.341   5.041   5.964  0.0922 -0.5335 -0.2076
18079TIP3    H175652   4.340   5.129   5.927 -0.7723 -1.3506 -2.2632
18079TIP3    H275653   4.256   5.032   6.007 -0.8791 -1.1720 -2.1560
18080TIP3   OH275654   5.713   0.186   2.874 -0.2431 -0.6419  0.4989
18080TIP3    H175655   5.694   0.095   2.895  0.7853 -0.8812  0.4549
18080TIP3    H275656   5.808   0.189   2.862 -0.4074  0.1548 -0.8736
18081TIP3   OH275657   5.019   2.790  11.147 -0.0121  0.2301  0.6105
18081TIP3    H175658   5.033   2.737  11.069 -0.4319 -2.5165  2.2776
18081TIP3    H275659   5.097   2.845  11.152 -0.8447  2.0485 -2.7342
18082TIP3   OH275660   6.006   2.702   3.830  0.3744 -0.1932 -0.0289
18082TIP3    H175661   6.091   2.742   3.811  1.2965 -1.7928  0.5844
18082TIP3    H275662   5.997   2.634   3.764 -0.4475 -0.0424 -0.0777
18083TIP3   OH275663   1.918   1.661  14.104 -0.1245 -0.5986  0.4127
18083TIP3    H175664   1.867   1.687  14.181  0.9451  2.2837  0.2819
18083TIP3    H275665   1.950   1.744  14.068 -1.7600 -1.6533 -4.0273
18084TIP3   OH275666   5.386   1.241   5.937  0.0578 -0.4152  0.0915
18084TIP3    H175667   5.460   1.181   5.945 -0.2729 -0.6272  1.9931
18084TIP3    H275668   5.313   1.196   5.979 -0.8074  0.3548 -0.5406
18085TIP3   OH275669   1.815   5.765  13.437  0.4005  0.5161 -0.0695
18085TIP3    H175670   1.815   5.860  13.428  1.6654  0.6260  0.9182
18085TIP3    H275671   1.901   5.743  13.471 -0.1517 -0.9190  0.5104
18086TIP3   OH275672   3.484   2.853   0.109  0.6592 -0.6131  0.3657
18086TIP3    H175673   3.559   2.840   0.168  0.5333  1.1167  0.9839
18086TIP3    H275674   3.414   2.884   0.166 -0.9809 -3.3573 -0.0130
18087TIP3   OH275675   0.688   1.868   1.260  0.0515 -0.0981 -0.0400
18087TIP3    H175676   0.595   1.866   1.236  0.1578  0.5656 -0.5382
18087TIP3    H275677   0.699   1.952   1.305  0.8072  0.7929 -1.7638
18088TIP3   OH275678   6.237   2.799  16.463 -0.0518 -0.1142  0.0818
18088TIP3    H175679   6.192   2.867  16.413 -1.6663 -2.1513 -1.4073
18088TIP3    H275680   6.230   2.828  16.554 -1.2850  1.3642 -0.4313
18089TIP3   OH275681   2.544   5.394  13.920  0.5330  0.1554  0.2880
18089TIP3    H175682   2.465   5.436  13.886  1.8561  1.2921 -1.5548
18089TIP3    H275683   2.523   5.374  14.011 -1.6194  1.0404  0.0452
18090TIP3   OH275684   0.136   3.586  15.359 -0.4132 -0.6617 -0.1093
18090TIP3    H175685   0.192   3.638  15.417 -0.0943 -0.3711 -0.6717
18090TIP3    H275686   0.182   3.586  15.275 -1.1950 -0.5132 -0.5478
18091TIP3   OH275687   4.126   2.774   0.858  0.6028 -0.4734 -0.0699
18091TIP3    H175688   4.195   2.715   0.889 -0.1268 -0.7559  1.0694
18091TIP3    H275689   4.052   2.757   0.917 -0.0644  0.6238 -0.5727
18092TIP3   OH275690   6.082   3.985   4.543  0.2310 -0.0395  0.1816
18092TIP3    H175691   5.989   3.980   4.522  0.0102  0.3575  1.0345
18092TIP3    H275692   6.091   4.064   4.596  1.2200  0.4833 -0.7185
18093TIP3   OH275693   5.879   0.337   0.786 -0.3790  0.1193 -0.3158
18093TIP3    H175694   5.929   0.297   0.857  1.1586  1.2109 -0.7204
18093TIP3    H275695   5.796   0.361   0.826  0.6276  1.1509  1.2853
18094TIP3   OH275696   4.860   4.945  13.119  0.4793  0.3853  0.9506
18094TIP3    H175697   4.953   4.929  13.104  0.1586 -0.1939 -0.5544
18094TIP3    H275698   4.816   4.877  13.069 -0.7667  0.4581  1.8973
18095TIP3   OH275699   5.417   4.705  13.104  0.0059  0.1392  0.4314
18095TIP3    H175700   5.363   4.676  13.178  0.9257 -0.2797  0.9650
18095TIP3    H275701   5.413   4.633  13.042  0.5222 -0.2172  0.7960
18096TIP3   OH275702   5.758   3.704  12.753  0.3188  0.0763  0.2155
18096TIP3    H175703   5.727   3.788  12.719  0.8575  0.2805  0.2152
18096TIP3    H275704   5.698   3.639  12.716 -0.6489  0.5332  0.9131
18097TIP3   OH275705   4.290   4.674  13.858 -0.4551 -0.4392  0.2318
18097TIP3    H175706   4.345   4.595  13.855  0.2363  0.0400 -0.0526
18097TIP3    H275707   4.329   4.733  13.793 -2.3831 -0.7536 -1.3002
18098TIP3   OH275708   6.591   4.013   1.432 -0.2639 -0.2035 -0.6420
18098TIP3    H175709   6.620   3.922   1.435  1.2149  0.1561  3.8111
18098TIP3    H275710   6.516   4.016   1.492  0.4010  1.6268  0.1795
18099TIP3   OH275711   1.317   5.079   3.242  0.1634  0.5065  0.1552
18099TIP3    H175712   1.292   5.000   3.194  0.7540 -0.1216  0.8643
18099TIP3    H275713   1.333   5.144   3.173 -0.6803  0.1186 -0.4166
18100TIP3   OH275714   3.863   6.106  10.624  0.4820  0.1576  0.4427
18100TIP3    H175715   3.822   6.191  10.640  1.1378  0.8599 -1.3573
18100TIP3    H275716   3.914   6.119  10.543 -0.5490 -2.3410 -0.6955
18101TIP3   OH275717   4.339   3.776   3.717 -0.6222 -1.2608  0.2190
18101TIP3    H175718   4.388   3.695   3.726 -1.7692 -2.1235 -0.9741
18101TIP3    H275719   4.256   3.760   3.761 -0.7712 -0.6494  0.1796
18102TIP3   OH275720   3.667   5.719   1.619  0.0041 -0.3723  0.3461
18102TIP3    H175721   3.747   5.716   1.672  0.5817  1.2367 -0.3539
18102TIP3    H275722   3.645   5.628   1.604  1.7217 -0.8626  0.5699
18103TIP3   OH275723   0.514   0.275  13.240  0.5768 -0.2176  0.0289
18103TIP3    H175724   0.534   0.359  13.282 -0.0372 -0.9420  1.8651
18103TIP3    H275725   0.599   0.246  13.205  1.0370  0.6200  0.4062
18104TIP3   OH275726   0.587   5.437  12.458 -0.0451 -0.5132  0.4203
18104TIP3    H175727   0.518   5.498  12.433  2.1653  1.7108 -0.5963
18104TIP3    H275728   0.668   5.487  12.452  1.7490 -3.0678  1.3041
18105TIP3   OH275729   0.567   6.707   4.993  0.0369  0.1775 -0.4230
18105TIP3    H175730   0.556   6.630   5.048  1.4635 -0.7183 -1.3051
18105TIP3    H275731   0.585   6.779   5.054  0.6295 -0.5992  0.3296
18106TIP3   OH275732   6.269   3.731   4.947  0.3743 -0.2112  0.5340
18106TIP3    H175733   6.188   3.752   4.902  0.7480 -1.2234 -0.6592
18106TIP3    H275734   6.257   3.641   4.978  1.6452 -0.9998 -1.1382
18107TIP3   OH275735   1.742   2.443  15.650 -0.4034 -0.0317 -0.7033
18107TIP3    H175736   1.670   2.381  15.661  0.0155 -0.4787 -0.4138
18107TIP3    H275737   1.740   2.467  15.558 -0.1744 -0.9806 -0.9708
18108TIP3   OH275738   1.045   5.622   0.731 -0.1777 -0.1957 -0.2653
18108TIP3    H175739   0.955   5.655   0.736 -0.6868 -1.6350  0.6494
18108TIP3    H275740   1.098   5.690   0.774 -0.9038  0.4053 -0.3098
18109TIP3   OH275741   6.171   0.252  13.673 -0.3878 -0.0857 -0.7308
18109TIP3    H175742   6.181   0.293  13.587  0.2852  0.4251 -0.4189
18109TIP3    H275743   6.256   0.263  13.715 -0.4413 -1.1100 -0.3314
18110TIP3   OH275744   2.584   6.130  16.564  0.0713 -0.3407 -0.1872
18110TIP3    H175745   2.548   6.199  16.507  0.9201  1.3102  1.1900
18110TIP3    H275746   2.541   6.143  16.648  1.2468 -0.5951  0.4778
18111TIP3   OH275747   5.474   2.609  13.627  0.2742  0.2938  1.6899
18111TIP3    H175748   5.381   2.586  13.631  0.1822  0.5550  1.1437
18111TIP3    H275749   5.493   2.651  13.711 -0.3795  1.2502  1.3781
18112TIP3   OH275750   1.052   1.084   0.156 -0.1609 -0.3900  0.3569
18112TIP3    H175751   1.078   1.021   0.224  0.4175  0.2475  0.7375
18112TIP3    H275752   0.966   1.053   0.126 -0.6667 -0.3939  1.7427
18113TIP3   OH275753   2.428   4.981   2.390  0.2966 -0.0322 -0.2270
18113TIP3    H175754   2.356   4.925   2.419  0.4148 -0.3655 -0.5648
18113TIP3    H275755   2.507   4.929   2.406  0.4245  0.1288 -0.3260
18114TIP3   OH275756   3.885   1.117   0.748  0.4649  0.1092 -0.1521
18114TIP3    H175757   3.874   1.144   0.657  0.6109 -1.4768 -0.6606
18114TIP3    H275758   3.972   1.150   0.773 -0.1073  1.6760 -0.1492
18115TIP3   OH275759   1.285   4.171   1.388 -0.2174 -0.3773 -0.2011
18115TIP3    H175760   1.249   4.223   1.317 -0.3926 -1.6744 -1.1095
18115TIP3    H275761   1.353   4.117   1.347  1.6501  0.8120  1.1543
18116TIP3   OH275762   4.817   2.837  16.745  0.4084 -0.2104 -0.1765
18116TIP3    H175763   4.784   2.890  16.672  1.4215 -0.4600 -0.8355
18116TIP3    H275764   4.739   2.796  16.781 -0.0871 -0.3751 -1.3705
18117TIP3   OH275765   3.454   0.927   5.468  0.0467 -0.3818 -0.8688
18117TIP3    H175766   3.363   0.916   5.497  0.7458  2.3391  2.9918
18117TIP3    H275767   3.453   1.007   5.416  0.0676 -1.1921 -2.1671
18118TIP3   OH275768   2.942   4.133  16.276  0.1211 -0.6157 -0.5962
18118TIP3    H175769   2.994   4.209  16.248 -2.8035  1.2065 -1.5886
18118TIP3    H275770   2.965   4.121  16.368  1.3633  0.8770 -0.6578
18119TIP3   OH275771   4.742   1.437   3.679  0.1549  0.4655  0.8473
18119TIP3    H175772   4.832   1.449   3.649  0.1824 -2.1702 -0.4132
18119TIP3    H275773   4.695   1.405   3.602 -1.2235 -0.7625  2.1400
18120TIP3   OH275774   3.055   6.481   4.721 -0.0053  0.0791 -0.0086
18120TIP3    H175775   2.994   6.517   4.657 -0.3965 -1.9845 -0.8783
18120TIP3    H275776   3.049   6.540   4.796  0.7458  2.8200 -1.9492
18121TIP3   OH275777   6.073   1.941   5.563 -0.0850  0.0425  0.1268
18121TIP3    H175778   6.070   2.032   5.593 -0.7910 -0.0209  0.2744
18121TIP3    H275779   6.147   1.937   5.503 -0.6071  0.9339 -0.5896
18122TIP3   OH275780   3.079   1.197  16.264 -0.2351 -0.0643 -0.0431
18122TIP3    H175781   3.012   1.145  16.308 -0.9706  1.5576  0.8617
18122TIP3    H275782   3.142   1.218  16.334 -0.1369  0.5297 -0.3075
18123TIP3   OH275783   1.606   5.683  11.864 -0.2632  1.0006 -0.5370
18123TIP3    H175784   1.639   5.683  11.954  0.8147  0.6642 -0.9104
18123TIP3    H275785   1.516   5.715  11.871 -0.9732 -1.1338  0.9242
18124TIP3   OH275786   5.029   4.028   1.168 -0.0531  0.2532 -0.0834
18124TIP3    H175787   5.040   3.959   1.103 -0.5154 -0.1899  0.2989
18124TIP3    H275788   4.934   4.036   1.179  0.0321 -0.1167  0.9927
18125TIP3   OH275789   4.131   2.093   2.867  0.4974  0.2066  0.1710
18125TIP3    H175790   4.163   2.092   2.777  1.7059  1.4290  0.5462
18125TIP3    H275791   4.072   2.169   2.870  2.1154  1.4996  0.8901
18126TIP3   OH275792   1.622   4.065   5.313 -0.3265 -0.2603 -0.0499
18126TIP3    H175793   1.653   4.007   5.383  1.4068 -0.2656 -0.7871
18126TIP3    H275794   1.603   4.006   5.240 -2.5550 -0.3041  0.5017
18127TIP3   OH275795   4.407   5.890   5.120  0.0413 -0.3647 -0.2980
18127TIP3    H175796   4.475   5.925   5.064 -2.2434  2.1962 -1.7220
18127TIP3    H275797   4.344   5.849   5.060 -1.7125  1.1149  0.4132
18128TIP3   OH275798   5.906   1.518  14.045  0.0049 -0.5702  0.1045
18128TIP3    H175799   5.852   1.572  13.986  0.7342 -0.1780 -0.2209
18128TIP3    H275800   5.984   1.571  14.061 -0.5183 -0.3210  2.0868
18129TIP3   OH275801   5.413   4.609  11.789  0.0777  0.1684 -0.5904
18129TIP3    H175802   5.462   4.603  11.707  0.8790  0.6950 -0.1648
18129TIP3    H275803   5.478   4.599  11.858 -0.5142  0.1974 -0.0093
18130TIP3   OH275804   6.209   1.293   3.823  0.1590 -0.2646 -0.1193
18130TIP3    H175805   6.236   1.201   3.829 -2.1125 -0.9128  1.9316
18130TIP3    H275806   6.283   1.337   3.782  2.5029 -2.5399  1.3233
18131TIP3   OH275807   1.380   3.666  12.647  0.1333  0.3437 -0.7413
18131TIP3    H175808   1.450   3.607  12.619  1.2679  0.5516  1.4604
18131TIP3    H275809   1.404   3.692  12.736 -1.1493  2.8845 -1.0309
18132TIP3   OH275810   3.447   2.078  16.996 -0.2881  0.6276 -0.8669
18132TIP3    H175811   3.469   2.114  16.910 -0.7899  1.0521 -0.8206
18132TIP3    H275812   3.484   2.141  17.058 -0.0790  0.4113 -0.7693
18133TIP3   OH275813   3.998   2.885   1.867 -0.6582 -0.9488 -0.7993
18133TIP3    H175814   3.914   2.906   1.826  0.2138 -1.6029 -3.1123
18133TIP3    H275815   4.050   2.849   1.796  1.4054 -1.1032  0.7071
18134TIP3   OH275816   0.757   0.759   0.431 -0.7049 -0.3608 -0.3952
18134TIP3    H175817   0.771   0.819   0.358 -3.5334  2.0413  0.8081
18134TIP3    H275818   0.722   0.680   0.391  0.8183 -0.3506 -1.8358
18135TIP3   OH275819   5.166   3.840   3.546  0.7985 -0.4951  0.2398
18135TIP3    H175820   5.071   3.832   3.547  0.7498 -0.1639 -0.5067
18135TIP3    H275821   5.191   3.851   3.638 -0.0857  1.4280  0.3130
18136TIP3   OH275822   4.836   2.579  17.262 -0.1795  0.3115 -0.1576
18136TIP3    H175823   4.903   2.586  17.194  1.1412 -2.2538  0.7279
18136TIP3    H275824   4.882   2.543  17.338 -1.8805  1.8038  1.6946
18137TIP3   OH275825   4.597   0.334   4.606 -0.2860  0.1712  0.1134
18137TIP3    H175826   4.665   0.330   4.674  0.2793 -0.5170 -0.4761
18137TIP3    H275827   4.641   0.302   4.527 -1.6246 -1.5664 -0.0005
18138TIP3   OH275828   1.905   6.026   4.675  1.1358  0.7263  0.4394
18138TIP3    H175829   1.989   5.999   4.713  1.4131  0.4042 -0.3828
18138TIP3    H275830   1.839   5.990   4.735  1.5858  1.7259  1.5735
18139TIP3   OH275831   5.427   2.425   4.845 -0.0029 -0.3792  0.1420
18139TIP3    H175832   5.472   2.393   4.923  1.2215  0.0415 -0.3724
18139TIP3    H275833   5.416   2.519   4.860  2.0621  0.0931 -1.0287
18140TIP3   OH275834   4.235   0.783   4.763 -0.2902 -0.1945 -0.6732
18140TIP3    H175835   4.195   0.804   4.848  1.1680 -1.2513  0.3361
18140TIP3    H275836   4.283   0.862   4.739 -1.3831  0.4035 -0.9484
18141TIP3   OH275837   3.180   6.548  16.582 -0.5563  0.3053  0.1340
18141TIP3    H175838   3.134   6.481  16.633 -0.1460  0.0481  0.1709
18141TIP3    H275839   3.271   6.543  16.614 -0.2444 -0.0049 -0.7732
18142TIP3   OH275840   4.926   3.285  16.398 -0.4794 -0.2029  0.1567
18142TIP3    H175841   4.992   3.335  16.446 -0.1602  1.1836 -1.6366
18142TIP3    H275842   4.976   3.220  16.348 -0.4900  0.5059 -0.7978
18143TIP3   OH275843   1.144   1.517  12.997 -0.1016  0.6663 -0.3621
18143TIP3    H175844   1.145   1.481  12.909 -0.3759  2.5604 -1.1863
18143TIP3    H275845   1.068   1.477  13.039  0.1804 -0.4447 -0.8917
18144TIP3   OH275846   4.713   0.736  13.131 -0.3874  0.3420 -0.4699
18144TIP3    H175847   4.770   0.707  13.060 -0.6769  2.4161 -1.6263
18144TIP3    H275848   4.766   0.801  13.179 -1.1521  1.0217 -0.5222
18145TIP3   OH275849   5.616   0.732  14.759 -0.0968 -0.0250  0.1434
18145TIP3    H175850   5.669   0.735  14.839  0.9568  0.7929 -0.5609
18145TIP3    H275851   5.676   0.758  14.689 -0.7944 -1.4885 -1.0480
18146TIP3   OH275852   6.288   0.712  17.073  0.2386  0.1778  0.0658
18146TIP3    H175853   6.272   0.629  17.116 -0.9571  1.3463  1.9855
18146TIP3    H275854   6.365   0.748  17.118  0.0535  0.6261  0.0268
18147TIP3   OH275855   2.722   0.240  16.479  0.0801  0.0615  0.1423
18147TIP3    H175856   2.647   0.291  16.508 -0.2508 -0.1471 -0.3305
18147TIP3    H275857   2.685   0.172  16.423  0.5602 -0.4277  0.4102
18148TIP3   OH275858   4.789   1.001   4.056 -0.1146 -0.1292  0.3745
18148TIP3    H175859   4.878   1.025   4.083  0.0215 -0.3734  0.1547
18148TIP3    H275860   4.771   1.058   3.981 -0.1515 -0.0615  0.4354
18149TIP3   OH275861   5.179   3.929   4.549 -0.1689  0.3141 -0.0553
18149TIP3    H175862   5.192   3.881   4.631  0.1947  0.4085 -0.0581
18149TIP3    H275863   5.199   3.865   4.481  2.1415  0.9760 -0.0477
18150TIP3   OH275864   4.081   6.517   2.928  0.2546  0.0317 -0.1369
18150TIP3    H175865   4.075   6.491   2.836  1.6345 -0.5764 -0.0809
18150TIP3    H275866   4.089   6.434   2.976  1.6434  0.4119  0.3242
18151TIP3   OH275867   1.535   5.211   5.059  0.4769  0.4090 -0.3130
18151TIP3    H175868   1.607   5.268   5.085 -0.1186  1.7011 -1.4061
18151TIP3    H275869   1.459   5.269   5.055 -0.6952 -0.9394  0.9660
18152TIP3   OH275870   6.075   5.067  12.808 -0.2811 -0.2677  0.3247
18152TIP3    H175871   6.035   5.028  12.730  0.0706 -0.5749  0.2947
18152TIP3    H275872   6.124   5.142  12.774 -1.2652  0.4406  0.4312
18153TIP3   OH275873   5.657   3.603  11.826 -0.1118  1.1344  0.4310
18153TIP3    H175874   5.694   3.691  11.820  2.1508  0.1650 -3.4610
18153TIP3    H275875   5.733   3.545  11.822 -1.6731 -0.9604 -1.4752
18154TIP3   OH275876   5.913   1.045  16.160 -0.4928 -0.2742  0.0942
18154TIP3    H175877   5.824   1.013  16.175 -0.6491  0.2321  0.2663
18154TIP3    H275878   5.902   1.123  16.106 -0.1440 -0.2703  0.0246
18155TIP3   OH275879   2.000   5.685   5.648 -0.0007  0.2501 -0.0406
18155TIP3    H175880   2.084   5.685   5.602  1.3650  1.3879  2.2605
18155TIP3    H275881   1.957   5.766   5.620  0.7951  0.9076  0.6043
18156TIP3   OH275882   2.911   3.020  15.838  0.2767 -0.1887 -0.2109
18156TIP3    H175883   2.883   2.976  15.918  0.0078 -0.8096 -0.6336
18156TIP3    H275884   2.996   3.057  15.860  2.3409 -4.0395 -0.8332
18157TIP3   OH275885   4.332   5.963   5.543 -0.8598  0.2653  0.0631
18157TIP3    H175886   4.247   5.980   5.503  0.0609  0.8807 -1.7007
18157TIP3    H275887   4.322   5.876   5.584 -2.3596  0.3980  0.0383
18158TIP3   OH275888   2.525   4.348  12.011 -0.0502 -0.4323 -0.0590
18158TIP3    H175889   2.607   4.328  12.054 -0.4660  0.1291  1.0483
18158TIP3    H275890   2.550   4.376  11.923  0.9833  0.1819  0.4129
18159TIP3   OH275891   6.364   2.287   3.310  0.2995  0.0141  0.0804
18159TIP3    H175892   6.373   2.196   3.280  0.2049  0.3559 -1.0649
18159TIP3    H275893   6.277   2.313   3.279  0.9716  0.9936 -1.0783
18160TIP3   OH275894   3.939   0.359  16.872 -0.1545 -0.5429  0.2852
18160TIP3    H175895   3.959   0.331  16.782 -0.5044 -0.5389  0.2042
18160TIP3    H275896   3.863   0.416  16.863 -1.0552 -1.6400  0.7243
18161TIP3   OH275897   4.364   5.411  14.340 -0.6042 -0.5243 -0.2624
18161TIP3    H175898   4.284   5.397  14.390 -0.2594  0.0100  0.4717
18161TIP3    H275899   4.405   5.325  14.334 -1.0224 -0.7217 -0.2721
18162TIP3   OH275900   1.054   5.526  12.532  0.2778 -0.1289  0.4880
18162TIP3    H175901   0.989   5.520  12.601 -1.7109  2.1302 -1.0363
18162TIP3    H275902   1.038   5.449  12.477 -1.1461  0.4107  0.1187
18163TIP3   OH275903   3.207   4.767  16.313  0.2309 -0.2882  0.2078
18163TIP3    H175904   3.276   4.713  16.352  1.6490 -0.3238 -2.1453
18163TIP3    H275905   3.127   4.741  16.360  1.7831 -0.0195  3.2603
18164TIP3   OH275906   1.344   4.751   3.019 -0.0808  0.0909  0.0218
18164TIP3    H175907   1.274   4.816   3.017 -0.3825 -0.2549 -0.6607
18164TIP3    H275908   1.306   4.676   3.066 -0.7241 -0.7084 -1.6815
18165TIP3   OH275909   5.208   1.399  14.700  0.4352  0.0397 -0.3313
18165TIP3    H175910   5.198   1.307  14.676  0.2358  0.3724 -1.6652
18165TIP3    H275911   5.270   1.400  14.772 -0.7317 -1.2550  0.7435
18166TIP3   OH275912   4.509   0.925   5.792  0.5842  0.1309  0.5630
18166TIP3    H175913   4.487   0.987   5.722  0.4294 -0.7746 -0.2202
18166TIP3    H275914   4.605   0.927   5.795  0.5574  1.6397  1.7208
18167TIP3   OH275915   1.077   5.256  15.441  0.0041  0.4999  0.6055
18167TIP3    H175916   1.166   5.274  15.471 -0.2623  0.8195  1.2349
18167TIP3    H275917   1.022   5.283  15.514 -0.5144 -1.5139  1.0045
18168TIP3   OH275918   5.437   1.087   1.363 -0.5062  0.1443 -0.2615
18168TIP3    H175919   5.368   1.044   1.312  0.0534 -1.2511  0.1217
18168TIP3    H275920   5.517   1.040   1.341  0.0434  0.6529  0.5779
18169TIP3   OH275921   1.981   2.557   3.399 -0.3992 -0.0089  0.1366
18169TIP3    H175922   1.945   2.474   3.430  0.2475 -0.3574 -0.0364
18169TIP3    H275923   1.995   2.608   3.479  1.0236 -0.8099  0.4367
18170TIP3   OH275924   0.459   1.809  13.855  0.3155  0.0152 -0.1690
18170TIP3    H175925   0.488   1.879  13.798 -0.0095 -0.4081 -0.8668
18170TIP3    H275926   0.383   1.771  13.810 -0.1119 -0.1501  0.6720
18171TIP3   OH275927   0.201   2.515   5.680 -0.0895  0.0972  0.0496
18171TIP3    H175928   0.217   2.479   5.767  0.1403  1.5249  0.6220
18171TIP3    H275929   0.115   2.481   5.655  0.1513 -0.8977  0.5119
18172TIP3   OH275930   0.746   2.801   1.049  0.7602  0.2104  0.0545
18172TIP3    H175931   0.793   2.744   1.109  1.5962  1.9153  1.0943
18172TIP3    H275932   0.801   2.805   0.971  0.9416 -0.0358  0.1701
18173TIP3   OH275933   2.050   4.779  16.613 -0.7642 -0.6149  0.3196
18173TIP3    H175934   2.024   4.778  16.706 -1.5435 -0.2310  0.1186
18173TIP3    H275935   2.052   4.872  16.590  0.2181 -0.6743  0.1607
18174TIP3   OH275936   1.768   2.598   3.218  0.3061  0.4857  0.2793
18174TIP3    H175937   1.844   2.605   3.275 -1.0803  2.0766  2.0690
18174TIP3    H275938   1.712   2.532   3.260 -0.2813  0.9212  0.1957
18175TIP3   OH275939   4.550   0.537   3.648  0.0220  0.1296 -0.0522
18175TIP3    H175940   4.561   0.543   3.743  0.5599  1.1273 -0.1642
18175TIP3    H275941   4.460   0.506   3.636 -0.6833  1.7761  0.7703
18176TIP3   OH275942   5.146   1.963  15.116 -0.1134 -0.5408  0.2053
18176TIP3    H175943   5.208   1.992  15.182  0.7935 -1.0962 -0.3771
18176TIP3    H275944   5.080   2.033  15.112  0.8867  0.4286  0.3029
18177TIP3   OH275945   3.257   2.197  11.435 -0.8204 -0.1122  0.1349
18177TIP3    H175946   3.332   2.140  11.416 -3.0826 -2.9720 -0.8253
18177TIP3    H275947   3.237   2.181  11.527  1.1437  2.6203  1.1866
18178TIP3   OH275948   2.540   0.536  14.189  0.2339 -0.5564 -0.6870
18178TIP3    H175949   2.610   0.600  14.202 -2.1882  1.9029  1.7863
18178TIP3    H275950   2.465   0.589  14.160 -0.8403 -2.9710 -2.6653
18179TIP3   OH275951   3.197   6.204   3.562 -0.6172 -0.4525 -0.2719
18179TIP3    H175952   3.142   6.137   3.523 -0.1847 -1.6609  1.1011
18179TIP3    H275953   3.283   6.194   3.520 -0.7348 -0.2995 -0.5495
18180TIP3   OH275954   2.980   1.443  15.307 -0.0051  0.3398 -0.7300
18180TIP3    H175955   2.961   1.534  15.329  1.0421  0.2093  0.8362
18180TIP3    H275956   2.969   1.395  15.389 -0.9697 -1.0405 -1.6260
18181TIP3   OH275957   0.646   3.787   6.659 -0.4785  0.6644 -0.1877
18181TIP3    H175958   0.565   3.800   6.707 -0.9987  1.3292 -1.2075
18181TIP3    H275959   0.619   3.753   6.574  0.4531 -1.0383  0.1398
18182TIP3   OH275960   3.680   6.702  12.179  0.2920  0.4908 -0.1546
18182TIP3    H175961   3.668   6.693  12.085  1.8123  0.7686 -0.4120
18182TIP3    H275962   3.774   6.721  12.189  0.4415 -0.8745  1.5021
18183TIP3   OH275963   6.416   2.971  14.498 -0.1735  0.0013 -0.1125
18183TIP3    H175964   6.411   3.034  14.426  2.3772  0.2790 -0.1266
18183TIP3    H275965   6.383   3.019  14.574 -0.1677  0.6675 -0.5219
18184TIP3   OH275966   4.740   0.041   5.593 -0.2512 -0.3947 -0.1191
18184TIP3    H175967   4.774   0.130   5.605  0.2544 -0.6525  0.4182
18184TIP3    H275968   4.787  -0.011   5.657 -1.1759 -0.8972  0.1745
18185TIP3   OH275969   5.790   0.291  14.651  0.0003 -0.3461 -0.2058
18185TIP3    H175970   5.835   0.374  14.663 -2.5990  1.0366  0.7022
18185TIP3    H275971   5.837   0.229  14.708 -0.2249  1.4322  2.0500
18186TIP3   OH275972   1.850   5.920  14.219 -0.4560 -0.0691  0.7229
18186TIP3    H175973   1.836   6.013  14.204 -0.6485 -0.2404 -0.2265
18186TIP3    H275974   1.764   5.886  14.245 -0.7090 -0.2041 -0.2202
18187TIP3   OH275975   1.336   3.968   3.768 -0.7943  0.8062 -0.7352
18187TIP3    H175976   1.280   4.027   3.818  0.9542  2.0825 -0.1840
18187TIP3    H275977   1.398   4.025   3.724  1.9686 -0.5955  1.0389
18188TIP3   OH275978   0.731   3.746  16.489  0.1502  0.2186 -0.5147
18188TIP3    H175979   0.686   3.818  16.445 -1.4518 -0.3509  0.1440
18188TIP3    H275980   0.795   3.715  16.425 -0.0918  1.3101 -1.3169
18189TIP3   OH275981   0.273   0.287   0.600 -0.5161 -0.0056 -0.5363
18189TIP3    H175982   0.290   0.193   0.596 -0.4492 -0.0154 -0.1054
18189TIP3    H275983   0.200   0.295   0.662  0.2360  0.3128  0.3342
18190TIP3   OH275984   3.167   2.168  13.411  0.6908 -0.2727 -0.1248
18190TIP3    H175985   3.127   2.218  13.340  1.2702  0.2868 -0.0566
18190TIP3    H275986   3.246   2.129  13.373  0.0358 -1.5055 -0.3010
18191TIP3   OH275987   0.474   0.294  12.611 -1.4383  0.1451 -0.3956
18191TIP3    H175988   0.433   0.285  12.697  0.0790  2.9156  0.7410
18191TIP3    H275989   0.512   0.382  12.612 -1.6135  0.4040 -4.0471
18192TIP3   OH275990   1.863   0.894   5.173  0.2659 -0.0561 -0.3843
18192TIP3    H175991   1.844   0.847   5.254  2.2612 -0.9012 -0.3360
18192TIP3    H275992   1.889   0.825   5.111  0.6650  0.7484 -1.1343
18193TIP3   OH275993   0.377   1.229  11.888  0.2054 -0.8232  0.3485
18193TIP3    H175994   0.282   1.211  11.884  0.4150 -2.4434  1.4268
18193TIP3    H275995   0.408   1.172  11.959  1.7184  1.0304  1.2514
18194TIP3   OH275996   4.423   0.428   2.103  0.5687  0.0400  0.2062
18194TIP3    H175997   4.513   0.445   2.132  0.6453 -1.5001  0.9871
18194TIP3    H275998   4.396   0.352   2.155 -0.5909 -0.5732 -1.2455
18195TIP3   OH275999   6.086   1.573  14.617 -0.1718 -0.1541 -0.5439
18195TIP3    H176000   6.006   1.620  14.639  1.0355  1.0578  1.6129
18195TIP3    H276001   6.155   1.618  14.667  1.4994 -2.5430 -0.5121
18196TIP3   OH276002   3.854   2.630   5.579 -0.4983 -0.3288  0.4662
18196TIP3    H176003   3.944   2.643   5.610 -0.5349  0.2442  0.3542
18196TIP3    H276004   3.862   2.564   5.510  0.3147  1.7585 -1.5971
18197TIP3   OH276005   0.324   0.173  16.910  0.1016  0.1426 -0.3096
18197TIP3    H176006   0.371   0.228  16.847  2.5233 -3.1562 -1.6953
18197TIP3    H276007   0.260   0.126  16.857 -0.8727  0.4385  0.5675
18198TIP3   OH276008   0.329   6.188   5.938  0.6680 -0.3599  0.1027
18198TIP3    H176009   0.269   6.209   6.010 -0.8077 -2.5346 -0.3740
18198TIP3    H276010   0.296   6.238   5.864  0.3618 -0.3840  0.2212
18199TIP3   OH276011   1.750   3.349  15.161  0.6111  0.0013  0.4022
18199TIP3    H176012   1.758   3.433  15.205 -0.3135 -0.3024  1.1827
18199TIP3    H276013   1.696   3.367  15.084 -1.1122 -0.1779  1.5171
18200TIP3   OH276014   3.691   1.095  11.373  0.5763  0.0125  0.0719
18200TIP3    H176015   3.648   1.180  11.360  0.3950  0.0196  0.6923
18200TIP3    H276016   3.727   1.073  11.287 -0.9194 -0.1387 -0.5410
18201TIP3   OH276017   2.858   6.131   3.784 -0.4913 -0.0643  0.3212
18201TIP3    H176018   2.831   6.201   3.844  0.2342  0.9475 -0.4792
18201TIP3    H276019   2.899   6.066   3.840 -1.6377 -0.1145  1.1540
18202TIP3   OH276020   1.258   1.233   3.130  0.7751  0.8016  0.2086
18202TIP3    H176021   1.194   1.278   3.185 -0.5334 -1.5098  0.7037
18202TIP3    H276022   1.275   1.294   3.058  1.1669  3.1685  2.1488
18203TIP3   OH276023   5.526   2.648  15.411 -0.1658  0.1375 -0.0357
18203TIP3    H176024   5.617   2.673  15.399 -0.7210  1.3550 -2.0927
18203TIP3    H276025   5.483   2.727  15.444 -0.3494 -0.7088  1.9212
18204TIP3   OH276026   5.700   3.431   5.830 -0.8635 -0.4137 -1.1251
18204TIP3    H176027   5.626   3.388   5.873 -2.2489  1.4413 -1.5212
18204TIP3    H276028   5.660   3.481   5.759  0.8639  0.2012 -1.7144
18205TIP3   OH276029   5.318   4.042  14.163 -0.6372  0.3327  0.0312
18205TIP3    H176030   5.272   4.073  14.241 -0.4392  1.1702 -0.1638
18205TIP3    H276031   5.312   4.116  14.102 -1.9377 -0.7731 -1.2415
18206TIP3   OH276032   6.672   5.649  13.917 -0.1024 -0.0963  0.2884
18206TIP3    H176033   6.626   5.712  13.861 -1.2088 -1.0828  0.0653
18206TIP3    H276034   6.655   5.564  13.878  1.3152 -0.5743  0.6322
18207TIP3   OH276035   0.668   4.758   4.172  0.1844  0.5925 -0.3812
18207TIP3    H176036   0.693   4.731   4.084 -0.3730 -1.5946  0.0660
18207TIP3    H276037   0.661   4.676   4.221 -0.7196  1.6581  1.3819
18208TIP3   OH276038   5.442   5.413   4.407 -0.1157  0.4191  0.0010
18208TIP3    H176039   5.354   5.400   4.372 -0.1999  0.0878  0.3311
18208TIP3    H276040   5.454   5.341   4.469  0.0471  0.9887  0.6393
18209TIP3   OH276041   5.086   3.073   1.468 -0.3160  0.1462 -0.3825
18209TIP3    H176042   5.113   3.014   1.397  0.8525 -0.0272  0.1772
18209TIP3    H276043   5.147   3.054   1.539 -1.8457 -0.1266  0.9139
18210TIP3   OH276044   3.843   4.605  16.989  0.1444 -0.7468  0.3057
18210TIP3    H176045   3.797   4.570  17.065  2.4018  0.8490  2.5262
18210TIP3    H276046   3.865   4.528  16.937 -3.4706 -1.7140 -0.0889
18211TIP3   OH276047   3.167   6.546  16.309 -0.6429  0.1918 -0.0482
18211TIP3    H176048   3.201   6.626  16.268  0.7004 -0.1737  0.2935
18211TIP3    H276049   3.170   6.564  16.403  1.1025 -0.7632  0.1141
18212TIP3   OH276050   5.231   5.255  13.279  0.1122 -0.0047  0.5470
18212TIP3    H176051   5.236   5.350  13.270  2.5004 -0.0959  0.3307
18212TIP3    H276052   5.138   5.234  13.267 -0.3573  2.2253 -0.0159
18213TIP3   OH276053   6.678   5.161  11.684  0.3640 -0.5972 -0.8068
18213TIP3    H176054   6.697   5.148  11.591  1.0782  0.0539 -0.7598
18213TIP3    H276055   6.595   5.114  11.698  0.0022 -0.3075 -1.8774
18214TIP3   OH276056   2.220   1.336  13.434  0.6807 -0.7697  0.3450
18214TIP3    H176057   2.280   1.352  13.361  0.5555  0.1871  0.4385
18214TIP3    H276058   2.253   1.391  13.505  0.0460 -0.6915  0.5854
18215TIP3   OH276059   0.655   1.107  15.818  0.1917  0.2723  0.1272
18215TIP3    H176060   0.576   1.055  15.800  0.4146  0.5630 -2.0524
18215TIP3    H276061   0.727   1.047  15.801  0.4381  0.9331 -1.2940
18216TIP3   OH276062   3.007   1.335   1.728 -0.2675 -0.1448 -0.3864
18216TIP3    H176063   2.989   1.267   1.793  1.1767 -1.0956 -0.9288
18216TIP3    H276064   3.069   1.394   1.771  0.3046 -0.5002 -0.7038
18217TIP3   OH276065   5.874   6.446   1.608 -0.0184 -0.2727  0.3209
18217TIP3    H176066   5.855   6.358   1.576  0.0008 -0.0838 -0.2330
18217TIP3    H276067   5.969   6.447   1.622 -0.0103 -0.3226  0.2684
18218TIP3   OH276068   1.208   6.388  14.546 -0.2267  0.7518  0.5191
18218TIP3    H176069   1.237   6.365  14.458  0.2306 -0.6764  1.0164
18218TIP3    H276070   1.259   6.466  14.568 -0.8304  1.5277 -0.7155
18219TIP3   OH276071   6.534   2.846  17.178  0.3277  0.6184  0.5729
18219TIP3    H176072   6.607   2.798  17.141  1.0491  2.5936 -0.7107
18219TIP3    H276073   6.575   2.917  17.229 -0.6557  1.6403 -0.0116
18220TIP3   OH276074   4.356   0.492   3.961  0.2432  0.4900 -0.0681
18220TIP3    H176075   4.423   0.432   3.927  1.0138  2.3834 -2.1253
18220TIP3    H276076   4.279   0.476   3.906 -0.4524 -0.4197  1.1231
18221TIP3   OH276077   0.892   2.164   1.990  0.3651 -0.1520  0.3375
18221TIP3    H176078   0.843   2.224   1.933 -1.4431 -1.3832  0.5254
18221TIP3    H276079   0.944   2.111   1.929 -0.4486 -0.4885 -0.0781
18222TIP3   OH276080   2.842   2.261   6.697 -0.0833  0.1478  0.1141
18222TIP3    H176081   2.896   2.285   6.772 -0.6141 -1.6093  1.1031
18222TIP3    H276082   2.765   2.319   6.704  0.6455  1.1592 -0.0659
18223TIP3   OH276083   5.795   0.124   3.406  0.4711  0.0035 -0.6897
18223TIP3    H176084   5.837   0.066   3.469  1.4992 -0.9854 -2.2238
18223TIP3    H276085   5.733   0.069   3.360 -0.4384  0.7727 -0.4232
18224TIP3   OH276086   0.095   0.434  14.046 -0.3119 -0.2305 -0.0663
18224TIP3    H176087   0.049   0.504  14.000 -0.0083  1.1938  1.6771
18224TIP3    H276088   0.054   0.353  14.015 -1.4796  0.7851 -1.2648
18225TIP3   OH276089   3.281   1.929  16.562  0.0646 -0.5379 -0.0342
18225TIP3    H176090   3.272   1.958  16.471 -1.9540  1.7801  0.8120
18225TIP3    H276091   3.192   1.911  16.590  0.6736 -1.3211  1.4792
18226TIP3   OH276092   3.648   2.097  13.305  0.9764 -0.6276 -0.5170
18226TIP3    H176093   3.626   2.008  13.278 -0.0408 -0.1116 -1.4425
18226TIP3    H276094   3.633   2.151  13.227  0.4247  0.5276  0.3507
18227TIP3   OH276095   0.543   2.639   4.847 -0.8677  0.2058 -0.7392
18227TIP3    H176096   0.522   2.658   4.756  0.1121  1.6238 -0.6991
18227TIP3    H276097   0.492   2.703   4.897 -2.0975 -1.1263 -0.1992
18228TIP3   OH276098   3.322   1.988   6.079  0.1200  0.5090  0.2474
18228TIP3    H176099   3.262   2.062   6.095  0.6427  1.2170 -0.9254
18228TIP3    H276100   3.338   1.991   5.984 -0.6712 -1.7630 -0.0069
18229TIP3   OH276101   4.266   2.704   2.473 -0.1836 -0.3662  0.6555
18229TIP3    H176102   4.178   2.724   2.441 -0.2284 -2.2955 -0.5763
18229TIP3    H276103   4.321   2.772   2.434 -0.9965  0.4204  0.8323
18230TIP3   OH276104   4.271   1.615   3.199  0.1914 -0.4189 -0.0126
18230TIP3    H176105   4.320   1.659   3.268 -0.9915  1.5102 -0.3135
18230TIP3    H276106   4.186   1.596   3.239 -0.6004  0.9543 -0.9468
18231TIP3   OH276107   1.448   6.363   0.968 -0.0640  0.4278  0.1160
18231TIP3    H176108   1.401   6.319   1.039 -0.8327 -0.2993 -0.8022
18231TIP3    H276109   1.477   6.446   1.006  0.1957 -0.2553  1.4871
18232TIP3   OH276110   4.382   1.471   0.493 -0.2168 -0.3038  0.3503
18232TIP3    H176111   4.470   1.488   0.458  0.0983  0.6266  1.5248
18232TIP3    H276112   4.356   1.554   0.534 -1.9396 -0.3392 -0.5514
18233TIP3   OH276113   6.047   6.589   5.430  0.1996 -0.0630  0.5876
18233TIP3    H176114   6.012   6.546   5.508 -2.7305 -0.7358 -0.9273
18233TIP3    H276115   5.997   6.671   5.424  0.4140 -0.0030 -0.5200
18234TIP3   OH276116   5.965   2.654   0.475 -0.4086  0.1441 -0.8330
18234TIP3    H176117   5.980   2.739   0.516  0.8752 -0.9342  1.1300
18234TIP3    H276118   6.016   2.657   0.394  1.1235  0.6597  0.1061
18235TIP3   OH276119   1.677   0.401  16.181  0.0415  0.2233  0.2085
18235TIP3    H176120   1.692   0.307  16.197  0.4870  0.4132  0.9480
18235TIP3    H276121   1.600   0.403  16.125 -1.7404 -0.5199  2.4660
18236TIP3   OH276122   0.283   6.070  14.488 -0.5803 -0.1279  0.0021
18236TIP3    H176123   0.274   5.978  14.512  0.5458 -0.1803  0.2568
18236TIP3    H276124   0.214   6.084  14.423 -1.3751 -0.8950  0.6500
18237TIP3   OH276125   1.958   1.988  13.449  0.3676  0.3509 -0.3044
18237TIP3    H176126   1.960   1.947  13.363  0.4903 -0.3648  0.0297
18237TIP3    H276127   1.867   2.015  13.461 -0.3714 -2.1772  0.5159
18238TIP3   OH276128   2.748   0.449  12.440 -0.7929 -0.0974  0.8789
18238TIP3    H176129   2.776   0.490  12.358 -1.7433 -0.3628  0.4129
18238TIP3    H276130   2.660   0.417  12.422 -0.7271 -0.8230  1.7726
18239TIP3   OH276131   4.948   6.180   2.423  0.2063  0.3717  0.3113
18239TIP3    H176132   4.960   6.243   2.494  1.7470  1.2565 -0.6778
18239TIP3    H276133   4.993   6.219   2.348 -1.1539 -0.6487 -1.1075
18240TIP3   OH276134   2.888   1.396  11.675 -0.1389  0.3026 -0.5728
18240TIP3    H176135   2.870   1.377  11.583 -0.1463  1.4028 -0.8135
18240TIP3    H276136   2.873   1.313  11.720 -1.4362  0.0694 -1.3848
18241TIP3   OH276137   2.064   5.927   0.480  0.2853  0.3229 -0.5153
18241TIP3    H176138   1.982   5.935   0.528  1.2642  0.6936  1.1867
18241TIP3    H276139   2.086   6.018   0.457  1.8606  0.6983  2.0502
18242TIP3   OH276140   6.319   3.626  17.264 -0.5931 -0.0312 -0.4614
18242TIP3    H176141   6.366   3.638  17.182  0.4801 -0.2578  0.0975
18242TIP3    H276142   6.383   3.588  17.323 -1.4975 -0.3760  0.3337
18243TIP3   OH276143   4.771   4.897   5.689  0.2359  0.2723 -0.1052
18243TIP3    H176144   4.728   4.981   5.704 -0.3107  0.2644 -1.5059
18243TIP3    H276145   4.726   4.859   5.614  1.2095 -0.7734 -0.1977
18244TIP3   OH276146   2.446   2.475  14.260 -0.2786 -0.5261 -1.0424
18244TIP3    H176147   2.443   2.387  14.223  2.8678 -1.0586 -0.3319
18244TIP3    H276148   2.496   2.526  14.197  1.7514 -0.4577  0.5158
18245TIP3   OH276149   4.856   5.337  12.008 -0.0402  0.1832  0.2085
18245TIP3    H176150   4.929   5.396  11.991  0.0652 -0.0492 -0.1509
18245TIP3    H276151   4.799   5.386  12.068  1.3694 -0.3708  2.0876
18246TIP3   OH276152   1.136   5.522  12.880 -0.1542  0.0220 -0.2120
18246TIP3    H176153   1.053   5.476  12.867 -0.4648  0.1175  1.2918
18246TIP3    H276154   1.203   5.454  12.867 -0.5683 -0.6231  0.8636
18247TIP3   OH276155   1.927   0.844   4.025 -0.2914 -0.1017  0.4624
18247TIP3    H176156   1.889   0.904   4.090  1.3098  1.2283  0.2432
18247TIP3    H276157   1.991   0.793   4.075  1.1387  1.1102 -0.0666
18248TIP3   OH276158   5.531   1.881  16.769  0.0509 -0.4203 -0.2838
18248TIP3    H176159   5.460   1.834  16.812  2.1154 -2.5055  1.0951
18248TIP3    H276160   5.543   1.836  16.686  0.6529 -1.0252  0.1166
18249TIP3   OH276161   5.955   5.299   1.797 -0.1717  0.0911  0.2423
18249TIP3    H176162   5.927   5.231   1.857 -2.2898 -0.6297 -1.4218
18249TIP3    H276163   6.040   5.269   1.763  0.1132 -0.4280  1.3891
18250TIP3   OH276164   1.566   3.435   0.792 -0.2119 -0.1602  0.2055
18250TIP3    H176165   1.599   3.353   0.758  1.7372 -0.3978  2.4314
18250TIP3    H276166   1.507   3.468   0.723 -0.0472 -2.7304 -1.2811
18251TIP3   OH276167   3.316   2.307   6.451 -0.0796 -0.2975 -0.0229
18251TIP3    H176168   3.352   2.229   6.493 -0.7178  0.1149  1.3482
18251TIP3    H276169   3.385   2.373   6.457  0.1461 -0.4905 -0.4245
18252TIP3   OH276170   0.380   2.106   4.878 -0.2860  0.1117  0.0702
18252TIP3    H176171   0.295   2.067   4.897 -0.6196  0.0336 -1.4686
18252TIP3    H276172   0.416   2.129   4.964 -0.9302 -1.7649  0.8763
18253TIP3   OH276173   6.209   3.831  13.255  0.5351 -0.4536 -0.0382
18253TIP3    H176174   6.301   3.814  13.276  0.6934 -0.8640 -1.0496
18253TIP3    H276175   6.212   3.896  13.185 -0.0195  2.6555  2.5517
18254TIP3   OH276176   0.904   6.337   2.840 -0.0573  0.3577 -0.3105
18254TIP3    H176177   0.875   6.291   2.918  0.2081  1.3391  0.3855
18254TIP3    H276178   0.896   6.273   2.770 -0.3007 -0.5386  0.5190
18255TIP3   OH276179   6.005   2.674  11.038 -0.2823 -0.1936 -0.2037
18255TIP3    H176180   6.042   2.733  10.973 -2.8069  1.8013  0.0038
18255TIP3    H276181   5.985   2.594  10.989  0.1447  0.3452 -1.3007
18256TIP3   OH276182   0.744   1.840  13.870  0.4891 -0.4847  0.3987
18256TIP3    H176183   0.793   1.863  13.949  0.9325 -0.2647  0.0661
18256TIP3    H276184   0.654   1.831  13.900  0.5081  0.4398  0.7712
18257TIP3   OH276185   5.833   1.365   3.767 -0.5103 -0.0052  0.1820
18257TIP3    H176186   5.881   1.356   3.850  1.5462  0.2577 -0.9122
18257TIP3    H276187   5.790   1.450   3.773  1.9054  1.3276 -0.0536
18258TIP3   OH276188   1.364   2.378   3.855  0.3276  0.0526 -0.1029
18258TIP3    H176189   1.443   2.354   3.905  0.1879  0.5455  0.3656
18258TIP3    H276190   1.298   2.315   3.884  0.6210 -0.5358 -0.7015
18259TIP3   OH276191   6.399   2.205   6.142 -0.2657  0.5471  0.4275
18259TIP3    H176192   6.388   2.288   6.189 -0.5645  0.7868 -0.0622
18259TIP3    H276193   6.320   2.155   6.163 -1.8207  1.7720 -2.0720
18260TIP3   OH276194   1.413   0.773   1.015  0.9494  0.0840  0.1206
18260TIP3    H176195   1.468   0.833   0.965  0.5538  0.1767 -0.2085
18260TIP3    H276196   1.432   0.687   0.978 -0.6728  0.3442 -1.4652
18261TIP3   OH276197   5.269   2.090  11.159 -0.1337  0.0376 -0.3949
18261TIP3    H176198   5.328   2.138  11.100 -0.8955  1.0165 -0.3762
18261TIP3    H276199   5.181   2.116  11.132 -0.5418 -0.6715  0.2076
18262TIP3   OH276200   1.313   0.947  10.656  0.1897 -0.2048  0.4968
18262TIP3    H176201   1.397   0.988  10.678  0.0890  0.1758  0.1927
18262TIP3    H276202   1.268   1.012  10.601 -1.5229  0.8545  2.9663
18263TIP3   OH276203   0.194   6.462   5.781 -0.7270  0.0346  0.6319
18263TIP3    H176204   0.157   6.547   5.757 -0.6546 -0.2043 -0.3464
18263TIP3    H276205   0.286   6.468   5.757 -0.9654 -0.7220 -0.5523
18264TIP3   OH276206   3.774   3.111  13.483 -0.7268 -0.0149 -0.1829
18264TIP3    H176207   3.688   3.072  13.472 -0.7279 -0.4762  1.1734
18264TIP3    H276208   3.825   3.043  13.529  0.0762  0.5809 -0.1666
18265TIP3   OH276209   0.925   4.131  12.480  0.1868 -0.5299  0.0159
18265TIP3    H176210   0.957   4.042  12.467 -0.7733 -0.9714  0.5350
18265TIP3    H276211   0.986   4.186  12.431  0.3345 -1.5437 -0.9897
18266TIP3   OH276212   4.189   1.156   2.240  0.2673 -0.1676  0.1611
18266TIP3    H176213   4.169   1.064   2.257  0.8931 -0.2793  0.3420
18266TIP3    H276214   4.282   1.155   2.216 -0.0923  0.2203 -1.3802
18267TIP3   OH276215   2.412   5.659  16.620  0.2315  0.0326  0.1364
18267TIP3    H176216   2.444   5.629  16.535  0.0324 -0.0637  0.0938
18267TIP3    H276217   2.475   5.726  16.648 -0.6281  1.3074 -0.8694
18268TIP3   OH276218   0.274   5.436  13.858 -0.2401  0.5082 -0.3376
18268TIP3    H176219   0.344   5.502  13.864 -0.5527  0.8026  0.1558
18268TIP3    H276220   0.225   5.446  13.940  0.5421 -1.2897  0.4037
18269TIP3   OH276221   3.708   2.522  17.375  0.2050  0.3266 -0.0984
18269TIP3    H176222   3.622   2.526  17.335 -0.4920 -0.3013  1.2739
18269TIP3    H276223   3.721   2.608  17.415  0.0690  0.3166 -0.0331
18270TIP3   OH276224   2.481   4.797   4.162  0.6965  0.2579 -0.0192
18270TIP3    H176225   2.575   4.793   4.144  0.8376 -1.3385  0.8736
18270TIP3    H276226   2.458   4.707   4.184 -0.7399  0.9197  1.2855
18271TIP3   OH276227   4.598   6.100  16.867 -0.3145 -0.0986  0.0084
18271TIP3    H176228   4.584   6.081  16.960 -0.6503  2.5133  0.5800
18271TIP3    H276229   4.674   6.048  16.843 -0.0185 -0.5966  1.8379
18272TIP3   OH276230   0.286   2.313  16.641  0.3441 -0.1492  0.0620
18272TIP3    H176231   0.329   2.257  16.576  0.9158 -2.1157  1.9983
18272TIP3    H276232   0.195   2.283  16.641 -0.4612  1.9764 -1.9123
18273TIP3   OH276233   5.822   4.740  13.163  0.1066  0.0454 -0.2630
18273TIP3    H176234   5.858   4.776  13.244  0.6593  1.7064 -1.2152
18273TIP3    H276235   5.807   4.647  13.183  1.4064  0.1337  1.3440
18274TIP3   OH276236   4.420   0.199   2.224 -0.4742  0.3214  0.1746
18274TIP3    H176237   4.489   0.137   2.247 -0.9968 -1.1383 -1.8983
18274TIP3    H276238   4.341   0.145   2.217 -1.0204  1.2595 -1.3299
18275TIP3   OH276239   0.229   4.593  16.915  0.9101 -0.0400  0.0342
18275TIP3    H176240   0.196   4.643  16.841  2.9840  2.8379  0.8423
18275TIP3    H276241   0.160   4.600  16.982 -0.6527 -2.0455 -1.2436
18276TIP3   OH276242   2.761   0.955  16.733  0.0602  0.4401  0.0875
18276TIP3    H176243   2.840   0.945  16.680  0.5810 -1.3217  1.0998
18276TIP3    H276244   2.699   1.002  16.677  0.5488 -1.3697 -2.1121
18277TIP3   OH276245   5.492   5.591  11.006 -0.0580 -0.6155  0.1105
18277TIP3    H176246   5.582   5.612  10.980 -0.5012  0.1211 -0.8808
18277TIP3    H276247   5.458   5.539  10.933 -0.5124 -0.7084  0.3852
18278TIP3   OH276248   0.948   4.274  15.430  0.0163 -0.5615 -0.6097
18278TIP3    H176249   0.955   4.247  15.521  0.2277 -0.2181 -0.5220
18278TIP3    H276250   0.858   4.307  15.422  0.1698 -0.0668 -0.3752
18279TIP3   OH276251   6.504   2.236   6.529  0.1172 -0.4695  0.1411
18279TIP3    H176252   6.485   2.295   6.456  1.0228  0.1153  0.3630
18279TIP3    H276253   6.532   2.294   6.600 -0.3032 -1.0679  0.8084
18280TIP3   OH276254   3.490   4.319   5.232 -0.5279 -0.0809  0.1661
18280TIP3    H176255   3.449   4.347   5.314 -0.7478 -1.1907  0.4443
18280TIP3    H276256   3.551   4.250   5.257  0.8176  0.8633 -0.3776
18281TIP3   OH276257   1.792   3.302   1.186  0.2966  0.1132  0.1806
18281TIP3    H176258   1.716   3.351   1.154 -0.3414 -1.7544 -1.3312
18281TIP3    H276259   1.853   3.303   1.113  0.5283 -0.8152  0.3599
18282TIP3   OH276260   0.799   5.921   4.455 -0.3074  0.8367  0.6296
18282TIP3    H176261   0.814   5.845   4.511 -1.7888 -1.0070 -1.3144
18282TIP3    H276262   0.749   5.982   4.510 -2.1240 -1.0894  1.2334
18283TIP3   OH276263   4.961   6.558  14.858 -0.2412 -0.3082  0.4906
18283TIP3    H176264   4.993   6.587  14.943  0.4866 -0.4425  0.2731
18283TIP3    H276265   5.025   6.592  14.796  0.4013 -1.9723  0.1800
18284TIP3   OH276266   4.580   2.678   0.956  0.3683 -0.3118  0.1854
18284TIP3    H176267   4.608   2.684   1.047  0.9792 -0.3288  0.0047
18284TIP3    H276268   4.551   2.588   0.945 -1.0626  0.0539  0.7337
18285TIP3   OH276269   5.543   3.176  13.204  0.0053  0.3316 -0.3511
18285TIP3    H176270   5.568   3.268  13.194 -1.6544  1.0151  1.3861
18285TIP3    H276271   5.462   3.168  13.153 -0.7634  0.2811  0.8570
18286TIP3   OH276272   0.706   6.210  14.990 -0.7185 -0.3035 -0.6388
18286TIP3    H176273   0.630   6.258  15.025  0.7850  0.8962  1.1671
18286TIP3    H276274   0.673   6.121  14.978 -2.0510 -0.2321  1.6741
18287TIP3   OH276275   5.290   3.058  11.898  0.2562  0.4620  0.0236
18287TIP3    H176276   5.310   3.118  11.826  2.1252 -0.4674 -0.2997
18287TIP3    H276277   5.302   3.111  11.977  1.5662  0.6192 -0.2637
18288TIP3   OH276278   3.638   5.078   5.421  0.0183  0.3112  0.2303
18288TIP3    H176279   3.581   5.144   5.461 -0.6066 -1.0601  1.6623
18288TIP3    H276280   3.724   5.120   5.418  0.0820  0.5225  3.0017
18289TIP3   OH276281   1.916   3.625   1.697 -0.7311 -0.2393  0.0729
18289TIP3    H176282   1.997   3.676   1.707 -0.2049 -1.0132 -0.1060
18289TIP3    H276283   1.857   3.662   1.762 -0.2358  0.3476  0.2052
18290TIP3   OH276284   1.564   4.170  15.623  0.1974  0.4162  0.4020
18290TIP3    H176285   1.569   4.237  15.555 -0.8102 -0.6771 -0.8003
18290TIP3    H276286   1.651   4.130  15.624  0.3343  0.7042  0.0277
18291TIP3   OH276287   2.229   0.155  13.086  0.0810 -0.1916  0.5391
18291TIP3    H176288   2.172   0.095  13.036 -1.4563 -0.9159  2.9623
18291TIP3    H276289   2.227   0.236  13.036  1.0721 -1.6671 -2.1226
18292TIP3   OH276290   6.149   5.989   2.996 -0.0306  0.3889  0.4365
18292TIP3    H176291   6.058   5.959   3.001 -0.0152  0.1288 -0.6238
18292TIP3    H276292   6.175   6.003   3.087 -0.6668 -0.9110  0.8314
18293TIP3   OH276293   2.113   1.104   5.656 -0.4743  0.4478  0.2863
18293TIP3    H176294   2.186   1.044   5.670 -2.2308 -2.3075 -1.3926
18293TIP3    H276295   2.047   1.078   5.719 -1.3255  0.4740 -0.5636
18294TIP3   OH276296   5.370   4.538   0.601 -0.4815 -0.7168 -0.1126
18294TIP3    H176297   5.457   4.501   0.616 -1.5113 -3.2937  0.1025
18294TIP3    H276298   5.373   4.572   0.512  1.1323  0.6040  0.3943
18295TIP3   OH276299   4.963   5.318  15.478  0.2745  0.0215  0.0119
18295TIP3    H176300   4.886   5.353  15.522  0.1840 -0.8051  0.5493
18295TIP3    H276301   5.020   5.290  15.550  1.0235  0.5186 -0.3819
18296TIP3   OH276302   0.390   6.059   4.424 -0.0668  0.8226  0.3766
18296TIP3    H176303   0.392   5.999   4.499 -1.7155 -0.3359 -0.4506
18296TIP3    H276304   0.447   6.018   4.359  1.1759  1.7091  0.8653
18297TIP3   OH276305   2.968   1.486   3.719 -0.1009 -0.3934 -0.4820
18297TIP3    H176306   2.984   1.544   3.645  0.8849 -0.2080 -0.1368
18297TIP3    H276307   2.905   1.533   3.774 -1.3461 -0.8149 -1.5066
18298TIP3   OH276308   3.728   3.823  13.503 -0.0555 -0.1702  0.8018
18298TIP3    H176309   3.734   3.915  13.478  1.5423 -0.5027 -0.1869
18298TIP3    H276310   3.646   3.817  13.552 -1.1717  1.4088 -0.7370
18299TIP3   OH276311   1.262   5.136  14.996  0.0424  0.1722  0.5817
18299TIP3    H176312   1.344   5.179  15.020 -0.5107  1.1749  0.7583
18299TIP3    H276313   1.228   5.100  15.078  1.2910 -2.0832  0.1795
18300TIP3   OH276314   3.146   0.933   0.203  0.2674 -0.3805  0.2543
18300TIP3    H176315   3.118   0.849   0.239  2.0244 -1.0244  0.1907
18300TIP3    H276316   3.194   0.975   0.274 -0.4990  0.5437  0.2474
18301TIP3   OH276317   4.142   2.495  11.455  0.4214  0.2247 -0.3840
18301TIP3    H176318   4.175   2.422  11.403 -3.3337 -1.5902 -0.5281
18301TIP3    H276319   4.139   2.462  11.544  0.2632  0.8018 -0.1702
18302TIP3   OH276320   3.309   5.728  12.931 -0.2000  0.1818  0.2011
18302TIP3    H176321   3.328   5.636  12.946  1.9445  0.4669 -0.4655
18302TIP3    H276322   3.323   5.741  12.837 -1.2941  1.0340  0.1281
18303TIP3   OH276323   2.583   0.578   3.293 -0.7205 -0.3249 -0.2118
18303TIP3    H176324   2.640   0.533   3.354  2.2969  3.0324 -0.2240
18303TIP3    H276325   2.599   0.536   3.209  0.2784 -0.7176  0.1604
18304TIP3   OH276326   4.669   1.394  15.077 -0.0673  0.4193  0.8350
18304TIP3    H176327   4.617   1.435  15.009  0.8509 -0.0456 -0.1736
18304TIP3    H276328   4.655   1.300  15.065  1.9893  0.1975 -0.3281
18305TIP3   OH276329   3.809   2.813   0.018 -0.0705 -0.3269  0.2550
18305TIP3    H176330   3.789   2.843  -0.070 -0.9325  0.0921  0.5865
18305TIP3    H276331   3.905   2.813   0.022  0.0542  3.6761  0.6743
18306TIP3   OH276332   4.299   3.254  11.192 -0.0920  0.1229 -0.3819
18306TIP3    H176333   4.210   3.263  11.225 -0.7824  1.3805 -2.3703
18306TIP3    H276334   4.335   3.178  11.238 -2.2746 -0.5768  0.2643
18307TIP3   OH276335   4.955   1.072   2.523  0.4991 -0.1563  0.1713
18307TIP3    H176336   4.865   1.085   2.553  1.1803  0.4321  2.1345
18307TIP3    H276337   5.008   1.116   2.589  2.2417 -0.5051 -0.9396
18308TIP3   OH276338   5.245   2.623  14.100  0.6186 -0.2709  0.8922
18308TIP3    H176339   5.305   2.610  14.174  0.8312  0.9071  0.9528
18308TIP3    H276340   5.163   2.652  14.140  0.9683  1.1232  0.6481
18309TIP3   OH276341   3.696   6.725  15.277 -0.6187 -0.1061 -0.7516
18309TIP3    H176342   3.606   6.707  15.251 -0.7722  1.2479 -1.2045
18309TIP3    H276343   3.745   6.646  15.250 -1.3995 -0.2265 -1.8768
18310TIP3   OH276344   6.378   5.419  16.745 -0.0214  0.4141  0.7026
18310TIP3    H176345   6.428   5.404  16.665  0.7658  1.3177  0.9985
18310TIP3    H276346   6.392   5.341  16.798 -0.4240 -0.1241  0.0224
18311TIP3   OH276347   6.024   5.843   1.398 -0.1520 -0.1721  0.0928
18311TIP3    H176348   6.075   5.769   1.366 -0.8027 -0.7559  0.3977
18311TIP3    H276349   6.042   5.847   1.492 -0.2198 -0.0207  0.1005
18312TIP3   OH276350   5.997   5.424  13.191  0.3932 -0.0433  0.6625
18312TIP3    H176351   6.042   5.501  13.225 -0.5988  1.3461 -0.9939
18312TIP3    H276352   5.909   5.455  13.170 -0.7872 -2.2044  2.0437
18313TIP3   OH276353   2.939   1.484   1.501 -0.6353  0.1300 -0.8429
18313TIP3    H176354   2.959   1.420   1.569 -1.2040 -0.3031 -1.0694
18313TIP3    H276355   2.971   1.444   1.420 -1.6305 -0.2172 -1.0924
18314TIP3   OH276356   4.767   6.586  14.272  0.4150 -0.4549  0.1570
18314TIP3    H176357   4.681   6.545  14.268  0.4284 -0.5101  0.4345
18314TIP3    H276358   4.822   6.532  14.215  0.1715 -0.1891 -0.3291
18315TIP3   OH276359   4.372   2.872  15.427  0.2123  0.2432  0.1474
18315TIP3    H176360   4.372   2.847  15.520  0.0759 -0.4319 -0.0330
18315TIP3    H276361   4.461   2.856  15.397  0.0513 -0.3057 -0.0419
18316TIP3   OH276362   3.084   3.330   4.913 -0.1077 -0.5498  0.0819
18316TIP3    H176363   3.001   3.292   4.945 -0.9193  0.1709 -1.0952
18316TIP3    H276364   3.075   3.329   4.818  0.6533  0.8131 -0.0276
18317TIP3   OH276365   2.747   0.889  13.894  0.0744  0.4250  0.2484
18317TIP3    H176366   2.827   0.939  13.877  0.2288  0.6727  1.6197
18317TIP3    H276367   2.777   0.799  13.905 -0.2282 -0.0971 -2.4541
18318TIP3   OH276368   4.993   1.025  13.927 -0.1355  0.0128  0.5183
18318TIP3    H176369   5.018   0.933  13.928 -0.1284  0.0164  0.7036
18318TIP3    H276370   5.076   1.073  13.924 -0.1494  0.0072 -0.0415
18319TIP3   OH276371   6.397   2.599  16.129  0.1222 -0.5895  0.0355
18319TIP3    H176372   6.452   2.648  16.067 -1.1671 -0.9891 -1.4742
18319TIP3    H276373   6.388   2.657  16.204  0.5773  0.5056 -0.7320
18320TIP3   OH276374   6.160   6.436  13.513  0.0371 -0.7685 -0.1801
18320TIP3    H176375   6.199   6.411  13.430  1.5059  0.0426  0.2433
18320TIP3    H276376   6.138   6.353  13.556 -0.3641 -1.1931 -1.1872
18321TIP3   OH276377   5.379   1.129  12.254  0.6450 -0.0829  0.0094
18321TIP3    H176378   5.464   1.138  12.299 -0.3528 -0.0227  1.9933
18321TIP3    H276379   5.376   1.038  12.226  1.8060  0.1840 -1.0552
18322TIP3   OH276380   1.656   0.159   0.973 -0.1451 -0.1041  0.1919
18322TIP3    H176381   1.609   0.180   1.054 -0.3243 -0.3227  0.1449
18322TIP3    H276382   1.748   0.164   0.997 -0.1911 -1.5657  0.7792
18323TIP3   OH276383   3.190   0.125   3.016  0.4225 -0.1373  0.0851
18323TIP3    H176384   3.168   0.217   3.031 -1.3853 -0.3273 -1.1377
18323TIP3    H276385   3.106   0.084   2.995  1.3087 -1.9383 -0.0648
18324TIP3   OH276386   1.061   2.112  13.364 -0.0084 -0.2150  0.7684
18324TIP3    H176387   1.007   2.180  13.324 -0.5141 -1.0084  0.0571
18324TIP3    H276388   1.144   2.116  13.315 -0.5728 -1.0826 -0.2924
18325TIP3   OH276389   2.763   0.211  16.895 -0.0579  0.3734  0.5571
18325TIP3    H176390   2.794   0.256  16.973 -0.7387  1.9470 -0.0268
18325TIP3    H276391   2.825   0.235  16.827  0.0601 -0.2985  0.4209
18326TIP3   OH276392   1.303   5.637   0.198  0.4921 -0.1371  0.0288
18326TIP3    H176393   1.335   5.578   0.267  0.5777 -0.3018 -0.1513
18326TIP3    H276394   1.215   5.604   0.178  0.2654  0.2270  0.4219
18327TIP3   OH276395   1.664   0.344  13.488  0.3663 -0.0782 -0.2638
18327TIP3    H176396   1.757   0.324  13.476  0.0768 -0.6737 -1.7565
18327TIP3    H276397   1.632   0.361  13.399 -0.6302  1.6293  0.3715
18328TIP3   OH276398   0.537   2.859  16.873  0.7808 -0.0863  0.2484
18328TIP3    H176399   0.540   2.902  16.959 -1.1272 -0.7772  0.7056
18328TIP3    H276400   0.556   2.767  16.892 -4.6220 -1.4172  0.9411
18329TIP3   OH276401   4.224   0.314  17.244  0.7402 -0.0910 -0.1603
18329TIP3    H176402   4.133   0.341  17.259  0.0407 -2.8537  1.1669
18329TIP3    H276403   4.276   0.388  17.276 -0.9995  1.3070 -0.3827
18330TIP3   OH276404   0.849   6.343  16.712 -0.0311 -0.6955  0.0531
18330TIP3    H176405   0.833   6.403  16.785  1.1881 -1.4368  0.9560
18330TIP3    H276406   0.866   6.401  16.637 -2.4176  0.0942  0.0333
18331TIP3   OH276407   0.559   0.283   2.791 -0.1638  0.8092  0.1057
18331TIP3    H176408   0.654   0.281   2.803 -0.2090  0.1622  0.3621
18331TIP3    H276409   0.536   0.375   2.808  0.7405  1.6662 -2.6894
18332TIP3   OH276410   5.633   2.713   5.399 -0.3452 -0.0440 -0.1275
18332TIP3    H176411   5.538   2.705   5.401 -0.2967 -0.4210  0.7480
18332TIP3    H276412   5.652   2.784   5.461 -0.1197  0.7435 -1.0700
18333TIP3   OH276413   1.511   2.213  14.267 -0.5445  0.0614  0.9171
18333TIP3    H176414   1.499   2.295  14.315 -0.0975 -1.3596  3.6101
18333TIP3    H276415   1.505   2.144  14.333 -2.7545 -2.3017 -1.4657
18334TIP3   OH276416   1.488   5.993  11.406  0.7830 -0.5495  0.0813
18334TIP3    H176417   1.458   5.903  11.397 -0.3886 -0.2282  0.6164
18334TIP3    H276418   1.570   5.996  11.356  0.7462 -1.8540 -0.0896
18335TIP3   OH276419   6.125   0.892  15.464  0.5258  0.6415  0.2068
18335TIP3    H176420   6.131   0.936  15.549  0.7957  0.0905  0.4807
18335TIP3    H276421   6.032   0.873  15.453  0.5945 -0.1308  0.8275
18336TIP3   OH276422   1.582   1.566   3.296 -0.0179  0.2831  0.3010
18336TIP3    H176423   1.600   1.605   3.211 -1.6287 -1.1995 -0.7839
18336TIP3    H276424   1.525   1.628   3.340 -1.4183 -0.1503 -0.8367
18337TIP3   OH276425   4.499   1.288   4.378 -0.3286  0.2279  0.1770
18337TIP3    H176426   4.539   1.293   4.291  0.4236  0.1200  0.5175
18337TIP3    H276427   4.511   1.375   4.415  1.2490 -0.3244  1.0053
18338TIP3   OH276428   2.997   4.277   6.389  0.4773  0.3215 -0.6703
18338TIP3    H176429   3.037   4.347   6.338  1.1197  0.3730 -0.1062
18338TIP3    H276430   2.958   4.322   6.464  0.5361  0.1138 -0.5157
18339TIP3   OH276431   5.855   3.629  10.722  0.1081  1.0011  0.7425
18339TIP3    H176432   5.945   3.625  10.754  0.0666 -1.8967  0.8033
18339TIP3    H276433   5.862   3.607  10.629 -0.4042  2.6464  0.2831
18340TIP3   OH276434   0.867   4.219   6.167 -0.4950  0.1386 -0.6760
18340TIP3    H176435   0.872   4.222   6.071 -0.7606  0.8269 -0.6734
18340TIP3    H276436   0.934   4.281   6.196  0.9843 -1.5090 -0.3562
18341TIP3   OH276437   4.683   5.986  12.191 -0.0170 -0.5865  0.8316
18341TIP3    H176438   4.745   5.937  12.245 -0.3016 -1.2049  0.6040
18341TIP3    H276439   4.607   5.929  12.183 -0.1617 -0.3100  0.1626
18342TIP3   OH276440   4.810   5.416   3.438 -0.1094  0.0236  0.1315
18342TIP3    H176441   4.801   5.405   3.532  0.0720 -3.0015 -0.1076
18342TIP3    H276442   4.891   5.369   3.416 -0.9178 -0.6387 -1.6621
18343TIP3   OH276443   4.073   4.322   4.598  0.1377  0.1030 -0.6082
18343TIP3    H176444   4.047   4.397   4.545  0.3698  1.4964  1.1457
18343TIP3    H276445   4.161   4.342   4.628  0.8567 -1.6581 -1.3963
18344TIP3   OH276446   6.729   1.164  12.646 -0.0942  0.0794  0.0310
18344TIP3    H176447   6.687   1.247  12.669  0.3733  0.7642 -1.4772
18344TIP3    H276448   6.822   1.183  12.648  0.0472 -0.5963  0.2921
18345TIP3   OH276449   3.504   1.977  16.218  0.0247 -0.0273  0.1970
18345TIP3    H176450   3.511   1.900  16.274  0.4497  1.5191  2.4331
18345TIP3    H276451   3.426   2.023  16.250  0.0410  0.7106 -0.7696
18346TIP3   OH276452   0.003   0.409  11.643 -0.0382  0.4964 -0.1926
18346TIP3    H176453  -0.056   0.365  11.582 -3.4785  0.7046  2.6338
18346TIP3    H276454   0.048   0.338  11.688 -0.6598  0.1373 -0.1216
18347TIP3   OH276455   0.699   0.368   1.590 -0.2998 -0.1218 -0.5042
18347TIP3    H176456   0.662   0.317   1.662 -1.1868  0.2876 -0.6694
18347TIP3    H276457   0.679   0.459   1.611  0.5808  0.1076 -0.6175
18348TIP3   OH276458   2.495   4.850  15.746  0.5108 -0.0118 -0.1899
18348TIP3    H176459   2.488   4.929  15.693 -1.5911  0.5201  0.7868
18348TIP3    H276460   2.411   4.806  15.734 -0.1168  0.2007  2.7673
18349TIP3   OH276461   2.462   6.125  14.385  0.1000  0.5899 -0.5218
18349TIP3    H176462   2.381   6.100  14.429  0.2157  1.3477  0.1437
18349TIP3    H276463   2.471   6.219  14.402  0.5555  0.7416 -1.5113
18350TIP3   OH276464   4.621   4.396   4.633  0.0150 -0.1265 -0.0871
18350TIP3    H176465   4.614   4.301   4.628  0.0032 -0.0969 -0.7595
18350TIP3    H276466   4.575   4.427   4.555  1.4720  0.3603 -0.7811
18351TIP3   OH276467   5.850   6.688  15.678 -0.0569  0.2923 -0.5486
18351TIP3    H176468   5.818   6.757  15.620 -0.8344  0.4201  0.0211
18351TIP3    H276469   5.853   6.729  15.765  0.0649 -0.2101 -0.3132
18352TIP3   OH276470   6.736   2.583   0.769 -0.1268  0.1492  0.1088
18352TIP3    H176471   6.732   2.580   0.673  1.5268 -0.8905  0.0123
18352TIP3    H276472   6.758   2.674   0.789  0.0724  0.2565 -0.5523
18353TIP3   OH276473   0.747   2.098  14.669 -0.4334  0.5871 -0.0820
18353TIP3    H176474   0.667   2.141  14.639 -0.3712  2.5650  2.2208
18353TIP3    H276475   0.716   2.018  14.713 -1.0705  0.8465 -0.0431
18354TIP3   OH276476   0.750   0.552   2.740  0.0384 -0.3993  0.6228
18354TIP3    H176477   0.655   0.549   2.753 -0.0823 -0.9280 -0.3007
18354TIP3    H276478   0.762   0.616   2.670  0.2951 -0.9194  0.1876
18355TIP3   OH276479   3.087   5.246   3.680 -0.1727  0.0231  0.8637
18355TIP3    H176480   3.172   5.287   3.694 -0.6523  1.4046 -0.0463
18355TIP3    H276481   3.024   5.319   3.679 -1.3190 -0.9279  1.1552
18356TIP3   OH276482   3.583   5.247  15.931  0.2516  0.4443  0.1551
18356TIP3    H176483   3.674   5.244  15.962  0.0401  1.1455  0.8602
18356TIP3    H276484   3.536   5.186  15.988  0.3199 -0.1130 -0.3740
18357TIP3   OH276485   3.733   0.598   0.414  0.0851 -0.0368 -0.0615
18357TIP3    H176486   3.824   0.625   0.427  0.3428 -0.4127 -1.0412
18357TIP3    H276487   3.718   0.532   0.482  0.4020  0.3449  0.3880
18358TIP3   OH276488   0.251   4.583  12.956 -0.4479 -0.3128 -0.0746
18358TIP3    H176489   0.187   4.589  13.027 -1.8186 -2.5302 -1.0069
18358TIP3    H276490   0.274   4.674  12.937 -1.9405  0.4691  1.5103
18359TIP3   OH276491   4.997   0.802   2.564  0.6364 -0.7238  0.1459
18359TIP3    H176492   5.091   0.786   2.557  0.6984 -0.3283  0.0674
18359TIP3    H276493   4.988   0.897   2.562  0.3420 -0.7001  1.5306
18360TIP3   OH276494   2.981   6.540  12.639  0.4387 -0.6433  0.0822
18360TIP3    H176495   2.982   6.543  12.735  3.0897 -1.6537  0.1656
18360TIP3    H276496   2.918   6.471  12.618 -1.5772  0.8327  0.9585
18361TIP3   OH276497   6.075   2.301   3.290 -0.1866 -0.1918  0.1304
18361TIP3    H176498   6.065   2.383   3.242 -0.2959 -0.5451 -0.4561
18361TIP3    H276499   6.015   2.309   3.364  0.9565  0.9179  0.9900
18362TIP3   OH276500   4.498   4.623   5.760 -0.3783  0.2796 -0.1597
18362TIP3    H176501   4.562   4.618   5.830  0.6398  3.3787 -0.6957
18362TIP3    H276502   4.422   4.667   5.800 -0.9692 -0.5916 -0.2988
18363TIP3   OH276503   2.590   5.604   2.417  0.4139  0.5593  0.6287
18363TIP3    H176504   2.545   5.533   2.372  1.2376  0.4686 -0.0714
18363TIP3    H276505   2.618   5.567   2.501  0.8021  0.0675  0.2852
18364TIP3   OH276506   6.703   2.844  12.701 -0.1730  0.1226  0.0887
18364TIP3    H176507   6.620   2.817  12.662 -0.6064  1.0368  0.3567
18364TIP3    H276508   6.715   2.785  12.776 -2.0704  1.7987  1.8440
18365TIP3   OH276509   4.417   1.241  15.653 -0.3241  0.3043 -0.1922
18365TIP3    H176510   4.422   1.225  15.558  3.1404 -1.7965  0.1670
18365TIP3    H276511   4.474   1.317  15.667 -0.8429  0.6220  0.2256
18366TIP3   OH276512   5.677   5.066  13.801  0.3341 -0.4814  0.4571
18366TIP3    H176513   5.698   5.065  13.894  2.2562 -1.5011  0.0697
18366TIP3    H276514   5.756   5.034  13.758 -1.0390 -1.6189 -1.4183
18367TIP3   OH276515   6.448   1.692  12.156 -0.1234 -0.0505 -0.0014
18367TIP3    H176516   6.497   1.667  12.077  1.9790 -1.4858  1.6327
18367TIP3    H276517   6.515   1.702  12.224 -1.8509  1.1086  1.6536
18368TIP3   OH276518   5.601   2.157   0.813  0.3669  0.1837  1.0959
18368TIP3    H176519   5.627   2.204   0.734 -2.3558  0.5923  0.3312
18368TIP3    H276520   5.550   2.221   0.863 -0.1686 -0.8404  1.8971
18369TIP3   OH276521   4.493   4.261  13.110 -0.1475 -0.1414 -0.1158
18369TIP3    H176522   4.483   4.199  13.182  0.1386  1.1338  1.0750
18369TIP3    H276523   4.406   4.265  13.071 -0.9031  0.7075  1.5293
18370TIP3   OH276524   6.026   3.079  11.970 -0.1061 -0.4824 -0.1118
18370TIP3    H176525   6.014   3.138  12.045 -1.1307 -2.1498  1.1148
18370TIP3    H276526   5.968   3.005  11.989  0.5901 -1.5518 -1.9437
18371TIP3   OH276527   5.454   1.213   2.248 -0.3093  0.0550  0.3138
18371TIP3    H176528   5.398   1.289   2.260 -0.3065  0.1247 -0.1104
18371TIP3    H276529   5.444   1.189   2.156  0.1285 -0.1078  0.3028
18372TIP3   OH276530   1.506   4.641   5.934 -0.1981  0.2350 -0.0108
18372TIP3    H176531   1.596   4.667   5.954  0.7765 -1.8537 -1.3624
18372TIP3    H276532   1.501   4.644   5.838 -1.3061 -0.4388  0.0088
18373TIP3   OH276533   4.119   0.132   4.387 -0.3987  0.0417  0.0956
18373TIP3    H176534   4.097   0.043   4.361  1.0192 -0.4896  0.5853
18373TIP3    H276535   4.120   0.129   4.483 -1.0324  0.7751  0.1303
18374TIP3   OH276536   1.986   2.538  11.686 -0.5479  0.1780  0.4417
18374TIP3    H176537   1.983   2.492  11.602 -1.4219 -0.4848  0.8215
18374TIP3    H276538   2.079   2.555  11.701 -0.4520  1.3295 -1.1997
18375TIP3   OH276539   2.663   1.757   3.187 -0.5768 -0.2016  0.1211
18375TIP3    H176540   2.568   1.769   3.193 -0.6985 -1.5160  1.1690
18375TIP3    H276541   2.698   1.846   3.195 -1.7271  0.4090 -1.1319
18376TIP3   OH276542   0.385   4.245  15.473  0.1428  0.3201 -0.1218
18376TIP3    H176543   0.319   4.197  15.521 -0.7760 -0.9825 -2.5526
18376TIP3    H276544   0.340   4.323  15.440 -0.4600 -0.8823 -2.3161
18377TIP3   OH276545   2.767   6.185   5.978 -0.0816  0.6668  0.0043
18377TIP3    H176546   2.807   6.253   6.031 -1.1846  0.5177  1.0675
18377TIP3    H276547   2.817   6.106   5.999 -0.2105  0.7059  0.4561
18378TIP3   OH276548   0.205   1.554  13.947  0.0720 -0.6398  0.1147
18378TIP3    H176549   0.123   1.514  13.919 -0.4239  0.7417 -0.5025
18378TIP3    H276550   0.201   1.552  14.043 -1.1643  0.2930  0.1089
18379TIP3   OH276551   2.039   2.185  11.657  0.4627  0.1505  0.0893
18379TIP3    H176552   2.052   2.251  11.726  3.2660 -0.7394  0.5673
18379TIP3    H276553   2.033   2.235  11.576  0.8987  1.0923  0.6173
18380TIP3   OH276554   5.204   0.509   4.312 -0.2121  0.2669  0.5314
18380TIP3    H176555   5.162   0.425   4.333 -1.6071  0.8034 -0.0044
18380TIP3    H276556   5.297   0.490   4.315 -0.4821 -1.9333 -1.8967
18381TIP3   OH276557   0.390   5.119  16.137  0.4058  0.4381 -0.2013
18381TIP3    H176558   0.326   5.048  16.132  0.6992  0.1476  0.1259
18381TIP3    H276559   0.366   5.168  16.215 -0.8423  1.7294 -1.3547
18382TIP3   OH276560   3.253   0.621  17.082 -0.3988 -0.1300  0.3507
18382TIP3    H176561   3.292   0.603  16.997  0.6157 -0.0099  0.7798
18382TIP3    H276562   3.159   0.626  17.065 -0.1393  0.9251 -0.9475
18383TIP3   OH276563   1.962   3.675   0.056  0.1324  0.9518 -0.1697
18383TIP3    H176564   1.873   3.698   0.084  0.3765  0.4705  1.1025
18383TIP3    H276565   1.967   3.581   0.068  1.1583  1.1129  0.8862
18384TIP3   OH276566   0.169   5.665   4.986 -0.2778  0.0316  0.1330
18384TIP3    H176567   0.172   5.698   5.076  0.7427  0.3268  0.0057
18384TIP3    H276568   0.189   5.741   4.932 -5.6514  1.1702 -0.7834
18385TIP3   OH276569   5.722   6.229  13.055  0.0711  0.3492 -0.0962
18385TIP3    H176570   5.779   6.302  13.032 -1.8169  1.6170 -1.0166
18385TIP3    H276571   5.742   6.211  13.147  0.7526  1.8567  0.0905
18386TIP3   OH276572   4.062   1.903   5.788 -0.0230 -0.3445  0.2261
18386TIP3    H176573   4.127   1.859   5.732 -0.1418 -0.3941  0.1250
18386TIP3    H276574   3.988   1.919   5.729 -0.0228 -0.1097  0.2926
18387TIP3   OH276575   0.989   0.762   2.567  0.1650  0.1074  0.4984
18387TIP3    H176576   1.009   0.669   2.571  0.8191  0.2755  1.6279
18387TIP3    H276577   1.074   0.805   2.557 -0.1175  0.6009  0.1396
18388TIP3   OH276578   6.334   3.384  12.499  0.5085  0.1119  0.1867
18388TIP3    H176579   6.373   3.403  12.584 -0.0225  1.4498  0.1514
18388TIP3    H276580   6.337   3.468  12.452  2.0068 -0.8710 -1.6173
18389TIP3   OH276581   1.258   4.620   0.547 -0.1666 -0.0080  0.2247
18389TIP3    H176582   1.228   4.646   0.460 -0.2421  0.9364  0.5245
18389TIP3    H276583   1.232   4.692   0.604  0.7702 -0.1504  0.8587
18390TIP3   OH276584   1.207   0.122   2.120 -0.3738  0.0415 -0.0109
18390TIP3    H176585   1.293   0.100   2.155 -0.8417  0.6667  1.5951
18390TIP3    H276586   1.156   0.148   2.196 -2.3284 -1.3582 -0.7705
18391TIP3   OH276587   2.185   0.716  16.128 -0.1826  0.0880 -0.5975
18391TIP3    H176588   2.185   0.686  16.037  2.4274 -2.7280  0.2003
18391TIP3    H276589   2.163   0.639  16.179  0.4469  1.1012  1.3037
18392TIP3   OH276590   5.867   0.159   1.047 -0.0245  0.5092  0.0321
18392TIP3    H176591   5.833   0.093   1.108  1.0109  0.2252  0.3339
18392TIP3    H276592   5.858   0.242   1.094  1.1605  0.2421  0.7805
18393TIP3   OH276593   1.783   4.053  15.507  0.2794  0.0850  0.1107
18393TIP3    H176594   1.878   4.045  15.509  0.3982  0.8029 -1.2939
18393TIP3    H276595   1.751   3.964  15.497  0.7550 -0.2456  1.4513
18394TIP3   OH276596   2.605   0.565  10.929  0.0878  0.4359  0.1362
18394TIP3    H176597   2.562   0.525  10.853  0.3522 -0.1801  0.3093
18394TIP3    H276598   2.597   0.659  10.913  0.5577  0.3160 -0.8915
18395TIP3   OH276599   5.612   4.623   4.285  0.0408  0.1855  0.0911
18395TIP3    H176600   5.556   4.700   4.280 -0.8976 -0.4667  0.4167
18395TIP3    H276601   5.635   4.616   4.378  0.7111  0.4746 -0.0462
18396TIP3   OH276602   2.496   3.457  15.152 -0.2143 -0.4290 -0.4397
18396TIP3    H176603   2.419   3.403  15.131 -1.4158  0.8119  0.5757
18396TIP3    H276604   2.471   3.545  15.125  0.0321  0.3586  1.7224
18397TIP3   OH276605   1.697   4.512   3.951 -0.0831 -0.7909 -0.6619
18397TIP3    H176606   1.624   4.514   3.889  0.3462 -2.8148 -1.2962
18397TIP3    H276607   1.748   4.591   3.931 -0.1407 -1.2053 -2.6618
18398TIP3   OH276608   1.590   1.158   2.148 -0.6865  0.0442 -0.0661
18398TIP3    H176609   1.681   1.132   2.165 -0.9536 -0.3293  0.8162
18398TIP3    H276610   1.567   1.215   2.222 -0.3555  2.2616 -1.5711
18399TIP3   OH276611   4.034   6.036  10.993 -0.6284  0.0821 -0.0952
18399TIP3    H176612   4.010   5.951  10.954 -1.0482 -0.0307  0.4050
18399TIP3    H276613   4.117   6.059  10.950 -0.8650 -0.2437 -0.7475
18400TIP3   OH276614   3.635   5.798  14.752  0.4119 -0.2712 -0.2823
18400TIP3    H176615   3.566   5.796  14.819  0.3480 -1.4557 -0.3576
18400TIP3    H276616   3.711   5.835  14.797 -0.0795  0.4262 -0.0135
18401TIP3   OH276617   4.478   0.268   2.501 -0.0431 -0.6188  0.7837
18401TIP3    H176618   4.446   0.187   2.542 -1.5940 -0.6450 -0.3813
18401TIP3    H276619   4.452   0.260   2.410 -0.0422  1.1263  0.6083
18402TIP3   OH276620   2.442   6.090  15.892 -0.2304 -0.1019 -0.1342
18402TIP3    H176621   2.490   6.047  15.821 -0.6443  0.2770 -0.6432
18402TIP3    H276622   2.352   6.094  15.862 -0.4398 -0.0924  0.4868
18403TIP3   OH276623   3.964   5.869  16.094 -0.4203 -0.6607 -0.2230
18403TIP3    H176624   3.942   5.863  16.187 -2.1098 -0.6909 -0.5872
18403TIP3    H276625   3.914   5.797  16.053  1.6915 -1.7999 -0.9421
18404TIP3   OH276626   4.794   0.319   4.822 -0.6601 -0.6904  0.0755
18404TIP3    H176627   4.738   0.309   4.900  0.5248 -2.4789  0.7765
18404TIP3    H276628   4.883   0.309   4.856  0.1593  2.1903 -0.9997
18405TIP3   OH276629   4.190   2.042   5.460  0.2649 -0.4744  0.2333
18405TIP3    H176630   4.270   1.994   5.480  0.8692  1.0258  1.5801
18405TIP3    H276631   4.218   2.132   5.447 -1.2117  0.1135  0.8742
18406TIP3   OH276632   5.894   4.514   1.129 -0.3600  0.6959  0.1348
18406TIP3    H176633   5.943   4.432   1.116  0.0788  1.1489 -1.2451
18406TIP3    H276634   5.812   4.501   1.081 -1.6112 -0.0062  2.3246
18407TIP3   OH276635   3.808   6.602  11.413 -0.0251 -0.1270  0.1096
18407TIP3    H176636   3.895   6.629  11.445  0.3137 -0.9911 -0.0635
18407TIP3    H276637   3.752   6.677  11.432  1.2178  1.3780 -1.8007
18408TIP3   OH276638   6.041   5.944  13.793 -0.0554  0.8011  0.2953
18408TIP3    H176639   5.962   5.968  13.841 -1.1793  2.3782 -2.0934
18408TIP3    H276640   6.054   6.016  13.731  2.0276 -0.4439 -0.8601
18409TIP3   OH276641   5.755   4.260  11.325 -0.1128  0.3749  0.0246
18409TIP3    H176642   5.660   4.255  11.337 -0.2836 -0.2391 -1.3887
18409TIP3    H276643   5.769   4.238  11.233  1.2660  2.1500 -0.2531
18410TIP3   OH276644   4.598   4.862  10.891 -0.2342  0.2435 -0.3035
18410TIP3    H176645   4.612   4.933  10.829 -1.8723 -1.1964 -2.5062
18410TIP3    H276646   4.638   4.785  10.850 -1.7333 -0.8528  0.1764
18411TIP3   OH276647   1.297   4.121  13.001  0.5391 -0.1594  0.5941
18411TIP3    H176648   1.390   4.142  13.003  0.6447 -0.6430  1.0029
18411TIP3    H276649   1.266   4.156  12.917  0.5136  2.3156  1.5449
18412TIP3   OH276650   3.162   5.472  16.477  0.5961 -0.3236  0.9556
18412TIP3    H176651   3.084   5.471  16.532  0.3955  0.2563  0.6935
18412TIP3    H276652   3.154   5.394  16.423 -1.0549  0.9388 -0.7639
18413TIP3   OH276653   2.730   0.115  14.360 -0.4129 -0.0929 -0.7260
18413TIP3    H176654   2.781   0.163  14.295  2.4775 -0.7554  0.8467
18413TIP3    H276655   2.726   0.026  14.325 -0.2311 -0.0931 -0.7506
18414TIP3   OH276656   4.528   2.044  14.871 -0.3639 -0.2227 -0.3084
18414TIP3    H176657   4.444   2.012  14.902  0.2281 -0.8097  0.7398
18414TIP3    H276658   4.531   2.136  14.899 -2.1587  0.9818 -3.5134
18415TIP3   OH276659   6.496   1.461   5.369 -0.4431  0.0771  0.1908
18415TIP3    H176660   6.449   1.544   5.368 -1.6666 -0.5737 -1.4917
18415TIP3    H276661   6.588   1.484   5.357 -1.0236  1.1149 -3.0295
18416TIP3   OH276662   3.135   6.429   5.169 -0.2223  0.4152  0.1553
18416TIP3    H176663   3.048   6.424   5.207 -0.7461 -0.1962 -1.0599
18416TIP3    H276664   3.183   6.356   5.208 -1.0039 -0.7156 -0.9067
18417TIP3   OH276665   3.965   3.615   2.152 -0.5111  0.0222 -0.0982
18417TIP3    H176666   3.944   3.690   2.208  0.6287  0.0824  0.2776
18417TIP3    H276667   4.056   3.630   2.125 -0.4498 -0.9468 -0.4681
18418TIP3   OH276668   3.554   0.081   5.824 -0.3945 -0.8804 -0.2800
18418TIP3    H176669   3.495   0.078   5.900  0.7954 -0.1764  0.6983
18418TIP3    H276670   3.495   0.072   5.749 -1.8740  0.5865  0.6133
18419TIP3   OH276671   6.133   6.485   2.364  0.4649 -0.2296  0.5095
18419TIP3    H176672   6.081   6.414   2.402 -0.7085 -0.2296 -0.9816
18419TIP3    H276673   6.141   6.549   2.434 -0.1274 -0.9883  1.2910
18420TIP3   OH276674   3.351   3.142   4.676 -0.5511  0.1480  0.0526
18420TIP3    H176675   3.343   3.183   4.762  1.1403 -0.2298  0.4228
18420TIP3    H276676   3.385   3.211   4.619  1.0711 -0.3392  0.3808
18421TIP3   OH276677   4.593   3.139  13.781  0.2897 -0.4213  0.3010
18421TIP3    H176678   4.608   3.231  13.760 -0.7121  0.9534  4.5921
18421TIP3    H276679   4.679   3.104  13.803  0.9298 -1.1453 -2.8421
18422TIP3   OH276680   5.819   1.172   5.674  0.0485 -0.8993  0.0559
18422TIP3    H176681   5.762   1.212   5.740  0.0272  0.1762 -0.5971
18422TIP3    H276682   5.904   1.166   5.718  0.9520  2.9581 -0.8143
18423TIP3   OH276683   2.631   0.112  12.828  0.0063 -0.0410 -0.1114
18423TIP3    H176684   2.665   0.062  12.754 -1.6091 -0.0671 -0.9022
18423TIP3    H276685   2.588   0.047  12.884  0.1159  0.1387  0.1854
18424TIP3   OH276686   3.468   5.761   3.694  0.0514 -0.0538  0.3843
18424TIP3    H176687   3.560   5.772   3.672 -0.0980 -1.4078 -1.0610
18424TIP3    H276688   3.422   5.818   3.632 -0.1312  0.0158  0.5831
18425TIP3   OH276689   3.481   0.924  15.817 -0.0618  0.2961 -0.4930
18425TIP3    H176690   3.550   0.989  15.808  0.1860 -0.2617 -3.4121
18425TIP3    H276691   3.400   0.971  15.796 -0.3575  0.4234  0.8003
18426TIP3   OH276692   0.944   1.102  14.205 -0.0177 -0.3578  0.4290
18426TIP3    H176693   1.020   1.160  14.207 -1.0951  1.1987 -0.8369
18426TIP3    H276694   0.965   1.032  14.267  2.8028 -0.4710 -0.5158
18427TIP3   OH276695   0.800   0.528  13.266  0.4374 -0.0053  0.3092
18427TIP3    H176696   0.756   0.562  13.188 -2.8330 -0.2911  1.8711
18427TIP3    H276697   0.885   0.497  13.234 -1.3645 -1.7145 -3.4980
18428TIP3   OH276698   3.317   3.921   6.549  0.3237  0.8247 -0.6988
18428TIP3    H176699   3.353   3.858   6.611  1.3121  1.7262 -0.3376
18428TIP3    H276700   3.254   3.972   6.600  1.3296  1.7408 -0.3453
18429TIP3   OH276701   5.772   6.154  16.758  0.1686  0.4917  0.4821
18429TIP3    H176702   5.850   6.099  16.748 -2.0043 -2.6943 -0.5942
18429TIP3    H276703   5.735   6.127  16.842 -0.4079  1.1118  0.4323
18430TIP3   OH276704   4.151   6.369  14.632  0.5187 -0.4973  0.2122
18430TIP3    H176705   4.179   6.343  14.720  0.1278  2.1032  1.1883
18430TIP3    H276706   4.231   6.367  14.579  1.0523 -0.6106  1.0145
18431TIP3   OH276707   0.420   5.130   2.836 -0.3326  0.5707  0.7021
18431TIP3    H176708   0.368   5.062   2.794  0.9709  0.9236 -1.6619
18431TIP3    H276709   0.432   5.100   2.925 -0.1791 -2.0870 -0.1376
18432TIP3   OH276710   6.626   3.168   3.557 -0.2239 -0.0081  0.5238
18432TIP3    H176711   6.544   3.180   3.509  0.4737  1.1165 -0.4765
18432TIP3    H276712   6.606   3.195   3.647 -0.6665  1.4545  0.0157
18433TIP3   OH276713   6.425   2.549  15.725 -0.5767  0.4086 -0.0705
18433TIP3    H176714   6.330   2.563  15.724 -0.6020  1.3458  3.1061
18433TIP3    H276715   6.460   2.629  15.764  1.6035  0.1790 -1.3805
18434TIP3   OH276716   0.191   2.323   3.199 -0.6991 -0.1768 -0.1263
18434TIP3    H176717   0.180   2.382   3.273 -0.5065  1.0798 -1.0571
18434TIP3    H276718   0.272   2.353   3.156 -0.5020 -1.2278 -0.5343
18435TIP3   OH276719   0.802   6.245  10.624 -0.0979  0.9656 -0.1729
18435TIP3    H176720   0.760   6.255  10.709  1.2985 -0.5223  0.7577
18435TIP3    H276721   0.799   6.332  10.585 -1.2381  1.5610  1.1625
18436TIP3   OH276722   4.604   3.112   3.367 -0.3890 -0.7402 -0.5782
18436TIP3    H176723   4.642   3.171   3.301 -0.4937  2.0436  1.6778
18436TIP3    H276724   4.510   3.122   3.357 -0.4124 -0.7607 -0.3784
18437TIP3   OH276725   2.693   5.784   4.201 -0.3163 -0.6398 -0.7930
18437TIP3    H176726   2.667   5.735   4.123 -1.7415 -1.1171 -0.0731
18437TIP3    H276727   2.626   5.761   4.266  0.7822 -0.1955  0.5445
18438TIP3   OH276728   4.676   0.487   2.500  0.7473  0.0305 -0.0245
18438TIP3    H176729   4.631   0.571   2.500  0.9633  0.1850 -1.7223
18438TIP3    H276730   4.616   0.427   2.456  2.3069  0.3858 -2.9120
18439TIP3   OH276731   4.311   6.573  16.719 -0.1277  0.0532 -0.3332
18439TIP3    H176732   4.356   6.590  16.635 -0.1316  0.7476 -0.2013
18439TIP3    H276733   4.337   6.647  16.774 -0.7235 -0.0178  0.0373
18440TIP3   OH276734   4.329   3.137   1.759 -0.2251 -0.0138  0.0140
18440TIP3    H176735   4.400   3.200   1.774  0.7321 -1.0271 -0.0755
18440TIP3    H276736   4.251   3.180   1.792  0.4940  1.0140  0.4230
18441TIP3   OH276737   1.641   6.053   3.058 -0.2345  0.0640 -0.9939
18441TIP3    H176738   1.634   6.037   3.152  2.5971  2.9709 -0.1097
18441TIP3    H276739   1.553   6.079   3.031 -0.7373  0.8829  1.2537
18442TIP3   OH276740   5.837   2.054  13.091 -0.1486 -0.4012 -0.1140
18442TIP3    H176741   5.871   1.965  13.081 -0.5637 -0.6731  0.7596
18442TIP3    H276742   5.780   2.049  13.169 -1.6425  0.1776 -1.1200
18443TIP3   OH276743   0.318   1.002  14.985 -0.0466  0.5841  0.1437
18443TIP3    H176744   0.270   1.084  14.994  1.2157  1.2433  1.1461
18443TIP3    H276745   0.376   1.016  14.910  2.1778  1.7184  1.9496
18444TIP3   OH276746   6.354   4.951  11.498 -0.1700  0.0788 -0.2151
18444TIP3    H176747   6.271   4.956  11.451 -0.6613  2.6305  0.7665
18444TIP3    H276748   6.330   4.938  11.590  0.5669 -0.2419 -0.0556
18445TIP3   OH276749   1.359   0.005   1.110 -0.1050  0.0252  0.0838
18445TIP3    H176750   1.433  -0.055   1.103 -0.3749 -0.8343  2.9245
18445TIP3    H276751   1.395   0.084   1.150 -0.5024  0.0550  0.3958
18446TIP3   OH276752   1.076   2.535   3.314 -0.0830 -0.5865  0.6312
18446TIP3    H176753   0.990   2.551   3.353  0.1705 -1.0679  1.4101
18446TIP3    H276754   1.134   2.600   3.354 -0.5524  1.5139 -1.8111
18447TIP3   OH276755   1.617   3.938  16.948  1.1118 -0.2782  0.0322
18447TIP3    H176756   1.620   3.856  16.899  0.9743  1.1172 -2.5026
18447TIP3    H276757   1.540   3.929  17.005  0.2638 -1.3888 -1.2138
18448TIP3   OH276758   2.410   5.651  14.776 -0.3919 -0.0879 -0.7210
18448TIP3    H176759   2.454   5.602  14.845 -0.3390 -1.4381 -1.6918
18448TIP3    H276760   2.479   5.702  14.735 -0.7639  2.6118  1.6635
18449TIP3   OH276761   6.070   0.845   4.465 -0.2715  0.2858  0.2787
18449TIP3    H176762   6.054   0.751   4.455 -1.0411  0.4442 -0.1135
18449TIP3    H276763   6.132   0.852   4.538  0.2341 -0.5543 -0.0597
18450TIP3   OH276764   1.252   4.823  15.953  0.1046 -0.5010  0.3497
18450TIP3    H176765   1.233   4.915  15.933 -0.0672 -0.4968  0.5243
18450TIP3    H276766   1.242   4.777  15.869  0.3413 -0.3386  0.2315
18451TIP3   OH276767   5.489   3.574  15.872 -0.1024  0.2387 -0.1844
18451TIP3    H176768   5.512   3.495  15.823  1.2273  0.2777  0.3432
18451TIP3    H276769   5.493   3.547  15.964 -1.8314  0.3602 -0.0477
18452TIP3   OH276770   5.967   4.522   5.894  0.6894  0.3345 -0.0066
18452TIP3    H176771   5.928   4.563   5.817  0.0933  0.7418  0.5007
18452TIP3    H276772   6.013   4.445   5.861  1.3984  1.1223 -0.9148
18453TIP3   OH276773   4.149   5.553  11.907 -0.1425 -0.1080  0.2977
18453TIP3    H176774   4.182   5.633  11.865  0.2435 -0.9430 -1.0203
18453TIP3    H276775   4.062   5.578  11.939 -0.2870  0.6695 -0.6488
18454TIP3   OH276776   0.575   4.301  16.881  1.0043  0.1556 -0.2691
18454TIP3    H176777   0.630   4.368  16.922  0.1208  0.5054  0.3887
18454TIP3    H276778   0.588   4.223  16.935 -0.5480  0.7567  1.0367
18455TIP3   OH276779   6.298   2.839   1.280  0.4276  0.0793 -0.1677
18455TIP3    H176780   6.321   2.843   1.187  1.9026  0.5214  0.1937
18455TIP3    H276781   6.381   2.849   1.326 -0.0815 -1.4580  1.2095
18456TIP3   OH276782   6.621   4.511   5.413  0.3206 -0.4164 -0.3890
18456TIP3    H176783   6.647   4.422   5.389  0.4585 -0.5127  0.0994
18456TIP3    H276784   6.633   4.562   5.333 -2.0545 -1.2979 -1.4085
18457TIP3   OH276785   2.941   2.049  16.884 -0.3259  0.3818  0.2626
18457TIP3    H176786   2.918   1.991  16.957 -1.0300  1.3567  0.8386
18457TIP3    H276787   3.027   2.085  16.907 -1.3606  2.1493  1.5893
18458TIP3   OH276788   4.374   0.787   2.188  0.5042  0.0268  0.1015
18458TIP3    H176789   4.359   0.723   2.119 -0.6956  1.1626 -0.7373
18458TIP3    H276790   4.287   0.820   2.210  1.1688  2.1838 -0.2986
18459TIP3   OH276791   2.547   5.161   4.003 -0.1827  0.3367 -0.0460
18459TIP3    H176792   2.468   5.113   3.977  0.8380 -2.9135  2.2300
18459TIP3    H276793   2.523   5.204   4.085  0.4143 -0.9495  0.8405
18460TIP3   OH276794   3.250   2.797   5.621 -0.1297  0.2547 -0.0302
18460TIP3    H176795   3.320   2.858   5.597  0.6446 -0.3310  0.6741
18460TIP3    H276796   3.204   2.842   5.692  0.7302 -0.1464  0.8100
18461TIP3   OH276797   3.502   0.989  12.879 -0.1667 -0.1972  0.4508
18461TIP3    H176798   3.411   0.971  12.902 -0.6564  0.0813 -1.1104
18461TIP3    H276799   3.528   1.062  12.936 -0.9384 -0.2262  0.8465
18462TIP3   OH276800   1.708   6.254   3.407 -0.6226  0.2060  0.2948
18462TIP3    H176801   1.734   6.162   3.404 -0.3394  0.2921 -1.8368
18462TIP3    H276802   1.731   6.283   3.495  2.0935 -0.9969  0.0969
18463TIP3   OH276803   0.224   5.364  14.456  0.7963 -0.3427  0.3660
18463TIP3    H176804   0.218   5.374  14.361  0.3152 -0.0072  0.4251
18463TIP3    H276805   0.133   5.370  14.486  0.8960 -0.9416  0.8022
18464TIP3   OH276806   2.778   2.968  15.403 -0.6768  0.9151 -0.2834
18464TIP3    H176807   2.745   2.952  15.491  0.8747  0.7563  0.2912
18464TIP3    H276808   2.733   2.903  15.349  0.2721 -0.7501  0.8442
18465TIP3   OH276809   0.664   4.574  15.442 -0.0317  0.2734 -0.0464
18465TIP3    H176810   0.748   4.618  15.436  0.7229 -1.0149  0.6029
18465TIP3    H276811   0.685   4.481  15.432 -1.1593 -0.2072  1.5417
18466TIP3   OH276812   1.215   4.533   4.183  0.6177 -0.1104 -0.0248
18466TIP3    H176813   1.253   4.618   4.159  0.5198 -0.2218 -0.5887
18466TIP3    H276814   1.230   4.478   4.106  1.7454 -0.9658  0.7668
18467TIP3   OH276815   5.877   3.840   6.144 -0.2070  0.3413  0.0207
18467TIP3    H176816   5.792   3.883   6.135  0.5411  1.5835 -1.4787
18467TIP3    H276817   5.857   3.746   6.135 -1.5305  0.5255  0.7658
18468TIP3   OH276818   6.078   2.510  14.289  0.0520 -0.0144 -0.1105
18468TIP3    H176819   6.151   2.565  14.262  0.3954 -0.7606 -0.7199
18468TIP3    H276820   6.112   2.459  14.363 -0.0258  0.0386 -0.0381
18469TIP3   OH276821   3.694   5.292   3.591  0.2496 -0.3363 -0.5573
18469TIP3    H176822   3.747   5.227   3.543  0.0815  0.6503 -2.1541
18469TIP3    H276823   3.604   5.260   3.582  0.2304 -0.2176 -0.7767
18470TIP3   OH276824   2.892   3.078  14.482  0.1499 -0.4058 -0.2152
18470TIP3    H176825   2.805   3.052  14.511  0.3133 -0.0251  0.6377
18470TIP3    H276826   2.877   3.127  14.401 -0.4370 -0.2147  0.0059
18471TIP3   OH276827   5.795   0.658   5.595 -0.1415  0.4608 -0.2201
18471TIP3    H176828   5.819   0.727   5.658  0.0733  0.9505 -0.8241
18471TIP3    H276829   5.720   0.614   5.635 -1.4934  2.2557 -0.6558
18472TIP3   OH276830   6.402   1.486   4.614  0.2537  0.0198 -0.1694
18472TIP3    H176831   6.401   1.406   4.667 -1.2470  0.7827  1.0424
18472TIP3    H276832   6.483   1.531   4.640 -0.1578  0.0940  1.0874
18473TIP3   OH276833   4.593   5.837  14.864 -0.1234  0.3946  0.7812
18473TIP3    H176834   4.606   5.906  14.929 -0.1074 -0.3447  1.5869
18473TIP3    H276835   4.506   5.802  14.884 -0.0030 -0.0273  0.5874
18474TIP3   OH276836   5.881   6.570  14.528 -0.6407 -0.0887 -0.7840
18474TIP3    H176837   5.819   6.641  14.541  1.4544  1.5348  1.1506
18474TIP3    H276838   5.960   6.613  14.496  1.0999 -1.2622  1.6368
18475TIP3   OH276839   6.133   5.373   4.661 -0.5311 -0.6199  0.5730
18475TIP3    H176840   6.214   5.355   4.709 -0.0276 -0.8315 -0.3204
18475TIP3    H276841   6.156   5.443   4.601 -0.8139 -1.1325 -0.1587
18476TIP3   OH276842   6.354   3.366   4.497  0.5343 -0.2386  0.6231
18476TIP3    H176843   6.425   3.316   4.537 -0.9768 -1.1678  2.2261
18476TIP3    H276844   6.280   3.305   4.493  0.0730  0.3651 -1.9986
18477TIP3   OH276845   5.797   6.428  15.663 -0.1277  0.0489  0.6031
18477TIP3    H176846   5.870   6.401  15.607 -0.1264  0.4640  0.3960
18477TIP3    H276847   5.802   6.524  15.663 -1.2938  0.1263 -0.2478
18478TIP3   OH276848   0.986   5.234  11.293  0.2581  0.0670 -0.3787
18478TIP3    H176849   0.930   5.294  11.244  2.6660  2.4360 -0.4880
18478TIP3    H276850   1.055   5.210  11.231  0.7577 -0.7297  0.4565
18479TIP3   OH276851   5.778   0.100   1.907  0.3606  0.6051  0.0193
18479TIP3    H176852   5.867   0.132   1.921  1.7196 -2.7058 -0.0184
18479TIP3    H276853   5.784   0.047   1.828 -2.5330  2.9301 -1.9769
18480TIP3   OH276854   3.330   4.233  17.213  0.0687  0.4627  0.3020
18480TIP3    H176855   3.407   4.273  17.173  1.2597 -0.8592  1.1724
18480TIP3    H276856   3.278   4.201  17.139  1.5676 -0.7661 -0.2858
18481TIP3   OH276857   4.730   0.714  11.630  0.6588  0.5002  0.2246
18481TIP3    H176858   4.697   0.721  11.720  0.2616 -0.7714  0.1943
18481TIP3    H276859   4.807   0.771  11.629  0.6417  0.5771  1.3562
18482TIP3   OH276860   1.248   2.145  12.233 -0.0317 -0.3842  0.1903
18482TIP3    H176861   1.230   2.102  12.149  0.7156 -1.0366  0.3468
18482TIP3    H276862   1.341   2.130  12.247 -0.0561  0.1386  0.9081
18483TIP3   OH276863   5.795   1.145   1.435 -0.3656 -0.1991  0.0003
18483TIP3    H176864   5.809   1.072   1.495  0.6324  0.3785  0.4901
18483TIP3    H276865   5.847   1.124   1.357  0.8800  0.5127  0.6074
18484TIP3   OH276866   5.330   2.442  12.200 -0.1830  0.5923  0.1080
18484TIP3    H176867   5.396   2.373  12.204 -2.1340 -1.6002 -1.9432
18484TIP3    H276868   5.335   2.485  12.285  1.5095 -1.7285  1.3074
18485TIP3   OH276869   4.879   5.995  10.580  0.1778 -0.4096  0.0400
18485TIP3    H176870   4.924   5.996  10.665  2.1456 -1.7966 -0.8952
18485TIP3    H276871   4.788   5.976  10.602 -0.0790  2.4108  2.0256
18486TIP3   OH276872   1.469   6.228  13.020 -0.2239 -0.2095 -0.6282
18486TIP3    H176873   1.501   6.144  13.054  1.0758  0.8859  1.0082
18486TIP3    H276874   1.547   6.273  12.989 -0.5604  1.2435  0.5233
18487TIP3   OH276875   3.420   6.398  14.539  0.5839  0.3469 -0.1539
18487TIP3    H176876   3.327   6.374  14.543  0.8061 -0.5396 -0.0631
18487TIP3    H276877   3.466   6.317  14.562  1.4161  0.4083 -1.5478
18488TIP3   OH276878   3.676   5.629  10.813 -0.7879  0.2850  0.9408
18488TIP3    H176879   3.584   5.647  10.832 -0.5641  1.5112  0.9433
18488TIP3    H276880   3.710   5.711  10.777  0.3337 -0.1204  1.0198
18489TIP3   OH276881   6.638   4.117   0.023  1.0504  0.3154 -0.0378
18489TIP3    H176882   6.571   4.062  -0.017  1.4784  0.9052 -1.6884
18489TIP3    H276883   6.691   4.058   0.076 -1.4874  0.0478  2.3695
18490TIP3   OH276884   3.805   4.256   5.287  0.2421  0.1461 -0.6432
18490TIP3    H176885   3.855   4.231   5.364 -1.4003  2.2684  1.2534
18490TIP3    H276886   3.790   4.175   5.239  0.6895 -1.3587  1.6626
18491TIP3   OH276887   6.733   1.786  14.430  0.6760 -0.0538 -0.0023
18491TIP3    H176888   6.774   1.701  14.412  4.1595  1.0356  1.7989
18491TIP3    H276889   6.706   1.781  14.522  0.1834  0.5454 -0.1057
18492TIP3   OH276890   6.503   0.315  15.858  0.0233 -0.0084  0.0841
18492TIP3    H176891   6.493   0.410  15.847 -1.0558 -0.2236 -0.9168
18492TIP3    H276892   6.413   0.281  15.855  0.4856 -1.2029 -0.9072
18493TIP3   OH276893   3.848   0.129   5.364 -0.8449  0.3189 -0.5446
18493TIP3    H176894   3.838   0.047   5.412 -2.0318  1.9799  2.2703
18493TIP3    H276895   3.934   0.163   5.391 -1.7957  1.5765  1.0048
18494TIP3   OH276896   0.219   3.333  14.820 -0.6757  0.6683 -0.3234
18494TIP3    H176897   0.188   3.332  14.911 -0.7279  0.7767 -0.3394
18494TIP3    H276898   0.287   3.400  14.819  1.8078 -1.6801  0.4337
18495TIP3   OH276899   0.625   0.550   3.138  0.5069  0.2795  0.1744
18495TIP3    H176900   0.617   0.644   3.121  1.2354  0.3000 -0.1041
18495TIP3    H276901   0.695   0.543   3.202 -0.5054  0.0097  1.2996
18496TIP3   OH276902   4.447   4.523  16.218 -0.4234  0.5582 -0.1802
18496TIP3    H176903   4.534   4.552  16.246 -0.5137  0.3478  0.3150
18496TIP3    H276904   4.396   4.604  16.214  0.0643  0.8229 -1.4791
18497TIP3   OH276905   0.644   2.095  15.836 -0.5442 -0.2284  0.0477
18497TIP3    H176906   0.617   2.043  15.760  1.6019  0.0606 -0.9934
18497TIP3    H276907   0.732   2.064  15.856 -0.6168  0.5315  1.6915
18498TIP3   OH276908   4.156   2.243  12.969 -0.7222 -0.2093 -0.0740
18498TIP3    H176909   4.135   2.322  13.019 -1.2030 -0.8663  0.7995
18498TIP3    H276910   4.251   2.246  12.960 -0.7110  0.3516  0.1637
18499TIP3   OH276911   0.679   6.506   0.226  0.1753 -0.4182 -0.2087
18499TIP3    H176912   0.662   6.467   0.140  2.3193 -1.0352 -0.4045
18499TIP3    H276913   0.679   6.432   0.286 -1.9831  0.0810  0.5124
18500TIP3   OH276914   5.582   2.732   3.210  0.3356  0.1938  0.1315
18500TIP3    H176915   5.554   2.802   3.151 -0.7942 -0.6375 -0.3580
18500TIP3    H276916   5.631   2.672   3.154 -2.2032 -1.4915 -0.4454
18501TIP3   OH276917   6.142   6.730   4.790  0.2009 -0.6853 -0.4500
18501TIP3    H176918   6.222   6.733   4.738 -0.2528 -1.0086 -1.1665
18501TIP3    H276919   6.156   6.797   4.858  0.8867 -0.4286 -0.8327
18502TIP3   OH276920   1.212   1.510  11.515  0.0137  0.0340  0.4472
18502TIP3    H176921   1.289   1.464  11.550  1.4554 -0.8809 -3.4578
18502TIP3    H276922   1.246   1.593  11.484 -1.2347  0.8738  1.2285
18503TIP3   OH276923   0.940   5.951  10.950 -0.5071 -0.4019 -0.2325
18503TIP3    H176924   0.943   5.941  11.045  0.5811  1.4906 -0.0137
18503TIP3    H276925   0.988   5.875  10.916 -1.1724 -1.2591  0.6843
18504TIP3   OH276926   3.761   5.919  10.799  0.4716 -0.4152 -0.0947
18504TIP3    H176927   3.783   5.991  10.739 -2.5804 -0.5193 -1.5259
18504TIP3    H276928   3.731   5.963  10.878  0.5384 -0.1833 -0.1952
18505TIP3   OH276929   5.235   2.222  13.118  0.1399  0.4436 -0.1254
18505TIP3    H176930   5.174   2.167  13.167  0.2476  0.7637  0.3775
18505TIP3    H276931   5.254   2.173  13.038  1.7375 -1.1559  1.1669
18506TIP3   OH276932   3.532   4.960  13.505 -0.2099  0.2904  0.2118
18506TIP3    H176933   3.447   4.918  13.517 -0.1275  0.1355  0.2518
18506TIP3    H276934   3.595   4.889  13.512 -0.0711  0.4199  0.2681
18507TIP3   OH276935   1.030   0.965  14.962  0.0466 -0.2666  0.0750
18507TIP3    H176936   1.089   0.945  15.035 -0.5358  1.0282  0.9334
18507TIP3    H276937   1.088   0.974  14.886  0.7235 -1.0102  0.4896
18508TIP3   OH276938   6.231   4.016   0.757 -0.7136 -0.2678  0.0364
18508TIP3    H176939   6.320   3.983   0.766 -1.4966 -3.0538 -1.2323
18508TIP3    H276940   6.238   4.088   0.695  0.6430 -0.3118  0.1062
18509TIP3   OH276941   5.171   1.993   4.794  0.4788  0.2670 -0.0499
18509TIP3    H176942   5.185   2.031   4.880  0.1431 -0.1084  0.1704
18509TIP3    H276943   5.078   2.006   4.776  0.3697 -0.4207  0.0109
18510TIP3   OH276944   5.865   5.795  15.238 -0.1500 -0.7444  0.7616
18510TIP3    H176945   5.810   5.833  15.306 -1.1952 -1.6913  0.4879
18510TIP3    H276946   5.827   5.708  15.222 -0.2308 -0.3905 -1.3412
18511TIP3   OH276947   0.883   2.464   6.537  0.3862  0.8679 -0.3145
18511TIP3    H176948   0.803   2.491   6.583  0.1239  4.5441 -2.5154
18511TIP3    H276949   0.947   2.450   6.607 -1.1771  1.5692  1.3502
18512TIP3   OH276950   2.806   1.955  14.261 -0.4650 -0.4106 -0.5918
18512TIP3    H176951   2.829   1.868  14.295  0.5372 -0.4695 -1.3801
18512TIP3    H276952   2.725   1.940  14.212 -1.2584 -0.5521  0.7048
18513TIP3   OH276953   0.305   3.247   1.567  0.4826  0.4483  0.3230
18513TIP3    H176954   0.324   3.181   1.501 -0.4514  0.6023 -0.1078
18513TIP3    H276955   0.296   3.198   1.649  0.1815  0.0835  0.0749
18514TIP3   OH276956   1.385   4.723   5.677 -0.3798 -0.0854 -0.5434
18514TIP3    H176957   1.373   4.641   5.629  0.0181  0.5958 -1.8353
18514TIP3    H276958   1.452   4.770   5.628 -0.2774  0.8242  0.4452
18515TIP3   OH276959   5.618   0.291  12.164  0.3363 -0.0590 -0.1760
18515TIP3    H176960   5.559   0.356  12.125 -0.5960  1.3623  3.2380
18515TIP3    H276961   5.587   0.207  12.129 -1.7033  0.9109 -0.8786
18516TIP3   OH276962   5.478   0.191  11.802  0.2480  0.4037 -0.1550
18516TIP3    H176963   5.491   0.215  11.894 -0.2029 -0.2667  0.0964
18516TIP3    H276964   5.442   0.102  11.806  1.9272 -0.3490 -1.0471
18517TIP3   OH276965   1.426   1.726  15.694  0.5090  0.0972 -0.1352
18517TIP3    H176966   1.422   1.805  15.748  0.8207  0.7217 -1.0090
18517TIP3    H276967   1.439   1.655  15.757  1.2553  0.8464  0.5903
18518TIP3   OH276968   6.487   0.311   3.878 -0.2622  0.0007 -0.4145
18518TIP3    H176969   6.458   0.333   3.790  1.7405  0.6007 -0.9599
18518TIP3    H276970   6.501   0.217   3.876 -0.2960  0.0013 -0.7012
18519TIP3   OH276971   4.323   6.476   4.383 -0.0992  0.5847 -0.4858
18519TIP3    H176972   4.338   6.548   4.445  1.8765 -0.8023  0.7505
18519TIP3    H276973   4.410   6.450   4.356 -0.6430 -2.2911  0.2359
18520TIP3   OH276974   2.278   3.123   4.542  0.4308 -0.2049 -0.5890
18520TIP3    H176975   2.211   3.059   4.517  0.7480 -1.5029  1.6264
18520TIP3    H276976   2.323   3.083   4.616  1.1871  2.2640  0.3775
18521TIP3   OH276977   6.429   5.322  12.511  0.0994 -0.4128 -0.1638
18521TIP3    H176978   6.518   5.333  12.546 -0.9371  2.2971  1.9284
18521TIP3    H276979   6.440   5.326  12.416  2.3032 -1.3048 -0.0105
18522TIP3   OH276980   3.530   1.008   1.530  0.1539  0.9897 -0.1049
18522TIP3    H176981   3.444   1.046   1.512 -0.6424 -0.9657 -0.6346
18522TIP3    H276982   3.559   1.051   1.611 -0.8937  2.3224 -0.4045
18523TIP3   OH276983   1.738   1.316  12.706 -0.2327 -0.0529 -0.0970
18523TIP3    H176984   1.769   1.406  12.709 -0.3034 -0.0510  1.8415
18523TIP3    H276985   1.646   1.321  12.734 -0.1986 -0.7157  0.1699
18524TIP3   OH276986   1.831   0.642  16.627  0.6555 -0.2780 -0.0539
18524TIP3    H176987   1.786   0.712  16.581  1.3919 -0.4034 -0.9807
18524TIP3    H276988   1.763   0.575  16.640  0.1737  0.2183  0.0429
18525TIP3   OH276989   2.695   1.429  16.275  0.0839  0.3060  0.2150
18525TIP3    H176990   2.609   1.390  16.294  0.7793 -1.4455 -0.0224
18525TIP3    H276991   2.674   1.512  16.232 -1.5271 -0.5839 -0.8560
18526TIP3   OH276992   1.781   6.674   1.856  0.5761  0.7094  0.2134
18526TIP3    H176993   1.809   6.765   1.846 -1.6386  1.2828 -1.3739
18526TIP3    H276994   1.766   6.644   1.767 -1.8809 -0.1429  0.8569
18527TIP3   OH276995   2.381   3.360  12.588  0.9442  0.0687  0.3063
18527TIP3    H176996   2.464   3.407  12.594  0.8478  0.2226  0.4479
18527TIP3    H276997   2.328   3.413  12.528  1.6206 -1.0336 -1.3385
18528TIP3   OH276998   5.799   4.834  14.931  0.3469  0.9300 -0.2452
18528TIP3    H176999   5.714   4.796  14.908  1.0217 -1.1080  0.3999
18528TIP3    H277000   5.778   4.918  14.972 -1.3690  0.2418  0.3603
18529TIP3   OH277001   5.403   6.391  12.388 -0.1197 -0.0092  0.1589
18529TIP3    H177002   5.489   6.349  12.399 -0.4653 -0.9682 -0.6438
18529TIP3    H277003   5.424   6.483  12.371  0.6925  0.0171  1.1674
18530TIP3   OH277004   3.028   5.259  11.897  0.1610  0.3154  0.1839
18530TIP3    H177005   2.992   5.345  11.918  0.4395  0.6751 -0.7660
18530TIP3    H277006   3.109   5.254  11.947  0.6468  1.0227 -0.5066
18531TIP3   OH277007   3.154   6.525   1.241 -0.1909  0.0573  0.5176
18531TIP3    H177008   3.088   6.456   1.233  0.3969 -0.3632 -1.1504
18531TIP3    H277009   3.214   6.492   1.307  0.4148 -1.3668 -0.6710
18532TIP3   OH277010   2.551   5.197  12.811  0.2109  0.2907  0.1219
18532TIP3    H177011   2.520   5.262  12.875 -0.3301 -0.7870  0.9971
18532TIP3    H277012   2.489   5.203  12.739 -1.2749 -0.8527  1.2372
18533TIP3   OH277013   1.465   2.465  12.704 -0.8985 -0.4510  0.5354
18533TIP3    H177014   1.531   2.407  12.666 -0.9097  0.3053 -0.6746
18533TIP3    H277015   1.382   2.417  12.694 -1.0861  0.2220 -1.5565
18534TIP3   OH277016   2.899   5.453  11.547 -0.2711 -0.2684 -0.0756
18534TIP3    H177017   2.990   5.433  11.568 -0.3787 -1.0998 -0.3733
18534TIP3    H277018   2.860   5.479  11.630  0.0453 -0.6604  0.1986
18535TIP3   OH277019   6.661   1.058  14.692  0.0301 -0.3294  0.5861
18535TIP3    H177020   6.706   0.976  14.674  0.1548 -0.4873  1.5654
18535TIP3    H277021   6.604   1.072  14.616 -0.8714 -1.9098  0.9340
18536TIP3   OH277022   1.390   1.774   5.071 -0.4823 -0.6318 -0.1410
18536TIP3    H177023   1.440   1.712   5.018 -0.0668 -0.3594 -0.0735
18536TIP3    H277024   1.358   1.722   5.145 -0.1241 -0.7671 -0.0799
18537TIP3   OH277025   6.113   0.293   1.279  0.1678  0.3351 -0.4226
18537TIP3    H177026   6.023   0.308   1.251  0.6551  2.0039 -1.2365
18537TIP3    H277027   6.135   0.369   1.333  0.6866 -0.7017  0.8894
18538TIP3   OH277028   3.497   0.185  15.504 -0.4712  0.6263  0.2192
18538TIP3    H177029   3.468   0.245  15.572  0.0011  1.4990 -0.3261
18538TIP3    H277030   3.483   0.097  15.540  2.1750  1.0177  2.5094
18539TIP3   OH277031   5.339   4.434   1.018 -0.5317  0.4633  0.2482
18539TIP3    H177032   5.284   4.494   0.966 -1.2432  0.1181  0.5841
18539TIP3    H277033   5.370   4.369   0.955 -1.4376  0.0135  0.2504
18540TIP3   OH277034   6.120   3.067   0.788 -0.0656 -0.1202 -0.3711
18540TIP3    H177035   6.165   3.118   0.856  0.8191  1.0638 -1.7836
18540TIP3    H277036   6.184   3.002   0.760  0.6177  1.1324 -1.9062
18541TIP3   OH277037   6.740   2.765  13.191 -0.1018 -0.1233 -0.5329
18541TIP3    H177038   6.658   2.756  13.142 -0.1749  1.0858 -0.6541
18541TIP3    H277039   6.765   2.857  13.180  0.6836 -0.2049  0.4384
18542TIP3   OH277040   3.550   1.409  14.249  0.6134  0.3800 -0.2981
18542TIP3    H177041   3.603   1.442  14.322  3.9181 -0.9444 -1.8946
18542TIP3    H277042   3.519   1.323  14.278 -0.2573  0.9101  0.4172
18543TIP3   OH277043   5.302   2.358   6.062  0.3662 -0.3026 -0.0742
18543TIP3    H177044   5.309   2.414   6.140  0.7341 -0.1658 -0.2030
18543TIP3    H277045   5.214   2.320   6.068  0.0235  0.4715 -0.1067
18544TIP3   OH277046   5.185   0.716  16.693 -0.4781  0.2551  0.6323
18544TIP3    H177047   5.270   0.742  16.726  0.2287  1.8815 -2.1649
18544TIP3    H277048   5.172   0.769  16.614 -4.3383  0.4890  1.2119
18545TIP3   OH277049   5.686   2.312  15.259  1.4105  0.5112  0.0116
18545TIP3    H177050   5.687   2.307  15.163 -0.4706  0.0585 -0.0179
18545TIP3    H277051   5.769   2.273  15.285  0.8765 -1.7417 -1.3756
18546TIP3   OH277052   4.940   3.365  11.280  0.0210 -0.3318  0.0204
18546TIP3    H177053   5.011   3.410  11.327 -0.0482 -2.2342  2.1232
18546TIP3    H277054   4.965   3.273  11.283 -0.6458 -0.6848 -2.7239
18547TIP3   OH277055   1.439   5.918   2.386  0.8711 -0.1238 -0.5528
18547TIP3    H177056   1.349   5.943   2.363  0.9286  1.1061  0.4454
18547TIP3    H277057   1.488   6.001   2.382  1.3212 -0.2098  1.7815
18548TIP3   OH277058   4.350   3.392   0.344 -0.6136  0.0276  0.4202
18548TIP3    H177059   4.332   3.317   0.288  0.4357  0.1124 -0.0421
18548TIP3    H277060   4.328   3.362   0.432 -1.6363 -0.3229  0.0659
18549TIP3   OH277061   0.852   4.547   0.720  0.4891  0.0875 -0.3177
18549TIP3    H177062   0.930   4.498   0.694  0.4865  0.3272 -0.8023
18549TIP3    H277063   0.869   4.637   0.691  0.0120  0.1299 -0.4822
18550TIP3   OH277064   5.279   5.319  15.923 -0.0531 -0.0547 -0.6127
18550TIP3    H177065   5.323   5.235  15.935 -2.0295 -0.8547  1.6753
18550TIP3    H277066   5.194   5.297  15.885 -0.6532  0.9068  0.1254
18551TIP3   OH277067   2.531   2.098  14.629 -0.0997  0.5007  0.1709
18551TIP3    H177068   2.515   2.155  14.704 -1.1966  0.3591  0.0618
18551TIP3    H277069   2.483   2.140  14.557 -0.0360  0.0049 -0.1613
18552TIP3   OH277070   2.699   6.394   0.389  0.2080 -0.2810 -0.1380
18552TIP3    H177071   2.739   6.462   0.334  1.2503 -0.3175  0.5396
18552TIP3    H277072   2.681   6.322   0.329 -0.8883  0.5709 -0.8632
18553TIP3   OH277073   4.172   4.951   4.853 -0.1877  0.7051 -0.8832
18553TIP3    H177074   4.172   4.856   4.862  0.2775  0.7413 -0.4653
18553TIP3    H277075   4.136   4.983   4.935  1.5901  0.9505 -0.1610
18554TIP3   OH277076   0.506   4.959   6.325  0.1734  0.9342 -0.2464
18554TIP3    H177077   0.503   5.039   6.273 -0.4347  1.0929  0.0286
18554TIP3    H277078   0.572   4.977   6.393 -0.3251  1.3906  0.1232
18555TIP3   OH277079   5.494   3.495   2.192  0.4645 -0.0721  0.6911
18555TIP3    H177080   5.459   3.474   2.279 -0.9025 -0.5398  0.0421
18555TIP3    H277081   5.425   3.471   2.131  1.7759 -0.6830 -0.6236
18556TIP3   OH277082   0.780   5.442  14.035  0.1467 -0.2031 -0.2030
18556TIP3    H177083   0.772   5.531  14.068 -2.1676 -0.1137 -0.8489
18556TIP3    H277084   0.834   5.449  13.957  0.4932  0.5349  0.1037
18557TIP3   OH277085   5.371   3.128   3.485  0.3518  0.5808 -0.5361
18557TIP3    H177086   5.410   3.152   3.402  0.2487  0.2209 -0.6901
18557TIP3    H277087   5.432   3.065   3.523 -0.1904 -0.1873 -0.8968
18558TIP3   OH277088   5.327   6.279  17.023 -0.0838  0.1565 -0.0539
18558TIP3    H177089   5.375   6.353  17.061  2.1050 -1.6163  0.8160
18558TIP3    H277090   5.247   6.272  17.075 -0.4739  2.0192 -0.3237
18559TIP3   OH277091   1.944   3.745   4.454  0.2541  0.0330  0.5296
18559TIP3    H177092   2.028   3.726   4.413  0.1382 -0.2450  0.4173
18559TIP3    H277093   1.938   3.683   4.527 -0.2636 -0.5767 -0.0260
18560TIP3   OH277094   6.361   5.913   4.550  0.3556  0.2788 -0.6024
18560TIP3    H177095   6.284   5.870   4.587 -0.3091  1.9370  0.0452
18560TIP3    H277096   6.382   5.861   4.473 -1.2008 -0.4304 -0.5999
18561TIP3   OH277097   3.443   2.780   3.683 -0.3113  0.3349 -0.0178
18561TIP3    H177098   3.494   2.727   3.622 -0.6401 -0.8746  0.7167
18561TIP3    H277099   3.462   2.870   3.658 -1.0711 -0.0834 -2.4364
18562TIP3   OH277100   3.143   3.997  16.776  0.4326  0.2509  0.0181
18562TIP3    H177101   3.136   3.931  16.845 -0.3923  0.0953 -0.2037
18562TIP3    H277102   3.223   4.045  16.797 -0.3830  0.9262  1.7145
18563TIP3   OH277103   2.687   3.063  14.836  0.2950  0.0074  0.4648
18563TIP3    H177104   2.631   3.140  14.840 -0.0956 -0.2895  0.7577
18563TIP3    H277105   2.646   3.007  14.770  0.4382 -0.0609  0.4337
18564TIP3   OH277106   2.443   1.097  15.829 -0.0940  0.6329  0.2834
18564TIP3    H177107   2.483   1.180  15.854 -0.3780  0.7683  0.2881
18564TIP3    H277108   2.381   1.079  15.899 -0.3744  0.6533  0.0398
18565TIP3   OH277109   4.977   1.349  14.083 -0.0536 -0.1816  0.0538
18565TIP3    H177110   4.950   1.416  14.146  0.4029  0.9732 -0.9318
18565TIP3    H277111   4.910   1.351  14.015 -0.1124 -0.8382  0.0865
18566TIP3   OH277112   4.154   2.997  14.534  0.0034 -0.6531 -0.1415
18566TIP3    H177113   4.208   2.999  14.613  1.2570 -2.6367 -0.8630
18566TIP3    H277114   4.217   2.993  14.462 -1.1042  1.2531 -1.3073
18567TIP3   OH277115   2.782   0.528  15.108 -0.2747 -0.1888  0.9066
18567TIP3    H177116   2.738   0.587  15.168  2.1761  0.0744  2.6020
18567TIP3    H277117   2.860   0.576  15.079  0.7748 -1.8438  0.8171
18568TIP3   OH277118   6.268   0.092   0.004 -0.3035 -0.1300 -0.3010
18568TIP3    H177119   6.299   0.005   0.029  0.1645 -0.2739 -1.3383
18568TIP3    H277120   6.318   0.152   0.059  0.4832 -0.4501 -0.6536
18569TIP3   OH277121   2.744   1.977  12.277  0.4243 -0.2022  0.2905
18569TIP3    H177122   2.750   1.971  12.182  0.7578  1.0659  0.2167
18569TIP3    H277123   2.810   2.043  12.301 -0.5943  0.4891  1.2596
18570TIP3   OH277124   0.726   5.455   0.038  0.2960  0.4117 -0.5805
18570TIP3    H177125   0.647   5.427  -0.007  0.3535  1.3891 -1.3371
18570TIP3    H277126   0.695   5.490   0.122  0.2768 -2.2757  0.6342
18571TIP3   OH277127   2.217   2.028  16.409 -0.0596  0.5048 -0.4655
18571TIP3    H177128   2.216   2.123  16.421 -3.4841  0.6610 -0.8190
18571TIP3    H277129   2.188   1.993  16.494  2.1652 -0.3561 -0.0075
18572TIP3   OH277130   6.651   4.099  14.618 -0.4140 -0.6902  0.3151
18572TIP3    H177131   6.557   4.117  14.613 -0.3008  0.0951  0.8100
18572TIP3    H277132   6.670   4.097  14.711  0.8587  3.8520  0.4209
18573TIP3   OH277133   1.514   2.337   3.035  0.9016  0.0555 -0.3850
18573TIP3    H177134   1.507   2.331   2.940  2.3187  0.8671 -0.5609
18573TIP3    H277135   1.445   2.399   3.060 -0.3127 -1.1039 -0.7132
18574TIP3   OH277136   2.332   3.632   6.476  0.1028 -0.1783 -0.0336
18574TIP3    H177137   2.256   3.689   6.486  0.3739 -0.1926  3.4961
18574TIP3    H277138   2.300   3.545   6.499  0.5968 -0.7665 -1.4258
18575TIP3   OH277139   1.160   1.372   2.663  0.2985 -0.6070  0.4780
18575TIP3    H177140   1.165   1.450   2.607  2.4201 -0.7364  0.3830
18575TIP3    H277141   1.094   1.317   2.622  0.3775  0.1755 -0.7500
18576TIP3   OH277142   0.553   2.797  12.613  0.0837  0.1193  0.0408
18576TIP3    H177143   0.639   2.756  12.596  0.4294  1.3605 -1.3894
18576TIP3    H277144   0.512   2.739  12.677  2.3813  0.0017  1.5397
18577TIP3   OH277145   0.204   2.063   3.351 -0.6566  0.2227 -0.1009
18577TIP3    H177146   0.157   2.138   3.315 -0.2433  0.6846  0.3089
18577TIP3    H277147   0.292   2.096   3.369 -0.7428 -0.0930  0.9774
18578TIP3   OH277148   6.576   1.857   3.102  0.3990 -0.7771  0.1501
18578TIP3    H177149   6.635   1.868   3.028 -1.1456  0.4033 -0.9676
18578TIP3    H277150   6.615   1.786   3.153  2.3639 -0.5306 -0.9138
18579TIP3   OH277151   0.819   4.988  13.988 -0.3880 -0.5249 -0.5105
18579TIP3    H177152   0.725   5.003  13.994 -0.3328 -0.5677  0.5784
18579TIP3    H277153   0.827   4.910  13.933 -1.0745 -1.4206  0.6208
18580TIP3   OH277154   6.702   5.930   2.756  0.2721  0.5480  0.4592
18580TIP3    H177155   6.701   5.932   2.661  0.5978 -0.7353  0.4085
18580TIP3    H277156   6.751   6.008   2.781 -0.3553  1.2379 -0.3874
18581TIP3   OH277157   0.974   2.286  14.662 -0.4859 -0.0049  0.4133
18581TIP3    H177158   0.910   2.217  14.644 -2.2036  1.1293  1.8386
18581TIP3    H277159   1.043   2.241  14.712 -1.9744 -0.5977  2.0545
18582TIP3   OH277160   5.430   3.352  15.028  0.1073  0.8734 -0.5627
18582TIP3    H177161   5.394   3.391  15.108 -0.1949  1.2502 -0.8799
18582TIP3    H277162   5.353   3.325  14.978  0.3070  0.0515 -0.4457
18583TIP3   OH277163   5.701   1.773  12.297  0.7255  0.0789  0.0816
18583TIP3    H177164   5.709   1.792  12.391 -0.2082  1.8576 -0.1530
18583TIP3    H277165   5.772   1.823  12.257  1.1669 -0.7372 -0.1709
18584TIP3   OH277166   0.334   0.122  17.206  0.5623  0.0248 -0.1999
18584TIP3    H177167   0.402   0.056  17.196 -0.1720 -0.7828  0.0435
18584TIP3    H277168   0.306   0.143  17.117 -1.2906 -2.2199 -0.2230
18585TIP3   OH277169   4.457   2.022  14.290  0.0174 -0.4856 -0.2374
18585TIP3    H177170   4.450   2.084  14.362 -0.5750 -0.1290 -0.5969
18585TIP3    H277171   4.397   1.951  14.312  0.3597 -0.7183 -0.0444
18586TIP3   OH277172   6.629   4.039   5.351 -0.7289 -0.6672 -0.1110
18586TIP3    H177173   6.627   4.031   5.256 -0.3654 -2.6031  0.0165
18586TIP3    H277174   6.538   4.061   5.375 -1.1539 -1.6133 -0.8016
18587TIP3   OH277175   4.769   1.916   5.608 -0.3635  0.0638  0.0337
18587TIP3    H177176   4.806   1.828   5.615 -0.6580  0.0045  1.2432
18587TIP3    H277177   4.695   1.916   5.670 -0.2043  1.2327  0.2630
18588TIP3   OH277178   6.197   5.749  14.845  0.3709 -0.0044 -0.1600
18588TIP3    H177179   6.196   5.793  14.760  2.2699  1.7579  0.6642
18588TIP3    H277180   6.206   5.819  14.909  1.5918 -1.4393  1.3445
18589TIP3   OH277181   3.791   6.547   0.860  0.1070 -0.0200 -0.1166
18589TIP3    H177182   3.719   6.491   0.890 -0.7107  0.5576 -0.9262
18589TIP3    H277183   3.870   6.507   0.897 -0.6504 -0.4907  1.0566
18590TIP3   OH277184   2.693   0.883  15.984 -0.1699 -0.0478 -0.3423
18590TIP3    H177185   2.622   0.839  15.937 -1.9338  2.0447  0.1928
18590TIP3    H277186   2.664   0.974  15.992  1.7803  0.5011  1.4917
18591TIP3   OH277187   2.690   3.863  11.055 -0.6564 -0.0812  0.5721
18591TIP3    H177188   2.745   3.810  10.998  1.3893 -0.5602  2.8143
18591TIP3    H277189   2.689   3.950  11.014  1.9553 -0.0248  0.4599
18592TIP3   OH277190   6.690   5.439  14.938 -0.1770  0.0808 -0.2221
18592TIP3    H177191   6.735   5.360  14.966  0.6034  0.3090 -0.7970
18592TIP3    H277192   6.681   5.429  14.843 -1.0549  0.1839 -0.1550
18593TIP3   OH277193   1.110   5.116   5.704 -0.0035 -0.6328 -0.9516
18593TIP3    H177194   1.132   5.031   5.742 -0.7647 -0.2877  0.3250
18593TIP3    H277195   1.084   5.096   5.614 -0.2260 -1.7596 -0.6494
18594TIP3   OH277196   0.081   0.647  10.926 -0.9185  0.0456 -0.3045
18594TIP3    H177197   0.148   0.583  10.905 -0.5571 -0.0963  1.1917
18594TIP3    H277198   0.001   0.596  10.937 -1.0434  0.0863 -0.9687
18595TIP3   OH277199   2.579   1.071  11.075  0.4070 -0.2153  0.1509
18595TIP3    H177200   2.589   1.069  11.170  1.2383  0.1024  0.0771
18595TIP3    H277201   2.515   1.003  11.056 -1.7233  1.4277  1.1530
18596TIP3   OH277202   1.428   2.182  15.838 -0.3250 -0.0077 -0.4425
18596TIP3    H177203   1.431   2.269  15.877 -0.6285 -1.1745  2.4383
18596TIP3    H277204   1.398   2.196  15.748  0.8740  2.9276 -0.4799
18597TIP3   OH277205   3.962   1.244   2.360 -0.6630  0.0397 -0.0916
18597TIP3    H177206   3.905   1.168   2.366  0.7029 -1.0499 -0.5748
18597TIP3    H277207   4.051   1.208   2.358  0.1592  1.7236  1.9516
18598TIP3   OH277208   4.204   0.424   5.430 -0.5794  0.3672  0.1944
18598TIP3    H177209   4.179   0.515   5.416 -1.4613  0.1489  0.2861
18598TIP3    H277210   4.202   0.413   5.525 -0.8836  0.1487  0.1654
18599TIP3   OH277211   2.971   5.119  11.657  0.2769  0.2301 -0.4230
18599TIP3    H177212   2.996   5.127  11.749 -0.9723  1.2532 -0.1437
18599TIP3    H277213   2.989   5.206  11.620 -0.3631  0.1952 -0.8359
18600TIP3   OH277214   2.852   3.627   4.356 -0.3076 -0.4895  0.3950
18600TIP3    H177215   2.762   3.624   4.324 -0.2179 -0.2765  0.1124
18600TIP3    H277216   2.861   3.715   4.393 -0.3239 -0.6365  0.7543
18601TIP3   OH277217   1.142   2.132  14.869 -0.3664  0.4946 -0.5006
18601TIP3    H177218   1.155   2.118  14.963  0.5785 -1.9154 -0.9027
18601TIP3    H277219   1.072   2.071  14.845  2.6552 -2.7475 -2.0859
18602TIP3   OH277220   2.691   4.850  14.672 -0.1641  0.5173  0.5007
18602TIP3    H177221   2.736   4.775  14.634 -0.0604 -0.1404  1.8624
18602TIP3    H277222   2.598   4.830  14.662 -0.1447  0.6764 -0.0179
18603TIP3   OH277223   0.780   5.632  13.244 -0.5900  0.0107 -0.1081
18603TIP3    H177224   0.816   5.710  13.286 -0.2288 -0.2712  0.1147
18603TIP3    H277225   0.814   5.560  13.297 -2.5299 -0.2080  0.9326
18604TIP3   OH277226   0.604   5.205  11.752 -0.0907 -0.2881  0.0619
18604TIP3    H177227   0.568   5.137  11.696 -2.2098 -1.1169  2.2752
18604TIP3    H277228   0.595   5.171  11.841  2.2078  1.3726  1.0355
18605TIP3   OH277229   3.015   3.912   4.888 -0.0464 -0.2182  0.2984
18605TIP3    H177230   3.029   3.957   4.971  0.0248  0.4049 -0.0400
18605TIP3    H277231   3.015   3.982   4.823 -0.6610 -0.6316 -0.1647
18606TIP3   OH277232   1.063   4.015   6.070  0.1422 -0.8619  0.2424
18606TIP3    H177233   0.972   4.007   6.099  0.2161  1.0204  1.0902
18606TIP3    H277234   1.114   3.972   6.139  0.1572  1.7630  1.9767
18607TIP3   OH277235   3.865   5.722   2.792 -0.0666 -0.4491  0.2237
18607TIP3    H177236   3.829   5.644   2.833 -0.0751 -1.1727 -1.0972
18607TIP3    H277237   3.791   5.781   2.780 -0.6903 -1.5360 -1.6062
18608TIP3   OH277238   2.217   3.270  11.434 -0.1545 -0.3510  0.1181
18608TIP3    H177239   2.131   3.252  11.395 -0.0634 -1.6653  0.4974
18608TIP3    H277240   2.264   3.187  11.430  1.0298  0.2968  0.1243
18609TIP3   OH277241   6.462   5.985   0.859 -0.2400  0.1990 -0.3885
18609TIP3    H177242   6.472   6.078   0.839  0.0526 -0.1065 -1.7646
18609TIP3    H277243   6.368   5.969   0.852 -0.0451 -0.2014 -3.2028
18610TIP3   OH277244   1.029   6.653   5.668 -0.0231 -0.2313 -0.2452
18610TIP3    H177245   1.076   6.626   5.589  0.1908  0.1598 -0.2551
18610TIP3    H277246   0.941   6.675   5.636 -0.3280 -1.2829 -0.1742
18611TIP3   OH277247   5.773   1.916  11.907 -0.6768  1.2661  0.0824
18611TIP3    H177248   5.792   1.934  11.815  0.1883  2.1465  0.4188
18611TIP3    H277249   5.677   1.920  11.913 -0.8671 -0.3961 -1.0799
18612TIP3   OH277250   3.981   0.132   2.077  0.1629 -0.5143  0.5644
18612TIP3    H177251   3.916   0.133   2.147 -1.6342  3.4401 -0.8576
18612TIP3    H277252   3.935   0.094   2.002  0.3571 -0.1552  0.2564
18613TIP3   OH277253   5.766   1.901  15.093 -0.1261  0.3878 -0.3599
18613TIP3    H177254   5.794   1.882  15.183 -0.7518  0.2228 -0.1908
18613TIP3    H277255   5.836   1.867  15.038  0.5760  1.0741  0.0838
18614TIP3   OH277256   5.202   1.321   5.027  0.1173  0.8696  0.2375
18614TIP3    H177257   5.159   1.279   4.953 -0.4324  0.0790  0.9825
18614TIP3    H277258   5.293   1.332   5.000 -0.1271  0.7861 -0.6241
18615TIP3   OH277259   1.473   2.615  13.379 -0.3050  0.0168  0.1462
18615TIP3    H177260   1.400   2.652  13.330 -0.4874  1.9813  1.7674
18615TIP3    H277261   1.536   2.687  13.388  1.9984 -1.6455 -1.3465
18616TIP3   OH277262   1.366   5.592   2.311  0.5776  0.6037 -0.4260
18616TIP3    H177263   1.417   5.611   2.389  0.3618  0.0309 -0.1442
18616TIP3    H277264   1.309   5.668   2.300 -0.2041  0.1852  0.6330
18617TIP3   OH277265   1.385   6.115   1.615 -0.2085 -0.0478 -0.4658
18617TIP3    H177266   1.388   6.050   1.544  0.9379  0.2840 -0.7290
18617TIP3    H277267   1.466   6.102   1.663 -0.7344  0.0899  0.4943
18618TIP3   OH277268   3.855   6.191   5.302  0.1888  0.2803  0.1394
18618TIP3    H177269   3.787   6.217   5.364  0.2519 -0.6464  0.6191
18618TIP3    H277270   3.929   6.165   5.357  0.4854  0.0823 -0.3433
18619TIP3   OH277271   4.634   1.387  16.131 -0.1377  0.1963  0.4277
18619TIP3    H177272   4.694   1.399  16.058  0.3631  1.7176  1.0563
18619TIP3    H277273   4.547   1.409  16.096 -0.1943 -0.9278 -0.1838
18620TIP3   OH277274   1.303   3.555   2.116 -0.2422  0.3688  0.4834
18620TIP3    H177275   1.255   3.634   2.142 -1.1550  0.0502 -0.1931
18620TIP3    H277276   1.237   3.486   2.114  0.3214 -0.1615 -0.0876
18621TIP3   OH277277   3.112   2.027   6.297  0.4180 -0.2858  0.7869
18621TIP3    H177278   3.192   1.996   6.339  0.3427 -0.0582  1.1033
18621TIP3    H277279   3.042   1.974   6.335  0.3574 -0.1214  0.9079
18622TIP3   OH277280   4.707   2.769   1.204  0.5293  0.3236  0.8898
18622TIP3    H177281   4.658   2.725   1.274 -0.1515  0.2864  0.4016
18622TIP3    H277282   4.750   2.843   1.248  0.0473  0.3445  1.3374
18623TIP3   OH277283   1.351   5.792  11.834 -0.1658 -0.5663  0.0427
18623TIP3    H177284   1.295   5.792  11.912 -0.3417 -0.4816 -0.0814
18623TIP3    H277285   1.309   5.731  11.774  0.3088 -1.0975  0.2490
18624TIP3   OH277286   1.087   0.335   3.523  0.1015  0.4226 -0.7495
18624TIP3    H177287   1.095   0.430   3.532 -1.4175  0.5155 -0.1260
18624TIP3    H277288   1.153   0.300   3.584  0.1577  1.0745 -0.4250
18625TIP3   OH277289   4.368   0.896   1.135 -0.5089 -0.7051 -0.0285
18625TIP3    H177290   4.433   0.881   1.067  1.4936  3.1220  0.7714
18625TIP3    H277291   4.415   0.879   1.217 -1.8870 -2.0470  0.5202
18626TIP3   OH277292   2.999   6.155  15.549 -0.2247 -0.0059 -0.1400
18626TIP3    H177293   3.007   6.239  15.504 -0.2718  0.1727  0.1828
18626TIP3    H277294   3.019   6.175  15.640  1.4228 -0.6457 -0.3171
18627TIP3   OH277295   2.825   3.265  12.253 -0.2072  0.0334  0.1793
18627TIP3    H177296   2.866   3.291  12.171  0.9336 -0.0741  0.7020
18627TIP3    H277297   2.813   3.347  12.301  0.0904 -0.0092  0.3315
18628TIP3   OH277298   6.394   6.493   5.908  0.1776 -0.1011  0.3299
18628TIP3    H177299   6.432   6.519   5.824  1.0842 -2.4062 -0.0344
18628TIP3    H277300   6.464   6.509   5.972  0.7683 -1.5952  0.0925
18629TIP3   OH277301   3.698   1.125   5.190  0.1953 -0.4355  0.2882
18629TIP3    H177302   3.776   1.161   5.231 -0.8897  0.7922  1.3637
18629TIP3    H277303   3.692   1.171   5.106 -0.0387  0.4069  0.7518
18630TIP3   OH277304   0.720   4.285  14.239 -0.7287  0.2366  0.2782
18630TIP3    H177305   0.748   4.194  14.246  0.2285  0.1788 -2.9061
18630TIP3    H277306   0.801   4.336  14.248 -0.6799  0.5168 -1.4781
18631TIP3   OH277307   5.704   1.924   4.150 -0.0349  0.1767 -0.0425
18631TIP3    H177308   5.771   1.883   4.206  1.3295  2.3190  0.0161
18631TIP3    H277309   5.678   2.002   4.198 -1.1799  0.3910 -0.9867
18632TIP3   OH277310   4.677   0.884  15.350  0.4858 -0.2762 -0.1844
18632TIP3    H177311   4.651   0.903  15.260 -1.7091 -0.7641  0.2791
18632TIP3    H277312   4.651   0.962  15.399 -0.9402 -1.0891  0.4233
18633TIP3   OH277313   3.028   1.327  16.690  0.1671 -0.4565  0.2055
18633TIP3    H177314   2.936   1.304  16.702  0.3908 -0.9754  1.0043
18633TIP3    H277315   3.036   1.415  16.727 -0.0267 -0.3690  0.0408
18634TIP3   OH277316   2.764   5.282   5.265 -0.2542 -0.0834  0.0164
18634TIP3    H177317   2.799   5.199   5.230  1.2645  0.4670  0.1527
18634TIP3    H277318   2.755   5.266   5.359  0.5572  0.0701  0.1251
18635TIP3   OH277319   5.474   5.661   5.217 -0.3197  0.0408 -0.1277
18635TIP3    H177320   5.396   5.706   5.249  0.8212  2.2299 -0.2434
18635TIP3    H277321   5.542   5.685   5.280  0.7509  0.0485 -1.2672
18636TIP3   OH277322   5.330   0.291  16.208  0.3551 -0.1532 -0.3730
18636TIP3    H177323   5.237   0.297  16.229  0.7104  0.2567  1.2207
18636TIP3    H277324   5.369   0.248  16.284  1.7808  1.6964  0.0096
18637TIP3   OH277325   1.505   4.821  13.363  0.0726  0.2833 -0.0078
18637TIP3    H177326   1.476   4.908  13.337 -0.7636 -0.4296 -1.6101
18637TIP3    H277327   1.548   4.785  13.285  0.1819 -0.8348  0.5424
18638TIP3   OH277328   4.382   4.900  13.673  0.0525 -0.8014 -0.0293
18638TIP3    H177329   4.334   4.947  13.741  1.1883 -0.8494  0.8250
18638TIP3    H277330   4.474   4.915  13.694  0.4201 -1.7306 -0.9273
18639TIP3   OH277331   2.140   1.317   5.233  0.4412 -0.4190  0.1298
18639TIP3    H177332   2.098   1.292   5.315 -3.2809  1.3790 -1.0201
18639TIP3    H277333   2.204   1.247   5.217 -1.4309 -2.9520  2.5885
18640TIP3   OH277334   0.096   0.802   5.811 -0.2665  0.3482  0.2355
18640TIP3    H177335   0.074   0.709   5.807  2.0505 -0.1944 -2.7308
18640TIP3    H277336   0.154   0.810   5.886 -1.3894 -0.3070  1.2116
18641TIP3   OH277337   3.771   5.908  14.262  0.4555  0.2111  0.3668
18641TIP3    H177338   3.724   5.989  14.281  1.3115  0.9181 -0.4191
18641TIP3    H277339   3.855   5.918  14.307  0.7107 -0.0785 -0.0397
18642TIP3   OH277340   2.863   3.289  11.495 -0.4596 -0.2520 -0.5317
18642TIP3    H177341   2.836   3.285  11.403 -2.6585 -0.4843  0.0541
18642TIP3    H277342   2.853   3.380  11.520 -0.1365 -0.2383 -0.4453
18643TIP3   OH277343   5.776   1.133   3.634  0.1953  0.6137 -0.7477
18643TIP3    H177344   5.808   1.056   3.682  1.1802  0.3759 -1.7568
18643TIP3    H277345   5.812   1.208   3.682  1.1362  0.3795 -1.0675
18644TIP3   OH277346   6.484   4.194   0.923  0.0542  0.7770  0.2454
18644TIP3    H177347   6.433   4.125   0.965 -0.4684  1.0368  0.0556
18644TIP3    H277348   6.574   4.178   0.950  0.1689 -0.8750 -1.0382
18645TIP3   OH277349   5.620   3.287   0.313  0.3100  0.6284 -0.3270
18645TIP3    H177350   5.672   3.360   0.282  1.3076 -0.9810 -2.7531
18645TIP3    H277351   5.541   3.289   0.259 -0.0934  0.4384  0.2411
18646TIP3   OH277352   3.350   0.285   5.477  0.8818 -0.0690  0.2295
18646TIP3    H177353   3.352   0.374   5.443 -0.0912  0.3200  1.1228
18646TIP3    H277354   3.343   0.229   5.399 -0.0309  0.7244 -0.2760
18647TIP3   OH277355   6.180   4.223  14.812  0.2067 -0.4680  0.0695
18647TIP3    H177356   6.217   4.196  14.896  0.5525  1.7931  0.6997
18647TIP3    H277357   6.087   4.202  14.819  0.4046 -1.2404  0.5837
18648TIP3   OH277358   3.444   1.118  10.740 -0.4181  0.0594  0.2149
18648TIP3    H177359   3.508   1.049  10.728 -2.5784 -1.9015 -0.8152
18648TIP3    H277360   3.495   1.194  10.767  2.5239 -0.8974 -2.1282
18649TIP3   OH277361   5.573   2.033   1.114  0.3719  0.1228 -0.1471
18649TIP3    H177362   5.612   1.956   1.073  1.4436  1.6098 -2.1277
18649TIP3    H277363   5.623   2.046   1.194  2.2346  0.3945 -1.2754
18650TIP3   OH277364   6.260   0.297   0.571  0.1677 -0.0644 -0.2760
18650TIP3    H177365   6.180   0.253   0.601 -0.0909  0.3801 -0.2983
18650TIP3    H277366   6.282   0.357   0.643 -0.2005  0.6809 -0.7680
18651TIP3   OH277367   0.258   1.092   2.127 -0.7390  0.0770 -0.2678
18651TIP3    H177368   0.195   1.024   2.105 -1.0018  0.2281  0.0162
18651TIP3    H277369   0.205   1.170   2.144 -0.4484  0.3207 -0.4680
18652TIP3   OH277370   1.645   0.767   0.213  0.0696 -0.1677  0.3795
18652TIP3    H177371   1.715   0.818   0.254  2.0496 -0.7865 -2.0405
18652TIP3    H277372   1.665   0.676   0.235  0.1290 -0.3631 -0.4681
18653TIP3   OH277373   3.928   1.320   0.409 -0.4726  0.3136  0.2637
18653TIP3    H177374   3.872   1.314   0.332 -0.4947  1.4112  0.1719
18653TIP3    H277375   4.015   1.299   0.377 -0.7123 -0.7888  0.2809
18654TIP3   OH277376   2.669   5.783   3.508 -0.2871  0.5463  0.1143
18654TIP3    H177377   2.582   5.820   3.525 -0.8554 -1.1631  1.3128
18654TIP3    H277378   2.729   5.856   3.518 -1.5850  1.8154 -0.9194
18655TIP3   OH277379   5.621   3.596   4.526 -0.3142 -0.3240  0.3581
18655TIP3    H177380   5.612   3.681   4.482  1.4175 -0.3220 -0.0378
18655TIP3    H277381   5.559   3.600   4.598  0.0261  1.4400  0.5930
18656TIP3   OH277382   2.105   3.463   5.245 -0.6858  0.6847 -0.0527
18656TIP3    H177383   2.041   3.459   5.174 -0.3795 -2.0276 -0.2776
18656TIP3    H277384   2.054   3.453   5.324 -0.6649 -0.5224 -0.1764
18657TIP3   OH277385   6.382   3.584   0.225  0.2108 -0.3351  0.2049
18657TIP3    H177386   6.444   3.540   0.166  1.3682  0.7613  0.5549
18657TIP3    H277387   6.435   3.650   0.269 -1.2199  0.5873  0.5838
18658TIP3   OH277388   6.556   2.870  11.699 -0.1201  0.0851  0.0471
18658TIP3    H177389   6.619   2.824  11.754 -1.6366 -0.3067  1.5184
18658TIP3    H277390   6.563   2.961  11.726  0.7328  0.2724 -0.7431
18659TIP3   OH277391   2.977   3.326   2.979  0.0693  0.2759  0.2408
18659TIP3    H177392   3.052   3.337   2.920  0.6900  0.4247  1.0440
18659TIP3    H277393   2.968   3.231   2.988  1.4744  0.2494  1.7541
18660TIP3   OH277394   1.946   5.498   5.218 -0.3698  0.1145  0.3507
18660TIP3    H177395   1.974   5.437   5.286  0.9039  0.7106  0.3876
18660TIP3    H277396   2.019   5.560   5.209 -1.2304  1.0717 -0.3431
18661TIP3   OH277397   0.246   0.273  15.233  0.0494  0.4540  0.0626
18661TIP3    H177398   0.316   0.335  15.211 -0.6266  1.3279  0.3061
18661TIP3    H277399   0.166   0.326  15.232 -0.4224 -0.1976  1.2685
18662TIP3   OH277400   5.970   1.879   3.706  0.1732  0.1965 -0.2365
18662TIP3    H177401   6.009   1.793   3.694 -0.2443  0.0596 -0.6309
18662TIP3    H277402   5.979   1.896   3.800  1.6723  0.4132 -0.3909
18663TIP3   OH277403   2.463   0.461  12.448 -0.1357  0.1055  0.4173
18663TIP3    H177404   2.401   0.412  12.394 -1.1699 -0.2884  1.8922
18663TIP3    H277405   2.452   0.425  12.536  0.3725  1.7645  1.2070
18664TIP3   OH277406   1.352   6.225  11.680  0.9844  0.0603 -0.0121
18664TIP3    H177407   1.342   6.133  11.703  0.0444  0.1227 -0.1196
18664TIP3    H277408   1.264   6.253  11.655  1.0240  1.2965  1.1376
18665TIP3   OH277409   3.093   2.366  16.249  0.1717  0.0605  0.1340
18665TIP3    H177410   3.021   2.302  16.245  0.4017 -0.2697  1.0574
18665TIP3    H277411   3.156   2.334  16.185 -1.0226  1.0387 -1.6193
18666TIP3   OH277412   6.351   5.363   4.815  0.1967 -0.3790  0.2900
18666TIP3    H177413   6.362   5.301   4.886  0.6129 -1.2987 -0.5615
18666TIP3    H277414   6.440   5.383   4.786  0.0596  0.4422  0.4040
18667TIP3   OH277415   3.499   0.566  12.022 -0.6549  0.6812  0.2105
18667TIP3    H177416   3.595   0.558  12.019 -0.6942  0.1940  0.1396
18667TIP3    H277417   3.477   0.630  11.954 -0.3290  1.2960  0.6704
18668TIP3   OH277418   0.010   4.055   1.155 -0.5720 -0.6397  0.2009
18668TIP3    H177419   0.070   4.129   1.161 -0.5418 -0.7149  0.9304
18668TIP3    H277420  -0.064   4.080   1.210 -0.4277 -1.2766  0.6934
18669TIP3   OH277421   0.085   6.050   0.741 -0.6883  0.2115 -0.1322
18669TIP3    H177422   0.033   5.973   0.720 -0.1760 -0.5286  1.1951
18669TIP3    H277423   0.028   6.124   0.723 -1.4557 -0.5057 -0.6922
18670TIP3   OH277424   5.006   0.876  16.252 -0.2056 -0.0980  0.0644
18670TIP3    H177425   4.931   0.834  16.292 -0.2072  0.5170  0.7235
18670TIP3    H277426   4.994   0.862  16.158 -0.8623 -0.4511  0.1989
18671TIP3   OH277427   5.494   4.533   0.133 -0.4927  0.4843 -0.1113
18671TIP3    H177428   5.434   4.527   0.058  2.2522  1.6270 -2.5728
18671TIP3    H277429   5.546   4.612   0.116  1.4282 -0.1944  2.1332
18672TIP3   OH277430   6.067   0.104   4.523 -0.1921  0.1987 -0.2959
18672TIP3    H177431   5.995   0.046   4.500  0.7232 -1.7478  1.4203
18672TIP3    H277432   6.146   0.051   4.510  0.6550  0.8957  1.6617
18673TIP3   OH277433   2.010   6.139  15.380 -0.1557  0.1042 -0.2264
18673TIP3    H177434   2.084   6.150  15.440  0.3123 -3.4850  0.1189
18673TIP3    H277435   2.050   6.141  15.293  0.5407 -2.2563 -0.0262
18674TIP3   OH277436   4.619   6.337   5.786  0.5170 -0.0510 -0.1177
18674TIP3    H177437   4.558   6.284   5.838  0.9848 -0.7543 -0.2590
18674TIP3    H277438   4.615   6.298   5.698  0.7448  0.2564 -0.2644
18675TIP3   OH277439   2.989   3.940  15.381 -0.2262  0.0858  0.1740
18675TIP3    H177440   2.940   3.958  15.461 -0.9137 -1.1000  0.0388
18675TIP3    H277441   2.930   3.886  15.329  1.1119 -1.1101 -0.1400
18676TIP3   OH277442   2.829   4.959   6.182 -0.0987  0.4688  0.0404
18676TIP3    H177443   2.816   5.040   6.134 -3.1133 -0.7980 -1.5412
18676TIP3    H277444   2.757   4.955   6.245 -1.3902 -1.8587 -1.4119
18677TIP3   OH277445   1.523   2.882  17.131  0.3678  0.1560  0.2773
18677TIP3    H177446   1.575   2.828  17.072  0.0345  1.0743 -0.8758
18677TIP3    H277447   1.454   2.823  17.162  0.8327 -0.4688  0.1573
18678TIP3   OH277448   1.079   5.356  15.845 -0.5172 -0.0954  0.3467
18678TIP3    H177449   1.058   5.354  15.938  0.9616  0.3467  0.7099
18678TIP3    H277450   1.147   5.422  15.837 -2.5261  1.9162 -1.4899
18679TIP3   OH277451   0.957   6.544  13.420  0.8330  0.2295 -0.4185
18679TIP3    H177452   0.936   6.619  13.365  2.0305  0.8642 -0.0379
18679TIP3    H277453   0.992   6.582  13.501 -0.7522 -0.6736  0.7626
18680TIP3   OH277454   1.624   6.247  17.238  0.4347  0.5798 -0.0417
18680TIP3    H177455   1.689   6.212  17.300 -2.2024 -1.7864  1.6650
18680TIP3    H277456   1.644   6.202  17.156  1.0927  0.0589  0.3860
18681TIP3   OH277457   0.280   4.914  12.015  0.5919  0.0791 -0.4454
18681TIP3    H177458   0.375   4.915  12.004  0.8313  4.6673 -0.1723
18681TIP3    H277459   0.246   4.942  11.930 -0.1008  2.1513  0.4396
18682TIP3   OH277460   3.543   2.364   2.231 -0.2119  0.0275 -0.1019
18682TIP3    H177461   3.560   2.328   2.319  0.8459  0.7790  0.0239
18682TIP3    H277462   3.629   2.396   2.202 -0.6847  0.3722 -1.1478
18683TIP3   OH277463   0.897   1.348   1.275 -0.1907  0.1261  0.2312
18683TIP3    H177464   0.809   1.315   1.256 -0.0848  1.0869 -2.3095
18683TIP3    H277465   0.883   1.420   1.337 -1.2422  0.5268 -0.4588
18684TIP3   OH277466   1.881   5.774   5.417  0.2912  0.2417  0.1956
18684TIP3    H177467   1.962   5.820   5.439  0.0560  0.4061  0.7440
18684TIP3    H277468   1.898   5.735   5.332  2.1996 -2.5655  1.7101
18685TIP3   OH277469   6.428   4.201  12.810 -0.0334 -0.1355  0.8331
18685TIP3    H177470   6.425   4.142  12.735 -0.9841 -0.1677  0.8867
18685TIP3    H277471   6.398   4.285  12.776 -0.6150 -0.1892  1.2032
18686TIP3   OH277472   0.663   3.036  11.130 -0.1300  0.1233  0.0727
18686TIP3    H177473   0.612   2.960  11.103  1.6445 -0.7049 -1.1580
18686TIP3    H277474   0.651   3.042  11.224 -0.5544 -1.5117  0.1464
18687TIP3   OH277475   1.213   5.701  13.898  0.3776 -0.5713  0.1482
18687TIP3    H177476   1.203   5.634  13.965  1.3005 -0.3613  0.5125
18687TIP3    H277477   1.263   5.659  13.829 -0.1542 -0.6382 -0.2045
18688TIP3   OH277478   0.264   3.549   0.449 -0.7444 -0.7662  0.1236
18688TIP3    H177479   0.284   3.605   0.524  0.3561 -0.3392 -0.4673
18688TIP3    H277480   0.339   3.490   0.442 -0.6230 -0.5141 -0.8892
18689TIP3   OH277481   5.123   2.234  16.439  0.2800  0.3079  0.5840
18689TIP3    H177482   5.159   2.155  16.398 -0.2360  1.0976 -1.5229
18689TIP3    H277483   5.149   2.227  16.531  1.8587 -1.3756  0.0766
18690TIP3   OH277484   5.812   2.113   6.427  0.0149  0.4380  0.0299
18690TIP3    H177485   5.830   2.020   6.416  0.6113  0.4835  0.5871
18690TIP3    H277486   5.827   2.130   6.520 -0.1441  1.0806 -0.0550
18691TIP3   OH277487   2.596   6.530  14.859 -0.2796  0.0020  0.6976
18691TIP3    H177488   2.549   6.596  14.808 -3.2919 -2.4021  0.0993
18691TIP3    H277489   2.533   6.502  14.926  2.0651  0.0005  3.0765
18692TIP3   OH277490   0.957   3.723   5.143 -0.0464  0.1340 -0.0136
18692TIP3    H177491   0.892   3.655   5.122 -0.8074  0.9049 -0.2268
18692TIP3    H277492   1.020   3.719   5.072 -0.2190 -0.1932 -0.1521
18693TIP3   OH277493   1.321   0.165   2.942 -0.0140 -0.2287 -0.2804
18693TIP3    H177494   1.323   0.256   2.913  0.3412  0.4276  1.6504
18693TIP3    H277495   1.297   0.115   2.864  0.7106  1.4098 -1.6076
18694TIP3   OH277496   6.149   3.153   4.411  0.3785  0.0551  0.4037
18694TIP3    H177497   6.122   3.100   4.486  1.7596 -0.9872  0.2091
18694TIP3    H277498   6.235   3.118   4.387  0.0857  0.5445 -1.4954
18695TIP3   OH277499   1.180   2.756   5.820 -0.4584  0.2826  0.3290
18695TIP3    H177500   1.110   2.701   5.785  0.2967 -0.5808  0.1345
18695TIP3    H277501   1.261   2.708   5.802  0.2370  1.4421  0.1790
18696TIP3   OH277502   2.850   0.999  15.174 -0.1948  0.0926 -0.2221
18696TIP3    H177503   2.816   1.003  15.264 -0.1857  0.5228 -0.2372
18696TIP3    H277504   2.945   1.000  15.185 -0.0850  3.9337 -0.3429
18697TIP3   OH277505   1.834   0.379  12.426 -0.1522 -0.0892 -0.0560
18697TIP3    H177506   1.810   0.297  12.382  1.4718  0.6557 -2.5068
18697TIP3    H277507   1.757   0.435  12.414 -0.7779 -0.8057  0.5017
18698TIP3   OH277508   3.885   2.577   0.857 -0.4687  0.0920 -0.0500
18698TIP3    H177509   3.895   2.672   0.850 -2.3822  0.4487  1.3152
18698TIP3    H277510   3.807   2.556   0.807  0.9530 -1.0968 -1.9193
18699TIP3   OH277511   4.705   2.371  13.101  0.3406 -0.4146  0.1168
18699TIP3    H177512   4.635   2.311  13.075 -0.3936  0.4169  0.1099
18699TIP3    H277513   4.673   2.412  13.182  0.1925  0.9424 -0.5871
18700TIP3   OH277514   6.457   1.062  13.902 -0.1856  0.0912  1.0354
18700TIP3    H177515   6.497   1.115  13.970  1.8545 -1.3534  1.0728
18700TIP3    H277516   6.531   1.017  13.860 -1.4796 -0.0316 -1.3061
18701TIP3   OH277517   4.517   1.565   4.146  0.0134 -0.1926  0.2491
18701TIP3    H177518   4.558   1.550   4.231 -1.1049  1.0121  1.0284
18701TIP3    H277519   4.582   1.534   4.083  2.0744  1.4676  1.4179
18702TIP3   OH277520   0.068   5.585  13.121  0.4452  0.2053 -0.1133
18702TIP3    H177521   0.074   5.652  13.190 -0.9143  0.7688 -0.5189
18702TIP3    H277522   0.018   5.514  13.160  1.4181 -0.3683  0.1308
18703TIP3   OH277523   2.996   0.740  13.368  0.1930  0.5778 -0.2326
18703TIP3    H177524   2.964   0.670  13.425  1.9414 -0.4134 -0.3728
18703TIP3    H277525   3.058   0.788  13.424 -0.4108  1.5401 -0.3788
18704TIP3   OH277526   6.099   1.658   0.959  0.5484 -0.2204 -0.1243
18704TIP3    H177527   6.129   1.747   0.975  0.2338 -0.4555  2.1838
18704TIP3    H277528   6.014   1.668   0.916  1.5601  0.5055 -2.0612
18705TIP3   OH277529   4.614   1.305   3.100  0.1404  0.8436  0.0249
18705TIP3    H177530   4.567   1.325   3.018 -1.7453 -0.3860  0.7273
18705TIP3    H277531   4.548   1.260   3.154  1.2771  1.8226  2.3132
18706TIP3   OH277532   1.653   2.639   6.191  0.3196 -0.8097  0.3817
18706TIP3    H177533   1.563   2.634   6.224  0.3837  0.2307  0.7839
18706TIP3    H277534   1.674   2.733   6.197  1.2865 -0.9929 -0.0870
18707TIP3   OH277535   4.248   5.239   1.711 -0.2053  0.2553  0.0982
18707TIP3    H177536   4.201   5.303   1.658 -1.4785 -0.7159  0.0002
18707TIP3    H277537   4.317   5.206   1.654  0.9559  2.0479  0.3986
18708TIP3   OH277538   1.822   1.437   4.911 -0.4804 -0.7021  0.0731
18708TIP3    H177539   1.802   1.455   5.003 -0.8326 -0.6527 -0.0091
18708TIP3    H277540   1.915   1.458   4.902 -0.9998  1.7632 -0.1785
18709TIP3   OH277541   1.996   3.633   2.273 -0.1092 -0.1727  0.4846
18709TIP3    H177542   1.968   3.720   2.246  1.9208  0.0896 -1.0347
18709TIP3    H277543   2.088   3.644   2.299 -0.0594 -1.7170  1.0851
18710TIP3   OH277544   5.337   5.835  14.225 -0.4857 -0.0447  0.2959
18710TIP3    H177545   5.387   5.781  14.287 -0.0622 -0.3057 -0.2694
18710TIP3    H277546   5.249   5.797  14.226 -0.4620 -0.0946  0.6836
18711TIP3   OH277547   2.122   6.441  17.196 -0.3951 -0.1564  0.1077
18711TIP3    H177548   2.178   6.498  17.249 -0.0415  0.1964 -0.6360
18711TIP3    H277549   2.057   6.408  17.258  0.0105  0.2498  0.7633
18712TIP3   OH277550   0.204   6.559   0.955 -0.0231 -0.2883  0.1758
18712TIP3    H177551   0.270   6.490   0.955  1.2497  0.8792 -0.1358
18712TIP3    H277552   0.174   6.565   0.864 -0.4800 -0.7464  0.2962
18713TIP3   OH277553   2.784   3.450   4.847  0.2134 -0.0704 -0.3558
18713TIP3    H177554   2.856   3.508   4.874 -0.0583 -0.7635  2.0901
18713TIP3    H277555   2.797   3.370   4.899 -1.4787 -0.8009 -0.9849
18714TIP3   OH277556   1.624   2.762   3.704  0.4372 -0.2710 -0.3482
18714TIP3    H177557   1.686   2.827   3.739  0.8468 -1.3413  1.0019
18714TIP3    H277558   1.676   2.711   3.642  0.3725  0.0735 -0.6887
18715TIP3   OH277559   5.816   0.237   2.490  0.5755  0.7060  0.2671
18715TIP3    H177560   5.822   0.165   2.427  0.6663  0.0504  1.0039
18715TIP3    H277561   5.723   0.256   2.495 -0.1635 -2.5540  3.4716
18716TIP3   OH277562   4.947   2.352   5.070  0.0244 -0.3627 -0.4245
18716TIP3    H177563   5.008   2.350   5.144  1.5062  1.4501 -1.4934
18716TIP3    H277564   4.936   2.445   5.051 -2.4385 -0.6830 -0.8441
18717TIP3   OH277565   2.362   3.680  11.635 -0.2671 -0.3124 -0.0136
18717TIP3    H177566   2.361   3.730  11.553 -1.2143  1.0022  0.7585
18717TIP3    H277567   2.286   3.623  11.630  0.7966 -1.7136 -0.8819
18718TIP3   OH277568   5.840   2.561   0.157 -0.4586 -0.2258 -0.0101
18718TIP3    H177569   5.797   2.532   0.076 -0.0420 -1.4406  0.1867
18718TIP3    H277570   5.837   2.657   0.152  1.5681 -0.1869 -2.5827
18719TIP3   OH277571   0.748   0.900  11.859 -0.4642  0.7103 -0.5087
18719TIP3    H177572   0.822   0.848  11.828 -0.0414  1.6195 -1.0403
18719TIP3    H277573   0.687   0.902  11.785 -1.5091 -0.8461  0.2340
18720TIP3   OH277574   1.870   4.312  15.486 -0.1225 -0.4042  0.0040
18720TIP3    H177575   1.832   4.228  15.514 -0.7717 -0.7339 -1.7357
18720TIP3    H277576   1.948   4.287  15.435  0.2875  0.1079  0.3691
18721TIP3   OH277577   5.957   2.864   0.660 -0.3807 -0.3154 -0.3577
18721TIP3    H177578   5.876   2.911   0.682 -0.9702 -0.8682 -1.2521
18721TIP3    H277579   6.024   2.905   0.713 -1.5495 -1.0459  1.8149
18722TIP3   OH277580   4.975   3.742   5.795 -0.2261 -0.4226 -0.0614
18722TIP3    H177581   5.028   3.663   5.783 -3.7985 -2.9411 -0.7376
18722TIP3    H277582   4.996   3.771   5.884  1.9371 -1.4316 -0.1565
18723TIP3   OH277583   6.469   4.596  14.820  0.2825 -0.2007 -0.4868
18723TIP3    H177584   6.460   4.500  14.819  1.5415 -0.3556  0.4385
18723TIP3    H277585   6.469   4.619  14.912 -0.2752  0.7348 -0.7139
18724TIP3   OH277586   0.269   5.044   2.339 -0.3809 -0.1207  0.0343
18724TIP3    H177587   0.327   5.050   2.264 -0.2317  2.7204  0.2862
18724TIP3    H277588   0.189   5.087   2.312 -1.5348 -1.8572  0.5094
18725TIP3   OH277589   5.432   3.145  17.316 -0.0540 -0.6036 -0.4438
18725TIP3    H177590   5.478   3.082  17.262  0.3201 -0.5558 -0.1898
18725TIP3    H277591   5.409   3.096  17.395 -0.4154 -0.6201 -0.5594
18726TIP3   OH277592   5.067   5.529  13.542  0.1418 -0.0434  0.2793
18726TIP3    H177593   5.063   5.615  13.583 -1.7002  0.4024 -0.7133
18726TIP3    H277594   5.156   5.524  13.506  0.0779  1.7675 -0.2676
18727TIP3   OH277595   0.429   2.342   5.608 -0.2003  0.0829  0.1459
18727TIP3    H177596   0.361   2.316   5.670 -0.1284 -0.7515 -0.1099
18727TIP3    H277597   0.382   2.361   5.527 -0.1586 -0.2498  0.0417
18728TIP3   OH277598   5.185   5.480  15.181 -0.2456  0.2060  0.6959
18728TIP3    H177599   5.258   5.489  15.120  0.5262  1.1880  1.7220
18728TIP3    H277600   5.226   5.459  15.265 -1.1537  0.5356  1.2408
18729TIP3   OH277601   1.675   3.420  15.876 -0.2966  0.3927 -0.3888
18729TIP3    H177602   1.745   3.366  15.913  0.9599  1.8477 -0.5279
18729TIP3    H277603   1.651   3.376  15.795 -1.4319 -1.5509  0.9259
18730TIP3   OH277604   2.410   2.479   4.454  0.5930 -0.4627 -0.2086
18730TIP3    H177605   2.445   2.477   4.543 -0.9030 -0.3147  0.4167
18730TIP3    H277606   2.361   2.561   4.449  2.1308  0.4477 -1.8017
18731TIP3   OH277607   4.401   2.843   1.196 -0.1444 -0.4161 -0.4144
18731TIP3    H177608   4.446   2.878   1.119  1.2208 -0.3124  0.4028
18731TIP3    H277609   4.464   2.852   1.267 -1.8609  0.8073  1.0437
18732TIP3   OH277610   1.929   5.507  12.387 -0.2171 -0.7712 -0.0811
18732TIP3    H177611   2.021   5.481  12.384  0.1792  0.6549 -1.5164
18732TIP3    H277612   1.928   5.582  12.447 -0.2748 -0.2590 -0.7093
18733TIP3   OH277613   5.131   6.330   2.200 -0.0565  0.1557 -0.1036
18733TIP3    H177614   5.218   6.299   2.224  0.3656  0.7427 -0.8566
18733TIP3    H277615   5.125   6.316   2.106  0.0934  2.1680 -0.4568
18734TIP3   OH277616   4.340   5.257  12.431 -0.1145 -0.0717 -0.4657
18734TIP3    H177617   4.389   5.234  12.510 -0.7535 -1.3432 -0.4131
18734TIP3    H277618   4.385   5.211  12.360  0.9782  1.7482 -1.0165
18735TIP3   OH277619   0.450   3.460   3.017  0.3927 -0.1336  0.0975
18735TIP3    H177620   0.358   3.488   3.009  0.5732  0.0238 -1.8373
18735TIP3    H277621   0.449   3.393   3.085 -1.2980 -0.7134 -0.4525
18736TIP3   OH277622   0.229   2.442  12.007 -0.1456 -0.5253 -0.4463
18736TIP3    H177623   0.143   2.422  11.971 -0.3517  0.7670 -0.7030
18736TIP3    H277624   0.279   2.361  11.997 -1.2289 -1.1882 -0.5812
18737TIP3   OH277625   3.327   3.716  11.281  0.0557 -0.2440  0.1885
18737TIP3    H177626   3.301   3.792  11.229 -0.6289 -0.7426 -0.2109
18737TIP3    H277627   3.421   3.707  11.266  0.8974  2.5269  2.8583
18738TIP3   OH277628   5.596   1.320   1.371 -0.1021 -0.2767  0.8317
18738TIP3    H177629   5.687   1.291   1.380  0.2727  0.7359  0.5142
18738TIP3    H277630   5.544   1.250   1.409  0.8844 -0.3265  2.1801
18739TIP3   OH277631   4.011   4.668   5.151  0.1892  0.1308 -0.2737
18739TIP3    H177632   3.967   4.743   5.111 -2.0084 -1.4229 -0.9392
18739TIP3    H277633   3.951   4.595   5.139  2.3756 -1.8567  0.0414
18740TIP3   OH277634   6.613   1.551   4.226 -0.2082 -0.0072 -0.0495
18740TIP3    H177635   6.583   1.487   4.291 -0.7337  0.1432 -0.1347
18740TIP3    H277636   6.599   1.636   4.269  0.9504  0.0423  0.2582
18741TIP3   OH277637   6.537   6.456  16.437  0.7372  0.5218 -0.1323
18741TIP3    H177638   6.462   6.413  16.396 -0.3545  2.1566  0.0564
18741TIP3    H277639   6.501   6.537  16.475  2.7365  1.8030 -0.7870
18742TIP3   OH277640   6.530   3.876  17.034 -0.3681 -0.0152 -0.5826
18742TIP3    H177641   6.504   3.915  16.950 -0.1933 -0.1375 -0.6941
18742TIP3    H277642   6.454   3.889  17.091 -0.6124 -0.2231 -0.8563
18743TIP3   OH277643   4.740   3.545   0.577 -0.0926 -0.4080 -0.1915
18743TIP3    H177644   4.653   3.560   0.614  0.3565  0.8723  0.4180
18743TIP3    H277645   4.787   3.497   0.645 -0.1422 -0.5986 -0.2903
18744TIP3   OH277646   2.842   3.838   4.040  0.0098 -0.1029 -0.3393
18744TIP3    H177647   2.922   3.887   4.056 -0.6322  0.4609  1.3615
18744TIP3    H277648   2.864   3.748   4.065 -0.3647  0.3847  1.9471
18745TIP3   OH277649   2.499   1.315  16.553  0.6929  0.0370  0.2194
18745TIP3    H177650   2.450   1.396  16.567  1.5832  0.6990 -0.4036
18745TIP3    H277651   2.434   1.254  16.518  0.0719  0.5590  0.4280
18746TIP3   OH277652   4.855   0.378   3.956 -0.2612  0.3657  0.2339
18746TIP3    H177653   4.892   0.291   3.939 -0.4501  0.2313  0.4998
18746TIP3    H277654   4.899   0.436   3.893 -0.5656 -0.0214 -0.3445
18747TIP3   OH277655   3.551   3.817   5.176 -0.4646 -0.1854 -0.0205
18747TIP3    H177656   3.627   3.761   5.158 -0.3032  0.6383 -2.1667
18747TIP3    H277657   3.475   3.763   5.153 -0.4800 -0.4938  0.7118
18748TIP3   OH277658   5.048   4.230  13.905  0.0173 -0.3110 -0.3823
18748TIP3    H177659   5.088   4.224  13.991  1.0700 -0.9150 -0.8897
18748TIP3    H277660   5.030   4.139  13.880  1.8172 -0.3470 -1.7161
18749TIP3   OH277661   4.372   3.890  12.114  0.1544 -0.0848 -0.1936
18749TIP3    H177662   4.422   3.828  12.061 -0.7633  0.7817 -2.2067
18749TIP3    H277663   4.281   3.863  12.102 -0.0737 -0.0700  1.2943
18750TIP3   OH277664   2.264   4.897  12.477 -0.7807 -0.4674  0.0045
18750TIP3    H177665   2.217   4.954  12.417  0.0890 -0.5755 -0.8105
18750TIP3    H277666   2.283   4.819  12.426  0.1182 -0.4946  0.3607
18751TIP3   OH277667   3.622   5.058  15.703  0.0344 -0.3488  0.4400
18751TIP3    H177668   3.620   5.080  15.796  5.1424  0.9099  0.5286
18751TIP3    H277669   3.644   4.965  15.701  1.0357 -0.1271  0.5737
18752TIP3   OH277670   3.059   2.470  17.381  0.0797 -0.0084 -0.0290
18752TIP3    H177671   3.103   2.546  17.343 -0.1984  0.8202  1.2564
18752TIP3    H277672   2.972   2.471  17.342  0.3521 -0.1885 -0.6656
18753TIP3   OH277673   5.775   0.326   5.872 -0.5200  0.1451  0.0977
18753TIP3    H177674   5.741   0.373   5.948  1.1083  0.5148  0.6189
18753TIP3    H277675   5.717   0.249   5.864 -1.3408  0.6370  1.0671
18754TIP3   OH277676   2.132   6.177  15.797 -0.2219 -0.1519  0.2034
18754TIP3    H177677   2.177   6.156  15.715 -0.1928 -0.6258  0.3371
18754TIP3    H277678   2.059   6.232  15.770 -2.2331 -2.9826 -0.6076
18755TIP3   OH277679   1.198   3.097   3.642  0.1044  0.2756 -0.1909
18755TIP3    H177680   1.248   3.158   3.696  0.5001  1.3545 -1.7180
18755TIP3    H277681   1.116   3.085   3.690  0.3738  1.3205  0.5766
18756TIP3   OH277682   2.826   1.194   1.361  1.2738  0.3323 -0.7573
18756TIP3    H177683   2.900   1.189   1.299  1.1405 -1.7098 -0.8196
18756TIP3    H277684   2.796   1.284   1.355  2.0448  0.5135 -2.7926
18757TIP3   OH277685   2.970   5.568  12.881 -0.0203  0.0218 -0.0403
18757TIP3    H177686   3.026   5.492  12.892 -0.9063 -0.4686  1.3583
18757TIP3    H277687   2.903   5.541  12.818 -1.0256 -0.8112  1.3271
18758TIP3   OH277688   2.017   5.085   5.201 -0.0245 -0.0134  0.6007
18758TIP3    H177689   1.973   5.026   5.140  0.2789 -0.4658  0.8195
18758TIP3    H277690   1.948   5.116   5.259 -0.1538 -0.2737  0.5855
18759TIP3   OH277691   6.171   3.262  14.896  0.3958  0.3946 -0.1456
18759TIP3    H177692   6.107   3.322  14.857  0.8378  2.4397  2.0437
18759TIP3    H277693   6.250   3.314  14.904  1.7200 -1.4267 -0.7829
18760TIP3   OH277694   0.660   2.925   0.205 -0.0673 -0.0374 -0.3709
18760TIP3    H177695   0.567   2.902   0.213 -0.4036  1.3297 -0.2276
18760TIP3    H277696   0.689   2.937   0.295 -0.1374  0.9743 -0.4711
18761TIP3   OH277697   3.675   0.683   5.802  0.0459  0.3673  0.0680
18761TIP3    H177698   3.706   0.731   5.725 -0.2799  2.1089  0.9808
18761TIP3    H277699   3.608   0.739   5.840 -1.6818 -1.6420  0.2084
18762TIP3   OH277700   1.353   3.976  15.653 -0.7816 -0.2370  0.1506
18762TIP3    H177701   1.391   3.969  15.565 -0.5793  0.7821  0.1425
18762TIP3    H277702   1.416   3.932  15.710 -0.2930  0.1815 -0.0595
18763TIP3   OH277703   0.507   2.226  16.971  0.1374 -0.0266  0.9143
18763TIP3    H177704   0.544   2.245  16.885 -1.6483 -0.0749  0.0753
18763TIP3    H277705   0.508   2.130  16.976 -1.5702 -0.1481  0.0132
18764TIP3   OH277706   5.443   6.391   0.880 -0.1059  0.0097  0.1410
18764TIP3    H177707   5.358   6.436   0.880 -0.1613  0.1646  3.7019
18764TIP3    H277708   5.428   6.313   0.933  1.5558 -1.0205 -0.8286
18765TIP3   OH277709   0.601   0.526  13.658  0.1745 -0.2423 -0.4572
18765TIP3    H177710   0.587   0.617  13.684 -0.6719 -0.7296  0.9127
18765TIP3    H277711   0.669   0.494  13.717  1.1722 -0.2438 -1.5800
18766TIP3   OH277712   6.285   4.519   3.852  0.0720  0.3307  0.1471
18766TIP3    H177713   6.357   4.484   3.799 -0.1070  0.4810 -0.1982
18766TIP3    H277714   6.253   4.594   3.802 -1.1616 -0.4817 -0.3403
18767TIP3   OH277715   4.260   0.122  14.994 -0.0688  0.9412 -0.0738
18767TIP3    H177716   4.247   0.059  14.923 -1.4480  0.7234  0.3451
18767TIP3    H277717   4.334   0.176  14.965 -3.2498  3.8495 -3.8558
18768TIP3   OH277718   2.662   5.712  13.280  0.2955 -0.0379  0.5080
18768TIP3    H177719   2.730   5.722  13.213 -1.1777  0.0679 -1.0413
18768TIP3    H277720   2.660   5.797  13.325  0.6360  0.2262  0.0304
18769TIP3   OH277721   1.256   4.152   5.590 -0.4757 -0.2743 -0.2670
18769TIP3    H177722   1.330   4.212   5.603  0.7753 -1.7647 -0.2544
18769TIP3    H277723   1.287   4.089   5.525 -1.6224 -1.1295 -0.0207
18770TIP3   OH277724   1.808   2.257  17.161 -0.0170  0.1092 -0.5870
18770TIP3    H177725   1.823   2.162  17.155 -1.8526 -0.3450  0.8532
18770TIP3    H277726   1.838   2.281  17.248 -0.7073  0.5934 -0.4729
18771TIP3   OH277727   4.923   6.642   6.101  0.2621 -0.1100  0.4709
18771TIP3    H177728   4.945   6.663   6.191  1.9946  0.8840 -0.1317
18771TIP3    H277729   4.830   6.664   6.093  0.6419  2.1097  1.3949
18772TIP3   OH277730   2.857   0.162  14.719  0.0557 -0.1333  0.0550
18772TIP3    H177731   2.865   0.244  14.769 -1.9081  0.9137 -1.2001
18772TIP3    H277732   2.779   0.120  14.756 -2.3870  1.4077 -2.9081
18773TIP3   OH277733   6.682   1.654   1.690  0.0141 -0.1733  0.0200
18773TIP3    H177734   6.670   1.741   1.728  1.1624 -0.2034  0.4873
18773TIP3    H277735   6.599   1.636   1.646 -1.0802  0.2076  1.8135
18774TIP3   OH277736   3.530   0.516   3.657  0.1890 -0.5922 -0.1069
18774TIP3    H177737   3.560   0.449   3.720  0.8174  0.3248  0.5966
18774TIP3    H277738   3.436   0.498   3.646  0.3359 -1.5499  0.1132
18775TIP3   OH277739   5.485   2.479   0.402 -0.9277 -0.6657  0.0663
18775TIP3    H177740   5.574   2.492   0.369 -1.2757 -0.1055 -0.6696
18775TIP3    H277741   5.491   2.500   0.495 -0.3716 -0.2618 -0.0531
18776TIP3   OH277742   2.673   4.104  16.414  0.2977 -0.3627 -0.2953
18776TIP3    H177743   2.751   4.117  16.360  1.5283  1.1740  1.7232
18776TIP3    H277744   2.696   4.031  16.472 -0.2987 -0.7936 -0.5947
18777TIP3   OH277745   0.663   4.278  15.407  0.5548 -0.4423 -0.1150
18777TIP3    H177746   0.665   4.250  15.316 -0.2112 -1.4216  0.1468
18777TIP3    H277747   0.570   4.276  15.430  0.0945  4.1750 -0.5981
18778TIP3   OH277748   0.117   0.064   3.323  0.6118 -0.4080  0.2159
18778TIP3    H177749   0.026   0.054   3.296  0.5411 -0.8347  0.5958
18778TIP3    H277750   0.156  -0.022   3.309  0.9327 -0.2538  0.1485
18779TIP3   OH277751   0.783   1.999  14.400  0.6673  0.6285 -0.1287
18779TIP3    H177752   0.736   2.055  14.338 -1.6892  0.8454  1.7018
18779TIP3    H277753   0.764   2.037  14.485  3.0697 -0.1849  0.8521
18780TIP3   OH277754   5.966   4.276  16.074  0.1361 -0.6118 -0.0883
18780TIP3    H177755   5.882   4.241  16.105 -0.4849  1.3195  0.5520
18780TIP3    H277756   6.032   4.216  16.110 -0.8370 -0.8609  1.3752
18781TIP3   OH277757   3.255   6.350   1.967 -0.4446  0.2345  0.2583
18781TIP3    H177758   3.312   6.355   2.044 -2.2070 -0.9537  1.7299
18781TIP3    H277759   3.183   6.409   1.988  0.2814  1.9065 -1.6802
18782TIP3   OH277760   4.011   4.288  16.612  0.1254  0.2934  0.0440
18782TIP3    H177761   4.034   4.236  16.535  0.0851 -0.4941  0.5507
18782TIP3    H277762   4.014   4.378  16.582 -0.9853 -0.0397 -1.1830
18783TIP3   OH277763   4.009   6.579   3.228  0.6998 -0.1257 -0.1330
18783TIP3    H177764   4.070   6.554   3.160  2.3343 -0.3913  1.3595
18783TIP3    H277765   3.978   6.497   3.265 -0.7126  0.0004 -0.9452
18784TIP3   OH277766   1.471   6.050  13.523 -0.4052 -0.2712 -0.0716
18784TIP3    H177767   1.564   6.044  13.503 -0.2878  0.4793  0.2212
18784TIP3    H277768   1.428   6.054  13.437 -0.2870 -1.9627 -0.2415
18785TIP3   OH277769   0.881   1.530   6.097 -0.3014  0.1410  0.7836
18785TIP3    H177770   0.819   1.463   6.067 -0.5033 -0.2253  1.9611
18785TIP3    H277771   0.836   1.613   6.080  1.4521  0.4028 -4.3355
18786TIP3   OH277772   6.141   3.611   0.116 -0.6118  0.0125 -0.3149
18786TIP3    H177773   6.220   3.615   0.170  0.1520  0.0597 -1.4120
18786TIP3    H277774   6.173   3.611   0.026 -1.8894  0.5806 -0.7885
18787TIP3   OH277775   6.209   1.779  12.063  0.4480 -0.2092 -0.1199
18787TIP3    H177776   6.292   1.738  12.091  0.4331 -0.4083 -0.3599
18787TIP3    H277777   6.216   1.869  12.094  0.0659 -0.6335  1.2882
18788TIP3   OH277778   0.656   0.151  12.883  0.0242 -0.1705 -0.2288
18788TIP3    H177779   0.607   0.108  12.812  2.8233  1.1450 -3.2086
18788TIP3    H277780   0.712   0.082  12.918 -0.0974 -0.4223 -0.5220
18789TIP3   OH277781   5.973   4.778  14.705  0.1418 -0.2178 -0.2042
18789TIP3    H177782   6.024   4.710  14.748  0.1462 -1.8283 -2.5835
18789TIP3    H277783   5.938   4.831  14.777  1.4850 -1.7166  1.6537
18790TIP3   OH277784   4.991   1.316  16.531  0.0139  0.0237  0.9076
18790TIP3    H177785   5.063   1.344  16.587  2.2591  1.2193 -2.2586
18790TIP3    H277786   4.913   1.354  16.570  1.8436  3.4425  1.6016
18791TIP3   OH277787   3.965   4.391   5.057 -0.1958 -0.2970  0.1266
18791TIP3    H177788   3.876   4.425   5.070 -0.4149 -1.5385  2.3369
18791TIP3    H277789   3.957   4.330   4.983 -1.7867 -2.2171  1.7671
18792TIP3   OH277790   3.672   0.124   0.322  0.2708  0.4409  0.6331
18792TIP3    H177791   3.581   0.096   0.337 -0.4913  2.2993 -0.1456
18792TIP3    H277792   3.688   0.103   0.230  0.2529  1.0482  0.4880
18793TIP3   OH277793   5.893   3.854   4.893 -0.7393 -0.1818 -0.4091
18793TIP3    H177794   5.861   3.942   4.873  0.1592 -0.2239 -2.3322
18793TIP3    H277795   5.826   3.796   4.856 -0.9712 -0.3183  0.2105
18794TIP3   OH277796   6.587   4.260  13.708 -0.0281  0.0646 -0.6367
18794TIP3    H177797   6.566   4.170  13.735 -0.8567  0.7888  1.2763
18794TIP3    H277798   6.541   4.271  13.625 -1.1647 -0.8066 -0.1519
18795TIP3   OH277799   0.291   4.565  16.283  0.4500 -0.3518  0.3042
18795TIP3    H177800   0.347   4.487  16.278 -0.2422 -1.0141  2.1034
18795TIP3    H277801   0.210   4.538  16.240  0.1525 -0.7188  1.0635
18796TIP3   OH277802   5.609   2.939  15.275 -0.6614  0.1005  0.0240
18796TIP3    H177803   5.666   3.012  15.298  1.4935 -1.7443  0.9441
18796TIP3    H277804   5.658   2.861  15.303 -3.1388 -1.6684 -0.2807
18797TIP3   OH277805   5.030   1.982   4.132 -0.3769 -0.0071  0.4315
18797TIP3    H177806   4.972   1.949   4.063 -1.9679  0.8429  1.3095
18797TIP3    H277807   5.012   2.076   4.136 -0.4181 -0.0554  2.0537
18798TIP3   OH277808   4.101   2.078  15.700 -1.0687 -0.9013 -0.1013
18798TIP3    H177809   4.067   2.056  15.786 -0.0239  1.3621  0.9912
18798TIP3    H277810   4.066   2.166  15.682  2.7059  0.9360  0.4354
18799TIP3   OH277811   0.093   2.709  12.432 -0.1991 -0.1728  0.4544
18799TIP3    H177812   0.137   2.790  12.459 -1.1497  0.1868  0.9502
18799TIP3    H277813   0.082   2.660  12.514 -0.4792 -0.3784  0.2933
18800TIP3   OH277814   1.419   0.615   0.313  0.3784  0.1074 -0.0732
18800TIP3    H177815   1.512   0.611   0.334  0.4042 -0.1066 -0.2263
18800TIP3    H277816   1.376   0.564   0.382  0.1889  1.7442  1.0733
18801TIP3   OH277817   2.768   3.675   3.516  0.7735  0.2235  0.5376
18801TIP3    H177818   2.707   3.602   3.520 -1.8928  2.2179 -0.8829
18801TIP3    H277819   2.757   3.721   3.599  0.9799  0.1352  0.6158
18802TIP3   OH277820   2.727   1.024   3.479  0.1038  0.0897  0.4198
18802TIP3    H177821   2.804   1.074   3.452  0.0590  0.4758  0.9750
18802TIP3    H277822   2.744   0.935   3.450  0.2804  0.3853 -0.4014
18803TIP3   OH277823   2.548   1.255   2.056  0.8717  0.4832 -0.0053
18803TIP3    H177824   2.552   1.159   2.053  2.7776  0.5380 -0.1103
18803TIP3    H277825   2.465   1.274   2.100  1.0760 -1.2365  1.2090
18804TIP3   OH277826   4.694   1.345  13.011  0.0684 -0.6256 -0.3988
18804TIP3    H177827   4.618   1.391  13.046  0.3005 -0.1841 -0.4690
18804TIP3    H277828   4.737   1.307  13.088  0.5046  0.2306 -0.2108
18805TIP3   OH277829   1.839   1.138   5.818  0.0332  0.2079 -0.3781
18805TIP3    H177830   1.877   1.178   5.897 -0.0658 -1.0997  0.3482
18805TIP3    H277831   1.825   1.212   5.759  3.1761  0.8901 -0.4873
18806TIP3   OH277832   3.774   0.062  16.122  0.2758 -0.3660 -0.0051
18806TIP3    H177833   3.730   0.030  16.200  0.7908 -0.8064  0.1131
18806TIP3    H277834   3.710   0.053  16.052 -0.5924  1.1064  0.5655
18807TIP3   OH277835   0.618   4.635   5.848 -0.0219 -0.2833 -0.2789
18807TIP3    H177836   0.678   4.615   5.920  0.7424  0.5648 -0.6563
18807TIP3    H277837   0.582   4.721   5.870  2.2529  1.2818 -2.1380
18808TIP3   OH277838   4.772   3.817  12.917 -0.2705  0.1820 -0.0170
18808TIP3    H177839   4.824   3.854  12.989 -1.8054  0.6204  0.9151
18808TIP3    H277840   4.833   3.762  12.869  1.1383  0.9600  0.8187
18809TIP3   OH277841   3.547   3.299  13.720 -0.1117 -0.1017 -0.2509
18809TIP3    H177842   3.556   3.210  13.754 -0.8293  0.3472  1.1949
18809TIP3    H277843   3.637   3.326  13.702  0.3807 -0.2663  1.6832
18810TIP3   OH277844   4.117   3.122   5.984  0.2060 -0.1965 -0.0673
18810TIP3    H177845   4.212   3.107   5.989  0.0396 -1.1680  0.4411
18810TIP3    H277846   4.107   3.216   6.002  1.0224 -0.2113  0.5514
18811TIP3   OH277847   4.736   4.988   0.602 -0.8757 -0.2050 -0.5416
18811TIP3    H177848   4.721   5.031   0.518  0.4958  1.2172 -0.0866
18811TIP3    H277849   4.823   5.017   0.630 -1.1040 -1.0099  1.1599
18812TIP3   OH277850   5.847   5.304  16.316 -0.2132  0.5490 -0.0401
18812TIP3    H177851   5.768   5.337  16.359  0.4007 -0.2703  1.8092
18812TIP3    H277852   5.913   5.301  16.385  0.8369 -0.8354 -1.0427
18813TIP3   OH277853   0.214   4.343  16.576 -0.1478 -0.4554  0.6275
18813TIP3    H177854   0.139   4.285  16.591 -0.2254 -0.1020  1.6850
18813TIP3    H277855   0.253   4.354  16.663 -1.4601  2.8896  0.9497
18814TIP3   OH277856   5.258   2.800  13.311 -0.1348  0.4410  0.5724
18814TIP3    H177857   5.290   2.712  13.325  2.4537  0.9908 -1.1637
18814TIP3    H277858   5.208   2.795  13.229  2.2472  0.9566 -1.0172
18815TIP3   OH277859   3.888   4.028   0.365  0.3735 -0.1006 -0.0704
18815TIP3    H177860   3.841   3.992   0.290 -0.9404 -0.2549  0.7958
18815TIP3    H277861   3.951   4.090   0.327 -0.1919 -0.2546 -1.2908
18816TIP3   OH277862   6.261   5.563  13.128  0.4131  0.4935  0.0042
18816TIP3    H177863   6.265   5.583  13.221  0.6382  1.6931 -0.2526
18816TIP3    H277864   6.341   5.600  13.091  1.1856 -1.4605 -0.4205
18817TIP3   OH277865   3.915   2.035   1.537 -0.0608  0.2938  0.3260
18817TIP3    H177866   3.929   2.064   1.627 -0.7713 -0.7933  0.8073
18817TIP3    H277867   3.823   2.053   1.520  0.0026  0.2380 -0.0915
18818TIP3   OH277868   1.279   0.031   4.162  0.3820  0.0164 -0.6099
18818TIP3    H177869   1.330   0.043   4.242  1.7032 -0.0300 -1.4024
18818TIP3    H277870   1.188   0.027   4.191  0.6392  2.2188  0.6548
18819TIP3   OH277871   2.211   0.355   4.068 -0.7462 -0.3154  0.3199
18819TIP3    H177872   2.306   0.356   4.077 -0.6104 -3.8028  0.8088
18819TIP3    H277873   2.178   0.399   4.146  0.4659 -0.0710  0.7043
18820TIP3   OH277874   0.701   4.912  14.650 -0.4241  0.5154 -0.2969
18820TIP3    H177875   0.698   4.894  14.556  5.4680  0.6884 -0.8823
18820TIP3    H277876   0.780   4.866  14.680 -0.8869  2.2032  4.1564
18821TIP3   OH277877   2.101   0.839  16.710 -0.6687 -0.0964  0.2079
18821TIP3    H177878   2.070   0.897  16.640  0.6652 -2.2969 -2.3784
18821TIP3    H277879   2.192   0.867  16.725 -0.9825  0.4470  1.2449
18822TIP3   OH277880   5.173   0.375  13.141 -0.4850  0.0997  0.2919
18822TIP3    H177881   5.249   0.428  13.165 -0.2771 -0.8395  1.9220
18822TIP3    H277882   5.098   0.433  13.156 -0.2000  0.3275  0.8754
18823TIP3   OH277883   3.740   3.849  15.326  0.2097  0.6230  0.3111
18823TIP3    H177884   3.826   3.879  15.297  1.1184 -0.3837  1.8000
18823TIP3    H277885   3.700   3.813  15.247  1.0219  1.3777 -0.4709
18824TIP3   OH277886   4.691   2.650  12.029 -0.0530 -0.3540 -0.2976
18824TIP3    H177887   4.671   2.670  11.938 -1.7108 -0.2627  0.0511
18824TIP3    H277888   4.746   2.723  12.058  2.0619 -1.3003 -1.6846
18825TIP3   OH277889   0.943   1.903   5.205 -0.0500 -0.1393 -0.1623
18825TIP3    H177890   0.960   1.992   5.177  1.0167  0.2221  1.5097
18825TIP3    H277891   1.029   1.863   5.215 -0.4966 -1.2109 -0.4098
18826TIP3   OH277892   0.595   4.940  15.978 -0.3051  0.1637 -0.1268
18826TIP3    H177893   0.552   4.999  16.040  1.8150  1.0289  0.6319
18826TIP3    H277894   0.554   4.855  15.993 -0.8897  0.6809  1.4022
18827TIP3   OH277895   0.790   3.301   5.245  0.5163  0.6251 -0.1144
18827TIP3    H177896   0.781   3.311   5.340  0.9785 -0.6528  0.0924
18827TIP3    H277897   0.723   3.237   5.221 -1.1707  2.6140 -1.0580
18828TIP3   OH277898   6.459   2.908   5.228 -0.1752 -0.1858 -0.2306
18828TIP3    H177899   6.498   2.869   5.306 -1.0625 -0.5148  0.0587
18828TIP3    H277900   6.455   2.836   5.165 -0.0434 -0.0812 -0.3584
18829TIP3   OH277901   1.095   2.498   3.790 -0.2220 -0.1217  0.0112
18829TIP3    H177902   1.121   2.432   3.726  1.3147 -0.5075  0.9766
18829TIP3    H277903   1.036   2.451   3.849  0.0477 -0.3540  0.1003
18830TIP3   OH277904   5.961   0.027  14.150 -0.0165 -0.2695 -0.3772
18830TIP3    H177905   6.028   0.090  14.174 -1.2510  1.6526 -1.6314
18830TIP3    H277906   5.919   0.003  14.233  2.9838 -2.6290  0.6383
18831TIP3   OH277907   1.536   4.146   2.217 -0.4008  0.1963 -0.1023
18831TIP3    H177908   1.545   4.221   2.276 -1.7840 -0.0772  0.5105
18831TIP3    H277909   1.525   4.185   2.130 -0.7433  0.6939  0.1591
18832TIP3   OH277910   4.546   1.161   5.063  0.0162 -0.5456 -0.2930
18832TIP3    H177911   4.641   1.156   5.073 -0.1710 -1.8851  1.1248
18832TIP3    H277912   4.524   1.084   5.011 -0.3828 -0.7682  0.2041
18833TIP3   OH277913   6.228   2.999  11.527 -0.0378 -0.2727  0.4496
18833TIP3    H177914   6.143   3.042  11.524  0.8547  1.5705 -0.8697
18833TIP3    H277915   6.281   3.055  11.584  0.2538 -1.5148  1.4252
18834TIP3   OH277916   6.311   4.219   4.538  0.4492 -0.1396 -0.4404
18834TIP3    H177917   6.254   4.291   4.566  1.9117  0.4530  1.2192
18834TIP3    H277918   6.341   4.245   4.451 -0.5699  0.2880 -0.6781
18835TIP3   OH277919   1.694   2.053   1.218 -0.5849  0.4490 -0.2425
18835TIP3    H177920   1.633   2.035   1.146 -0.7263 -1.2360  0.2501
18835TIP3    H277921   1.679   1.982   1.280  0.0648  1.4640  1.1173
18836TIP3   OH277922   0.139   4.186  13.714  0.5251 -0.5393  0.3305
18836TIP3    H177923   0.087   4.255  13.673  0.4615  0.0290  1.3397
18836TIP3    H277924   0.208   4.232  13.762  1.1671 -1.2285  0.1057
18837TIP3   OH277925   1.299   6.135   5.652 -0.0153  0.1912 -0.4707
18837TIP3    H177926   1.301   6.223   5.690 -0.7867 -1.0123  2.7277
18837TIP3    H277927   1.274   6.078   5.725  0.2776 -2.6935 -2.4363
18838TIP3   OH277928   3.977   3.109   3.997 -0.3332  0.4952  0.2902
18838TIP3    H177929   3.883   3.088   4.006 -0.1905  0.1465  1.0354
18838TIP3    H277930   3.981   3.167   3.921 -1.1877  0.7399  0.4193
18839TIP3   OH277931   0.824   2.616  12.307 -0.0331 -0.2375  0.0336
18839TIP3    H177932   0.741   2.663  12.310  0.5179  0.7820 -0.3859
18839TIP3    H277933   0.823   2.561  12.385 -1.4226 -0.7974 -0.3461
18840TIP3   OH277934   6.665   4.280  15.098 -0.2661 -0.1211 -0.1417
18840TIP3    H177935   6.621   4.235  15.170 -1.7130 -0.4330 -1.1812
18840TIP3    H277936   6.652   4.373  15.118 -0.1888 -0.1989  0.2797
18841TIP3   OH277937   0.523   0.911   5.779 -0.3146  0.6906 -0.3631
18841TIP3    H177938   0.605   0.943   5.742  0.3579 -0.2024  0.2985
18841TIP3    H277939   0.486   0.987   5.823  0.5157  0.9371 -0.0648
18842TIP3   OH277940   0.928   5.312   6.955  0.4556  0.4100  0.0495
18842TIP3    H177941   0.870   5.372   6.908 -0.0630  0.2426  0.4649
18842TIP3    H277942   0.906   5.226   6.920 -0.1419  0.2506  0.8053
18843TIP3   OH277943   1.607   5.756   1.470 -1.0241 -0.3686 -0.7076
18843TIP3    H177944   1.604   5.688   1.537  1.7371 -1.7011 -1.7997
18843TIP3    H277945   1.665   5.823   1.506  1.0624 -1.4213 -1.9234
18844TIP3   OH277946   2.390   6.385  14.127  0.4586  0.2601 -1.0263
18844TIP3    H177947   2.420   6.298  14.153  1.3471  1.1455  1.1114
18844TIP3    H277948   2.446   6.408  14.053 -0.4681 -1.3498 -2.2968
18845TIP3   OH277949   0.374   2.137   6.646 -0.1472 -0.2140  0.1606
18845TIP3    H177950   0.312   2.161   6.714  0.3711 -0.4597  0.7244
18845TIP3    H277951   0.335   2.059   6.605 -2.2166  1.8323 -2.1767
18846TIP3   OH277952   0.139   2.629   1.938  0.1165  0.1499 -0.1651
18846TIP3    H177953   0.152   2.572   1.863  0.3236  0.7412 -0.5855
18846TIP3    H277954   0.197   2.704   1.922 -2.3115  1.9411 -1.1009
18847TIP3   OH277955   5.266   1.171  15.500  0.7929  0.2634  0.3632
18847TIP3    H177956   5.336   1.106  15.488  0.8563  0.2703  0.6858
18847TIP3    H277957   5.215   1.166  15.419  0.1476 -0.9835  0.8159
18848TIP3   OH277958   5.019   1.378  13.068  0.2357 -0.1732 -0.3118
18848TIP3    H177959   4.993   1.336  13.150  1.4094  0.1056  0.2325
18848TIP3    H277960   5.110   1.405  13.083 -0.2445  1.9684 -0.8642
18849TIP3   OH277961   1.279   4.649   3.466 -0.3552 -0.2019  0.1390
18849TIP3    H177962   1.228   4.621   3.542  1.5506 -1.6054  0.9801
18849TIP3    H277963   1.326   4.727   3.496  0.6932 -0.9735  0.6066
18850TIP3   OH277964   4.515   4.913   3.102 -0.6835 -0.3097  0.1098
18850TIP3    H177965   4.594   4.919   3.049 -0.5129 -2.0583  0.0867
18850TIP3    H277966   4.529   4.836   3.157 -1.8086  0.1432  1.0700
18851TIP3   OH277967   6.353   3.166   3.517 -0.8603  0.1140  0.7925
18851TIP3    H177968   6.298   3.166   3.438  0.8753  0.7012 -0.4639
18851TIP3    H277969   6.353   3.257   3.546  0.2834  0.3120  0.1805
18852TIP3   OH277970   3.031   0.758   3.185 -0.4031  0.1050  0.3353
18852TIP3    H177971   3.010   0.848   3.158 -2.3132 -0.0322  1.1555
18852TIP3    H277972   3.029   0.762   3.281  1.3095 -0.4490  0.4129
18853TIP3   OH277973   1.568   5.409  16.931  0.1104  0.1069 -0.6577
18853TIP3    H177974   1.488   5.448  16.966  0.8688  1.2462 -0.1346
18853TIP3    H277975   1.614   5.482  16.889  1.8301 -0.0495  0.8038
18854TIP3   OH277976   6.227   5.253   1.786  0.2229  0.0950 -1.1023
18854TIP3    H177977   6.273   5.262   1.702  0.8891 -0.3046 -0.7901
18854TIP3    H277978   6.273   5.312   1.845  1.8439 -1.9587 -0.1870
18855TIP3   OH277979   6.412   4.400  13.561 -0.7423 -0.0234 -0.0712
18855TIP3    H177980   6.329   4.372  13.599 -0.3197  0.9346  1.6743
18855TIP3    H277981   6.388   4.458  13.489 -1.5907  0.7271  0.8043
18856TIP3   OH277982   6.228   5.589   3.274  0.0925 -0.6652 -0.6831
18856TIP3    H177983   6.301   5.647   3.253 -1.2372  1.5332  0.4475
18856TIP3    H277984   6.177   5.584   3.193  1.5669 -2.4365 -1.5622
18857TIP3   OH277985   5.099   3.697   2.929 -0.2072 -0.7919  0.1199
18857TIP3    H177986   5.137   3.746   2.856 -0.0805 -2.3177 -0.8758
18857TIP3    H277987   5.037   3.758   2.969 -0.9699 -0.2212 -1.8346
18858TIP3   OH277988   6.438   0.903   5.174 -0.3070 -0.1738 -0.3620
18858TIP3    H177989   6.354   0.949   5.175 -1.2976 -1.7834  2.6225
18858TIP3    H277990   6.500   0.967   5.207 -0.8239  0.3026 -0.2937
18859TIP3   OH277991   4.258   0.717  10.415 -0.7642 -0.9202 -0.6327
18859TIP3    H177992   4.192   0.776  10.378  0.9629  3.6767  2.5991
18859TIP3    H277993   4.211   0.671  10.485 -1.1003  1.0734  0.5603
18860TIP3   OH277994   6.635   0.266  11.461 -0.1060 -0.3021  0.0299
18860TIP3    H177995   6.557   0.210  11.455 -1.2904  1.2451  0.3448
18860TIP3    H277996   6.708   0.205  11.455 -1.2433 -1.5361 -3.5764
18861TIP3   OH277997   3.105   3.800   1.633 -0.3615 -0.1437 -0.5490
18861TIP3    H177998   3.192   3.794   1.592  0.4543 -1.0825  1.1724
18861TIP3    H277999   3.049   3.745   1.579  0.8914 -2.1085  0.0144
18862TIP3   OH278000   3.501   3.501   2.286  0.1890 -0.3127  0.5050
18862TIP3    H178001   3.524   3.464   2.371  1.4222 -1.1574 -0.1569
18862TIP3    H278002   3.572   3.472   2.228  0.3383  1.7659 -0.4098
18863TIP3   OH278003   4.612   6.525  15.322 -0.2392  0.1229  0.2121
18863TIP3    H178004   4.655   6.441  15.307  3.4816  1.9277 -0.6818
18863TIP3    H278005   4.549   6.533  15.250 -0.2588 -1.6532 -0.0083
18864TIP3   OH278006   1.358   5.412   3.768 -0.0251 -0.1546  0.0272
18864TIP3    H178007   1.348   5.494   3.815 -0.4770 -0.4800  0.5066
18864TIP3    H278008   1.316   5.346   3.824  0.1655 -0.6815 -0.4344
18865TIP3   OH278009   6.685   4.757   5.804 -0.4015  0.7296  0.2160
18865TIP3    H178010   6.752   4.805   5.756  0.3244 -0.7796 -0.3469
18865TIP3    H278011   6.727   4.675   5.829 -1.6516  0.2867  0.9754
18866TIP3   OH278012   5.642   6.403  14.893  0.3527  0.3261 -0.1108
18866TIP3    H178013   5.651   6.386  14.800 -1.0337 -0.0822 -0.1845
18866TIP3    H278014   5.649   6.498  14.901  1.4287  0.2864 -0.5051
18867TIP3   OH278015   2.830   3.621   5.215 -0.1038 -0.8005 -0.0205
18867TIP3    H178016   2.878   3.555   5.265  2.1933 -0.8451 -2.0946
18867TIP3    H278017   2.738   3.597   5.227  0.5648 -3.5110  0.4857
18868TIP3   OH278018   6.441   0.445   2.542  0.1421  0.0398 -0.0894
18868TIP3    H178019   6.383   0.385   2.588  2.9833 -2.0866  0.9849
18868TIP3    H278020   6.457   0.516   2.605  2.0334 -1.6016  1.4375
18869TIP3   OH278021   1.348   5.271  15.528  0.9717  0.0848 -0.2148
18869TIP3    H178022   1.396   5.188  15.520  1.7217  0.6033 -1.3130
18869TIP3    H278023   1.340   5.285  15.623  1.3296 -0.9555 -0.0197
18870TIP3   OH278024   1.608   5.289  12.103  0.0229 -0.2856  0.1387
18870TIP3    H178025   1.639   5.338  12.179  0.0887 -0.5486  0.2801
18870TIP3    H278026   1.676   5.302  12.036  0.0457 -0.1956  0.1786
18871TIP3   OH278027   1.491   3.446  16.682 -0.1487  0.0578  0.2468
18871TIP3    H178028   1.551   3.374  16.698  0.7525  1.1422  2.1095
18871TIP3    H278029   1.417   3.406  16.636  0.1009 -2.1384  1.6171
18872TIP3   OH278030   1.026   2.297   6.722 -0.2110  0.3497  0.1208
18872TIP3    H178031   1.043   2.233   6.791 -0.6601  0.2288  0.1204
18872TIP3    H278032   1.052   2.252   6.641 -0.7576  0.0696  0.0931
18873TIP3   OH278033   1.557   4.173  12.927  0.1734  0.0778 -0.0267
18873TIP3    H178034   1.574   4.111  12.856 -1.8902 -0.8389  0.2181
18873TIP3    H278035   1.523   4.251  12.883  1.5709  0.5981 -0.2320
18874TIP3   OH278036   2.798   5.182  17.021  0.2139 -0.3698 -0.2856
18874TIP3    H178037   2.850   5.107  17.048 -1.3101 -1.7899 -1.0755
18874TIP3    H278038   2.739   5.199  17.095  0.2957 -0.2095 -0.2581
18875TIP3   OH278039   6.446   5.379  12.867  0.2115  0.4518 -0.2221
18875TIP3    H178040   6.536   5.347  12.875 -0.3394 -1.1406 -0.0889
18875TIP3    H278041   6.446   5.462  12.914  1.8206  0.9306 -1.0026
18876TIP3   OH278042   6.599   5.635   2.636  0.0246 -0.5910 -0.1233
18876TIP3    H178043   6.644   5.698   2.691 -0.7048 -0.0552 -0.1268
18876TIP3    H278044   6.507   5.643   2.660 -0.4663  0.4183 -2.1612
18877TIP3   OH278045   0.246   6.242   2.347  0.2089 -0.2465 -0.4464
18877TIP3    H178046   0.324   6.298   2.338  0.7904 -1.1942 -1.5919
18877TIP3    H278047   0.173   6.304   2.350  0.9354  0.6322 -0.2827
18878TIP3   OH278048   2.083   4.050  16.570 -0.2767  0.3735  0.6174
18878TIP3    H178049   2.092   4.143  16.590 -0.4857  0.4443  0.3813
18878TIP3    H278050   1.992   4.038  16.545 -0.1563  0.1829  0.2495
18879TIP3   OH278051   6.268   3.184  16.697  0.4302  0.3218 -0.7382
18879TIP3    H178052   6.184   3.206  16.657  1.6519  0.2133 -3.6113
18879TIP3    H278053   6.301   3.267  16.731 -0.5916  0.4592 -0.0623
18880TIP3   OH278054   4.836   4.767  12.450 -0.0847 -0.0843 -0.4497
18880TIP3    H178055   4.796   4.814  12.378 -0.1610  0.3874 -0.1085
18880TIP3    H278056   4.809   4.816  12.528  1.1658  0.2677 -0.2125
18881TIP3   OH278057   4.327   2.710   1.695 -0.4457 -1.0188 -0.7838
18881TIP3    H178058   4.327   2.615   1.693 -1.7081 -1.1011  0.9866
18881TIP3    H278059   4.397   2.732   1.757  0.3072 -0.7310 -1.7009
18882TIP3   OH278060   5.420   2.967   2.049 -0.9474 -0.0685  0.4720
18882TIP3    H178061   5.475   3.026   2.100  0.6131 -0.8440 -0.2332
18882TIP3    H278062   5.368   3.025   1.993  1.8003  0.7134 -1.4872
18883TIP3   OH278063   5.012   3.422   4.204  0.3307  0.3290  0.3930
18883TIP3    H178064   5.054   3.408   4.289  0.4288  0.5701  0.3849
18883TIP3    H278065   4.927   3.460   4.224  0.8227  1.4916  0.3394
18884TIP3   OH278066   2.995   6.614   3.939 -0.3497  0.2068 -0.1230
18884TIP3    H178067   3.050   6.585   4.012 -0.2691 -0.4664 -0.4431
18884TIP3    H278068   3.023   6.560   3.865 -2.6751 -1.4994  0.1310
18885TIP3   OH278069   5.137   1.221   2.672  0.2889 -0.4604  0.1501
18885TIP3    H178070   5.179   1.141   2.704  0.5990 -0.9933 -1.4994
18885TIP3    H278071   5.205   1.288   2.678  0.0903 -0.3375  1.3410
18886TIP3   OH278072   2.357   5.726   2.285  0.3937  0.2882 -0.0890
18886TIP3    H178073   2.353   5.696   2.195  0.5268 -0.2177  0.0723
18886TIP3    H278074   2.445   5.703   2.315 -0.8270 -3.2025  1.4019
18887TIP3   OH278075   5.316   4.412   4.904 -0.0279 -0.2991 -0.3428
18887TIP3    H178076   5.228   4.446   4.885  0.2813  0.3454 -0.6856
18887TIP3    H278077   5.309   4.318   4.890 -0.9271 -0.4038  0.6497
18888TIP3   OH278078   0.383   3.216   0.369  0.0264 -0.0826 -0.0716
18888TIP3    H178079   0.363   3.173   0.452 -2.3156 -5.0967 -2.7919
18888TIP3    H278080   0.473   3.189   0.350 -0.6148 -1.9988 -0.6270
18889TIP3   OH278081   1.154   6.057  13.664  0.0655  0.1276  0.2772
18889TIP3    H178082   1.188   5.984  13.612 -0.3557  0.3546 -0.3267
18889TIP3    H278083   1.209   6.059  13.742  1.6586  0.6901 -0.8202
18890TIP3   OH278084   2.560   2.372   0.000  0.0013  0.0298  0.4034
18890TIP3    H178085   2.512   2.391   0.080  2.3886  3.9710  1.1772
18890TIP3    H278086   2.505   2.407  -0.070  0.4907  2.2618  1.0431
18891TIP3   OH278087   4.980   5.118   0.668 -0.5702 -0.5191 -0.1802
18891TIP3    H178088   5.026   5.202   0.661 -0.3249 -0.7384 -1.3141
18891TIP3    H278089   5.050   5.053   0.680 -0.5953 -0.7959 -1.4125
18892TIP3   OH278090   5.309   0.964   4.298  0.5754 -0.5137  0.1293
18892TIP3    H178091   5.403   0.977   4.309  0.5284 -0.3946  0.3914
18892TIP3    H278092   5.271   0.990   4.382 -0.0641  3.2892 -1.1276
18893TIP3   OH278093   3.828   4.528  13.967  0.5731 -0.0021 -0.0135
18893TIP3    H178094   3.894   4.596  13.953  0.4863  0.3404  1.1719
18893TIP3    H278095   3.858   4.482  14.045 -1.5014  1.3243  1.6753
18894TIP3   OH278096   2.704   1.349  11.117  0.2054  0.4220  0.4277
18894TIP3    H178097   2.644   1.275  11.116 -0.9953  1.3552  0.9616
18894TIP3    H278098   2.657   1.419  11.072  1.3674  0.8391 -0.1863
18895TIP3   OH278099   3.318   3.182  11.403  0.4709 -0.8772  0.9598
18895TIP3    H178100   3.359   3.256  11.448 -1.2573  0.0547  1.0864
18895TIP3    H278101   3.347   3.105  11.451  0.8985 -0.1327  1.9285
18896TIP3   OH278102   0.552   0.052  16.259 -0.0267 -0.3163 -0.4887
18896TIP3    H178103   0.475   0.021  16.308 -0.1622 -0.6471 -0.9086
18896TIP3    H278104   0.614   0.079  16.327 -1.0289  1.2468 -0.1534
18897TIP3   OH278105   3.464   4.586  16.986 -0.0821  0.5913  0.3873
18897TIP3    H178106   3.473   4.493  17.007 -0.1219  0.3448 -0.6285
18897TIP3    H278107   3.439   4.587  16.894 -2.7483  1.5160  1.0465
18898TIP3   OH278108   3.181   2.111  15.443  0.0437 -0.6306  0.2233
18898TIP3    H178109   3.230   2.132  15.523  0.9670  3.3809 -1.1887
18898TIP3    H278110   3.089   2.126  15.467  0.1869 -0.7522  0.8710
18899TIP3   OH278111   0.371   2.752   1.658  0.4582 -0.5807  0.4964
18899TIP3    H178112   0.439   2.783   1.599  0.1643  0.3609  0.6430
18899TIP3    H278113   0.367   2.817   1.728 -2.1520  0.6986 -0.6785
18900TIP3   OH278114   5.454   5.062   0.255 -0.5575 -0.3821  0.2453
18900TIP3    H178115   5.374   5.092   0.298 -1.9339 -1.7851 -1.2028
18900TIP3    H278116   5.425   5.027   0.171  1.8611  1.1425 -1.3667
18901TIP3   OH278117   3.218   4.359  13.771 -0.1170 -0.2880 -0.3667
18901TIP3    H178118   3.220   4.322  13.683  1.5174 -0.5007 -0.2721
18901TIP3    H278119   3.187   4.288  13.826 -3.9719  0.6632 -1.0642
18902TIP3   OH278120   6.757   6.383   2.279  0.0787  1.0024 -0.4338
18902TIP3    H178121   6.757   6.331   2.199  0.8151  0.7109 -0.2485
18902TIP3    H278122   6.718   6.466   2.253  2.8560  2.0039 -1.8389
18903TIP3   OH278123   4.277   4.730  11.573 -0.0449  0.3642 -0.3967
18903TIP3    H178124   4.188   4.694  11.576 -0.7286  2.0240  0.7494
18903TIP3    H278125   4.283   4.774  11.488  0.3798 -1.3143 -1.2847
18904TIP3   OH278126   2.088   5.543   3.349  0.1376  0.3558  0.4118
18904TIP3    H178127   2.023   5.543   3.279 -2.3244 -1.3622  2.4884
18904TIP3    H278128   2.048   5.595   3.419  1.2246 -0.3055  1.5647
18905TIP3   OH278129   1.530   3.853  15.859  0.0426 -0.1069  0.2865
18905TIP3    H178130   1.609   3.906  15.853  0.8891 -1.4946 -2.3052
18905TIP3    H278131   1.559   3.772  15.902  0.5568 -1.3323 -2.2014
18906TIP3   OH278132   2.342   1.859   1.190 -0.0348  0.7663  0.7256
18906TIP3    H178133   2.430   1.865   1.229 -0.0518  0.8331  0.7534
18906TIP3    H278134   2.353   1.798   1.117  0.4118  2.0370 -0.3132
18907TIP3   OH278135   5.522   5.129  11.609 -0.6239 -0.0740  0.1667
18907TIP3    H178136   5.427   5.122  11.609 -0.7096 -0.5468  3.4532
18907TIP3    H278137   5.543   5.183  11.533 -3.6660  1.7318  0.4698
18908TIP3   OH278138   5.919   6.282   3.525  0.6964 -0.4834  0.0806
18908TIP3    H178139   5.852   6.214   3.522  1.5826 -1.4387  0.9594
18908TIP3    H278140   5.927   6.303   3.618  0.3012  0.9847 -0.1954
18909TIP3   OH278141   5.612   3.604   6.364  0.3375 -0.0680  0.2514
18909TIP3    H178142   5.581   3.527   6.411 -1.6902  0.0529 -0.7792
18909TIP3    H278143   5.613   3.674   6.430  0.5658 -0.5896  0.8039
18910TIP3   OH278144   2.666   1.450  12.285  0.0173  0.5342 -0.2231
18910TIP3    H178145   2.680   1.424  12.376 -1.0755  1.9732  0.4041
18910TIP3    H278146   2.686   1.544  12.284  1.0678  0.3255 -1.7284
18911TIP3   OH278147   5.419   2.650   1.499 -0.1498 -0.3194  0.0734
18911TIP3    H178148   5.356   2.630   1.428  0.5870 -0.5521 -0.5263
18911TIP3    H278149   5.483   2.708   1.458  1.0023 -1.4799  0.1765
18912TIP3   OH278150   1.179   4.953   1.085 -0.1683 -0.1566  0.0534
18912TIP3    H178151   1.102   4.987   1.040 -0.0726  0.7877  0.5698
18912TIP3    H278152   1.186   5.006   1.164  2.9041  2.0588 -1.4934
18913TIP3   OH278153   3.858   3.442  11.058 -0.0347 -0.0973  0.8118
18913TIP3    H178154   3.945   3.466  11.027  0.7886 -1.6617  1.8145
18913TIP3    H278155   3.799   3.501  11.011  1.5454  0.9635  0.0794
18914TIP3   OH278156   1.796   3.757   1.915  0.0598 -0.2205  0.4601
18914TIP3    H178157   1.713   3.803   1.925  0.0681 -0.2789  0.7968
18914TIP3    H278158   1.796   3.691   1.984 -0.2905 -1.2505 -0.4848
18915TIP3   OH278159   2.844   0.477  15.450 -0.1090  0.3602 -0.9089
18915TIP3    H178160   2.788   0.449  15.523 -0.0300  2.3012 -0.0271
18915TIP3    H278161   2.793   0.546  15.408  1.3978  1.8755 -0.3479
18916TIP3   OH278162   3.425   4.495   4.791 -0.6310  0.3649  0.0163
18916TIP3    H178163   3.495   4.438   4.758 -0.0129  0.4156  1.1765
18916TIP3    H278164   3.386   4.446   4.863 -0.2393  1.2909  0.8850
18917TIP3   OH278165   2.462   1.143  15.499  0.0840  0.6715 -0.1972
18917TIP3    H178166   2.375   1.169  15.530  1.2100  1.2521  2.8853
18917TIP3    H278167   2.523   1.200  15.546  2.1861  0.3940 -2.3533
18918TIP3   OH278168   0.937   6.459  12.436  0.1678 -0.3612  0.3019
18918TIP3    H178169   0.973   6.544  12.413 -2.4297  0.9830  0.7882
18918TIP3    H278170   0.925   6.414  12.352  2.3709 -0.6640  0.1074
18919TIP3   OH278171   5.486   6.544   2.199 -0.2388  1.2528  0.6781
18919TIP3    H178172   5.435   6.507   2.272  0.0133  2.1162  1.3081
18919TIP3    H278173   5.429   6.535   2.123  0.5309 -2.1991  0.3505
18920TIP3   OH278174   5.443   1.389   4.923 -0.0231  0.1593 -0.4770
18920TIP3    H178175   5.482   1.349   5.001 -1.3281  1.5608  0.9778
18920TIP3    H278176   5.514   1.440   4.885  1.2589 -2.2372 -1.5418
18921TIP3   OH278177   2.088   5.729  11.766 -0.3105 -0.4373 -0.2203
18921TIP3    H178178   2.101   5.720  11.860  0.4609  2.3076  0.0287
18921TIP3    H278179   1.993   5.728  11.754 -0.7461  3.9147  1.3289
18922TIP3   OH278180   6.002   3.537   1.928 -0.1450 -0.1217 -0.5972
18922TIP3    H178181   5.922   3.496   1.960 -1.2542  1.8454 -0.6934
18922TIP3    H278182   6.060   3.541   2.005 -0.5333 -0.6117 -0.2745
18923TIP3   OH278183   4.281   5.867  15.353 -0.4388  0.0667  0.3978
18923TIP3    H178184   4.373   5.873  15.329 -0.9629  1.9626 -1.4084
18923TIP3    H278185   4.252   5.958  15.362 -2.5035 -0.4154 -0.6597
18924TIP3   OH278186   0.328   2.447   3.668  0.1131  0.0834  0.6143
18924TIP3    H178187   0.338   2.455   3.573  0.6113 -0.3218  0.6300
18924TIP3    H278188   0.412   2.415   3.699 -0.0439  0.2127  1.1999
18925TIP3   OH278189   4.559   3.968  11.192  0.0642 -0.2745 -0.2368
18925TIP3    H178190   4.580   4.059  11.173  0.7954 -0.4269 -0.1909
18925TIP3    H278191   4.489   3.972  11.257  0.8501  0.2737  0.6072
18926TIP3   OH278192   0.540   1.636  12.293  0.9795  0.3757 -0.1781
18926TIP3    H178193   0.611   1.574  12.278 -0.7075 -2.0097  0.9735
18926TIP3    H278194   0.538   1.649  12.388 -0.4742 -0.1386 -0.1051
18927TIP3   OH278195   4.140   4.245   5.746 -0.4948 -0.2275  0.3845
18927TIP3    H178196   4.163   4.194   5.669 -0.3842  0.3405  0.0357
18927TIP3    H278197   4.216   4.238   5.804 -1.4101 -2.4947  1.4543
18928TIP3   OH278198   0.048   0.558   5.942 -0.3472  0.0174  0.0619
18928TIP3    H178199   0.074   0.552   6.034 -1.4868 -1.4478  0.3141
18928TIP3    H278200  -0.043   0.586   5.944  0.1949  2.0002 -0.7226
18929TIP3   OH278201   5.430   6.311  10.879 -0.5643 -0.1537 -0.1405
18929TIP3    H178202   5.423   6.265  10.796  0.6511 -3.4045  1.3882
18929TIP3    H278203   5.517   6.290  10.912 -2.2283 -2.2623  3.6001
18930TIP3   OH278204   5.767   4.028  11.636  0.1768 -0.0416 -0.1770
18930TIP3    H178205   5.778   3.987  11.550 -0.7463  1.7223 -1.1944
18930TIP3    H278206   5.855   4.056  11.661  0.0954  2.2458 -2.0949
18931TIP3   OH278207   3.617   3.681  12.777  0.5683  0.6792 -0.5595
18931TIP3    H178208   3.576   3.599  12.805 -0.6633  1.8415  1.3327
18931TIP3    H278209   3.677   3.656  12.707  0.4912 -1.8659  0.1868
18932TIP3   OH278210   2.990   4.907  16.657  0.1599  0.8050  0.5115
18932TIP3    H178211   2.928   4.843  16.623  0.2107  1.2460 -0.4487
18932TIP3    H278212   3.016   4.872  16.742 -0.5248  0.0345  0.4209
18933TIP3   OH278213   4.478   6.739   2.362  0.8357  0.2118 -0.0886
18933TIP3    H178214   4.412   6.744   2.432 -0.4461 -0.3709 -1.2087
18933TIP3    H278215   4.541   6.674   2.392 -1.5855 -2.7203 -0.9110
18934TIP3   OH278216   6.299   4.995  15.019 -0.3322  0.1763 -0.0854
18934TIP3    H178217   6.335   5.082  15.031 -0.9766  0.5874 -1.0321
18934TIP3    H278218   6.224   4.991  15.078 -0.0398  0.0843  0.2904
18935TIP3   OH278219   3.374   5.137  12.673 -0.0501 -0.0065 -0.3891
18935TIP3    H178220   3.431   5.214  12.674 -1.2408  0.9352  1.3612
18935TIP3    H278221   3.392   5.094  12.757 -0.9419 -0.4423 -0.4163
18936TIP3   OH278222   6.754   3.246   5.118 -0.1129  0.6857 -0.1720
18936TIP3    H178223   6.774   3.324   5.170 -0.7969  0.1176  1.0079
18936TIP3    H278224   6.684   3.273   5.059  0.3205  1.2138 -0.4476
18937TIP3   OH278225   5.866   3.540  11.501 -0.1843 -0.4699  0.2485
18937TIP3    H178226   5.812   3.602  11.452 -1.7115 -1.0594  1.0999
18937TIP3    H278227   5.809   3.464  11.513  0.7141 -0.9689  1.5455
18938TIP3   OH278228   1.132   5.063   1.352  0.0242  0.4038  0.2999
18938TIP3    H178229   1.048   5.055   1.397  0.1839  1.9864  0.9508
18938TIP3    H278230   1.188   5.109   1.415  1.0745  0.2812 -0.5181
18939TIP3   OH278231   4.569   5.689   2.828  0.1635  0.6156 -0.4794
18939TIP3    H178232   4.627   5.654   2.760  3.1723 -0.0791  2.1768
18939TIP3    H278233   4.498   5.625   2.835  0.0987  0.4216 -2.5223
18940TIP3   OH278234   2.982   6.182  14.882  0.3414  0.0857  0.6558
18940TIP3    H178235   3.000   6.276  14.875 -0.9114  0.3257  0.4176
18940TIP3    H278236   2.887   6.177  14.894  0.2943 -1.1777 -0.0938
18941TIP3   OH278237   5.657   4.042   3.483  0.1177 -0.0601 -0.1568
18941TIP3    H178238   5.587   4.090   3.528 -0.6286 -0.6749 -0.6214
18941TIP3    H278239   5.737   4.069   3.526 -0.5343 -0.3382  1.2981
18942TIP3   OH278240   4.525   0.819  14.015 -0.2924  0.4593  0.4949
18942TIP3    H178241   4.499   0.738  13.972  1.3986 -0.6720  1.5219
18942TIP3    H278242   4.470   0.886  13.974 -0.1002 -0.8232 -2.0709
18943TIP3   OH278243   2.519   6.381   1.060  0.4988  0.7234  0.0366
18943TIP3    H178244   2.588   6.320   1.034  0.0878  0.2016  0.1496
18943TIP3    H278245   2.439   6.345   1.021  0.2177  1.0759  0.2800
18944TIP3   OH278246   5.936   1.969   5.201 -0.1165  0.6363 -0.0455
18944TIP3    H178247   5.858   1.944   5.151  0.8092 -3.5288  0.2635
18944TIP3    H278248   5.908   1.969   5.292 -0.1741  1.0371 -0.0622
18945TIP3   OH278249   2.364   3.181   1.376  0.3944  0.0939 -0.3613
18945TIP3    H178250   2.347   3.185   1.470  1.3160  0.5104 -0.2099
18945TIP3    H278251   2.390   3.090   1.360  0.0272 -0.0336 -0.2628
18946TIP3   OH278252   4.742   2.071  12.406  0.1862 -0.0058 -0.3328
18946TIP3    H178253   4.676   2.008  12.377 -0.1991 -0.5592  1.6083
18946TIP3    H278254   4.713   2.155  12.371 -0.2821 -0.6170 -1.4412
18947TIP3   OH278255   1.337   2.127  12.945  0.2554 -0.3698 -0.0817
18947TIP3    H178256   1.330   2.168  12.859  0.5669 -0.1562 -0.0072
18947TIP3    H278257   1.395   2.052  12.932 -0.3244 -0.8010 -0.2203
18948TIP3   OH278258   1.053   4.154   3.365  0.4967  0.6420 -0.1645
18948TIP3    H178259   1.032   4.123   3.453 -0.9394  0.2696 -0.6093
18948TIP3    H278260   1.148   4.169   3.367  0.3349  1.6900  1.7527
18949TIP3   OH278261   3.237   5.723   2.691  0.0519  0.2228 -0.4596
18949TIP3    H178262   3.249   5.686   2.604  0.4752 -0.0956 -0.2706
18949TIP3    H278263   3.167   5.670   2.730  0.2627 -0.0115 -0.3971
18950TIP3   OH278264   0.318   0.514   2.068 -0.1530  0.4894  0.0094
18950TIP3    H178265   0.339   0.606   2.085  0.5695  0.4697 -0.7343
18950TIP3    H278266   0.397   0.478   2.027  0.0303 -0.7864  1.3907
18951TIP3   OH278267   3.155   4.304   5.375  0.6063  0.0222 -0.2382
18951TIP3    H178268   3.088   4.236   5.370  0.3669  0.1789  0.6187
18951TIP3    H278269   3.161   4.339   5.286 -0.1365 -0.2986 -0.4214
18952TIP3   OH278270   3.921   0.948  15.644  0.3781  0.3535  0.6467
18952TIP3    H178271   3.985   0.892  15.687 -1.4446  0.1520  3.3162
18952TIP3    H278272   3.918   1.028  15.697 -0.2979  1.0980 -0.4560
18953TIP3   OH278273   1.484   0.727  17.044 -0.1725  0.3176  0.2110
18953TIP3    H178274   1.429   0.679  16.982  0.0983  0.2074  0.0584
18953TIP3    H278275   1.441   0.812  17.052  1.2439  1.3623 -2.2380
18954TIP3   OH278276   6.710   6.205   4.213  0.4816 -0.2601  0.6488
18954TIP3    H178277   6.644   6.156   4.262  0.4826 -1.7613 -0.7382
18954TIP3    H278278   6.668   6.223   4.129  0.9585  1.0273  0.6696
18955TIP3   OH278279   1.442   0.793   2.647 -0.4935 -0.3105  0.5747
18955TIP3    H178280   1.369   0.758   2.699 -0.2711 -0.8689  0.5113
18955TIP3    H278281   1.517   0.739   2.672 -0.5773 -1.2144 -1.0266
18956TIP3   OH278282   3.599   5.491   0.088 -0.0987  0.0363  0.1571
18956TIP3    H178283   3.558   5.563   0.039  0.8929  0.3370 -0.2476
18956TIP3    H278284   3.571   5.412   0.041 -2.5448 -0.0205  1.5589
18957TIP3   OH278285   0.405   0.408  13.875  0.1789  0.0164  0.3474
18957TIP3    H178286   0.428   0.455  13.955 -0.0844 -0.5761  0.7807
18957TIP3    H278287   0.489   0.379  13.839  0.4443  1.7114 -0.5083
18958TIP3   OH278288   1.946   0.638   4.391  0.2789 -0.1279 -0.4406
18958TIP3    H178289   2.040   0.657   4.387  0.6705 -1.7878 -0.0698
18958TIP3    H278290   1.931   0.580   4.316 -0.3114 -0.3714 -0.1366
18959TIP3   OH278291   5.756   3.338  16.394 -0.5149  0.2671  0.1858
18959TIP3    H178292   5.849   3.341  16.373 -0.5653 -0.2479 -0.1400
18959TIP3    H278293   5.718   3.409  16.342 -0.4861 -0.3511 -0.7131
18960TIP3   OH278294   0.570   1.664  15.747  0.1843 -0.0367  0.4831
18960TIP3    H178295   0.543   1.680  15.837 -1.9491 -0.6507  0.0169
18960TIP3    H278296   0.587   1.570  15.743  1.5745  0.1923  0.5290
18961TIP3   OH278297   6.533   2.823  16.889 -0.3332 -0.5722 -0.3740
18961TIP3    H178298   6.598   2.784  16.948  0.1656 -0.2299 -0.6831
18961TIP3    H278299   6.574   2.816  16.802 -0.0497  0.9827 -0.3948
18962TIP3   OH278300   0.456   4.330  14.605  0.1620  0.2952  0.3297
18962TIP3    H178301   0.445   4.292  14.518 -2.3362  1.5714  0.0117
18962TIP3    H278302   0.458   4.424  14.591 -0.5371  0.5355  1.6460
18963TIP3   OH278303   3.819   6.681   1.901  1.1550 -0.1520 -0.0661
18963TIP3    H178304   3.839   6.771   1.876 -0.8912  0.1569 -0.8195
18963TIP3    H278305   3.885   6.628   1.855  1.4756  0.8706 -0.8311
18964TIP3   OH278306   0.862   3.811   2.736  0.3593  0.0669 -0.5408
18964TIP3    H178307   0.892   3.801   2.826  0.4388 -1.8154 -0.7345
18964TIP3    H278308   0.849   3.721   2.705 -1.6139  0.7235 -1.7684
18965TIP3   OH278309   0.760   5.013   2.981  0.6572 -0.7666 -0.5663
18965TIP3    H178310   0.753   5.068   3.058 -0.7145 -1.8406  0.1081
18965TIP3    H278311   0.842   5.040   2.940  1.1701  0.1553  0.9879
18966TIP3   OH278312   6.094   3.293   0.287  0.2551 -0.2679  0.1011
18966TIP3    H178313   6.168   3.290   0.348 -0.9172 -2.1582  1.5504
18966TIP3    H278314   6.058   3.381   0.297  1.5258  0.2444  0.3367
18967TIP3   OH278315   1.930   6.399   6.134 -0.9492  0.9642  0.0214
18967TIP3    H178316   2.009   6.402   6.079 -1.6985 -1.8709 -1.4635
18967TIP3    H278317   1.864   6.448   6.084 -0.9114  0.6988 -0.2955
18968TIP3   OH278318   2.964   3.066   2.651 -0.3812 -0.3215  0.6057
18968TIP3    H178319   3.025   3.052   2.724  0.7706  0.5793 -0.1568
18968TIP3    H278320   2.964   3.160   2.637 -1.9677 -0.2955  0.5670
18969TIP3   OH278321   2.999   1.726   5.518  0.2053  0.1520 -0.8324
18969TIP3    H178322   2.981   1.714   5.425  0.4652  1.3351 -1.0436
18969TIP3    H278323   2.943   1.799   5.545 -1.5097 -1.5242  0.4718
18970TIP3   OH278324   0.286   0.469   1.487 -0.2452  0.0542  0.1684
18970TIP3    H178325   0.324   0.382   1.474  1.7241  0.8313  0.3418
18970TIP3    H278326   0.289   0.483   1.581 -0.0380  0.5151  0.0979
18971TIP3   OH278327   6.490   1.890  16.208 -0.2180 -0.3081  0.2892
18971TIP3    H178328   6.573   1.843  16.193 -0.9582 -1.5263 -0.1310
18971TIP3    H278329   6.499   1.926  16.296  1.0405  0.1983 -0.0203
18972TIP3   OH278330   3.610   2.657  13.344 -0.4966  0.1078 -0.2060
18972TIP3    H178331   3.557   2.613  13.411 -1.3734  2.9858  1.1471
18972TIP3    H278332   3.683   2.694  13.393  1.1269 -1.1413 -1.5841
18973TIP3   OH278333   3.448   0.789  12.400  0.5874  0.0115 -0.6587
18973TIP3    H178334   3.454   0.694  12.385 -0.2440  0.1311 -1.9101
18973TIP3    H278335   3.539   0.817  12.410  0.8376 -0.9370 -0.1019
18974TIP3   OH278336   5.281   6.034   1.076  0.4638 -0.5810 -0.2126
18974TIP3    H178337   5.233   6.116   1.090 -1.9009 -1.6860 -1.2265
18974TIP3    H278338   5.325   6.017   1.159  2.1850  2.3712 -0.4096
18975TIP3   OH278339   3.938   5.382   3.284  0.5752  0.4760  0.4147
18975TIP3    H178340   3.895   5.446   3.228  0.0394  0.6612  1.0306
18975TIP3    H278341   4.027   5.375   3.248  0.1596  0.3762 -0.6256
18976TIP3   OH278342   6.219   0.849   3.275  0.1732 -0.3295 -0.7046
18976TIP3    H178343   6.294   0.870   3.220 -0.4873  0.7834 -1.2158
18976TIP3    H278344   6.245   0.877   3.363  0.4674 -0.2225 -0.8245
18977TIP3   OH278345   0.200   0.714  17.188  0.1710 -0.7115 -0.4691
18977TIP3    H178346   0.234   0.692  17.101 -2.5239  0.5239 -1.9645
18977TIP3    H278347   0.155   0.634  17.217  1.1451 -1.1523 -0.1384
18978TIP3   OH278348   4.428   5.480   0.679  0.2995 -0.1882 -0.3083
18978TIP3    H178349   4.422   5.568   0.715 -0.9975 -0.6093  0.5649
18978TIP3    H278350   4.431   5.493   0.584 -0.0194  0.7921 -0.1927
18979TIP3   OH278351   2.469   1.205   3.513 -0.1667  0.4520  0.1507
18979TIP3    H178352   2.435   1.172   3.596 -0.0839 -0.1112 -0.0355
18979TIP3    H278353   2.553   1.160   3.503 -2.0719 -3.0209 -2.3819
18980TIP3   OH278354   0.074   5.892  12.925  0.1737 -0.2094  0.3407
18980TIP3    H178355   0.109   5.917  13.011  0.5287 -1.4620  0.5763
18980TIP3    H278356   0.141   5.921  12.863  0.1841  0.1855  0.5339
18981TIP3   OH278357   5.543   1.576   2.034 -0.0241  0.3172 -0.2026
18981TIP3    H178358   5.634   1.586   2.063  0.6376 -0.5765 -1.8067
18981TIP3    H278359   5.493   1.633   2.092  0.9553 -2.1972  3.4868
18982TIP3   OH278360   1.412   1.889   4.314 -0.3275 -0.2356  0.2062
18982TIP3    H178361   1.434   1.917   4.225 -3.0044  0.0737 -0.4308
18982TIP3    H278362   1.487   1.835   4.341  0.7083 -0.0538 -2.0703
18983TIP3   OH278363   5.804   4.053  17.190  0.6096  0.0662 -0.2494
18983TIP3    H178364   5.852   4.116  17.245  0.6753  0.9082 -1.2349
18983TIP3    H278365   5.745   4.108  17.138 -1.1053 -0.9023  0.5897
18984TIP3   OH278366   2.797   6.677  14.180 -0.7906  0.3723 -0.1286
18984TIP3    H178367   2.794   6.696  14.086  0.5318 -1.9364 -0.7142
18984TIP3    H278368   2.890   6.667  14.200 -1.1359 -1.3212  0.9092
18985TIP3   OH278369   2.672   5.205   0.651  0.3609  0.2141  0.0509
18985TIP3    H178370   2.577   5.209   0.659  0.1497 -0.7724 -1.5717
18985TIP3    H278371   2.702   5.291   0.680 -1.1604  1.1731 -1.0396
18986TIP3   OH278372   5.527   0.769  14.176  0.0250 -0.4648  0.3000
18986TIP3    H178373   5.600   0.830  14.166 -2.3005  2.5909  0.5552
18986TIP3    H278374   5.503   0.746  14.086  0.4457 -0.4037  0.1704
18987TIP3   OH278375   5.192   5.622  16.677  0.4427 -0.1475 -0.3908
18987TIP3    H178376   5.194   5.715  16.701  0.1902 -0.5910  1.4956
18987TIP3    H278377   5.150   5.579  16.752  0.5025 -1.7819 -1.2624
18988TIP3   OH278378   4.904   4.696  14.890 -0.2043  0.1025 -0.1044
18988TIP3    H178379   4.815   4.663  14.897  0.3917 -1.2947  3.0382
18988TIP3    H278380   4.938   4.659  14.809 -1.7258 -1.4628 -0.0869
18989TIP3   OH278381   3.769   1.353  15.349  0.0678  0.2604  0.3415
18989TIP3    H178382   3.819   1.351  15.268  0.4277  0.4567  0.5582
18989TIP3    H278383   3.736   1.443  15.355 -1.4649 -0.1991 -0.4916
18990TIP3   OH278384   2.294   4.542   4.544  0.2005 -0.8720 -0.3164
18990TIP3    H178385   2.265   4.621   4.589 -0.6890 -0.8381 -0.9409
18990TIP3    H278386   2.355   4.501   4.606 -2.2210 -1.7053  1.7087
18991TIP3   OH278387   5.188   0.032  11.579 -0.4181  0.1809  0.3386
18991TIP3    H178388   5.144   0.107  11.618  2.1390  0.3377  3.2825
18991TIP3    H278389   5.195  -0.032  11.650  0.7271 -1.3233 -1.0425
18992TIP3   OH278390   4.193   0.729  13.995 -0.4029 -0.2210  0.5220
18992TIP3    H178391   4.230   0.787  14.061 -0.2335  0.5973 -0.2761
18992TIP3    H278392   4.241   0.646  14.006  1.7521  0.8076 -0.5161
18993TIP3   OH278393   4.428   4.238   1.487 -0.1211  0.3549  0.1353
18993TIP3    H178394   4.334   4.251   1.475  0.0530 -0.5777 -2.8291
18993TIP3    H278395   4.447   4.155   1.444  2.5042  1.8887 -1.9486
18994TIP3   OH278396   2.183   2.305  16.457 -0.0594  0.1671  0.1040
18994TIP3    H178397   2.154   2.360  16.530  1.6968  0.6533  0.4679
18994TIP3    H278398   2.269   2.339  16.433  0.8225 -2.0433 -0.0607
18995TIP3   OH278399   3.080   1.144  11.284  0.5511  0.1582  0.1308
18995TIP3    H178400   3.025   1.115  11.212 -1.8650 -0.0647  1.9302
18995TIP3    H278401   3.170   1.136  11.251 -0.4403  0.0982 -2.7901
18996TIP3   OH278402   5.288   5.537  13.998  0.0311  0.6207  0.3519
18996TIP3    H178403   5.226   5.467  14.017 -1.1200  1.6302  0.4407
18996TIP3    H278404   5.358   5.525  14.063  0.5296 -1.1845 -0.4477
18997TIP3   OH278405   1.420   2.114   5.559  0.3556  0.1723  0.0884
18997TIP3    H178406   1.364   2.065   5.499  1.9195 -1.7002  0.0567
18997TIP3    H278407   1.460   2.182   5.505 -0.3830  0.2953 -0.3159
18998TIP3   OH278408   3.866   3.021  14.786 -0.1262 -0.2655 -0.4457
18998TIP3    H178409   3.914   3.042  14.866  0.7660 -1.5387 -0.6082
18998TIP3    H278410   3.774   3.030  14.809  0.1133  3.2840 -0.3936
18999TIP3   OH278411   5.130   0.129  13.303 -0.3418  0.2385 -0.5165
18999TIP3    H178412   5.200   0.195  13.309 -0.7806  0.6817 -0.2110
18999TIP3    H278413   5.110   0.107  13.394 -1.2082  0.7722 -0.5649
19000TIP3   OH278414   1.107   0.190   2.710  0.4494  0.3326 -0.0444
19000TIP3    H178415   1.101   0.137   2.630  1.9768 -0.7345  0.5010
19000TIP3    H278416   1.032   0.162   2.763  0.0138  0.3063 -0.6624
19001TIP3   OH278417   5.977   5.384   2.421  0.4348 -0.8704 -0.3467
19001TIP3    H178418   5.922   5.366   2.345  1.8921 -2.0655 -1.1775
19001TIP3    H278419   6.007   5.474   2.408 -3.5130  1.0157  1.6391
19002TIP3   OH278420   6.243   0.380   5.731  0.4949  0.8696 -0.3154
19002TIP3    H178421   6.271   0.289   5.724  0.4559  0.7680  0.6784
19002TIP3    H278422   6.324   0.431   5.733  0.5113  0.8728 -1.0691
19003TIP3   OH278423   6.315   4.781   2.231  0.3835 -0.3596  0.2326
19003TIP3    H178424   6.398   4.777   2.184 -0.3180  0.2709 -1.1563
19003TIP3    H278425   6.252   4.740   2.171 -0.4001 -0.3058  1.0000
19004TIP3   OH278426   2.259   1.054   1.634  0.1407  0.5015  0.4228
19004TIP3    H178427   2.297   1.140   1.652  1.2351 -0.2763  2.0647
19004TIP3    H278428   2.165   1.067   1.643 -0.0104  2.1491 -2.3226
19005TIP3   OH278429   3.237   2.374   6.838  0.0917 -0.1823 -0.4275
19005TIP3    H178430   3.272   2.295   6.797  0.2197 -0.3828  0.0599
19005TIP3    H278431   3.283   2.446   6.796 -0.5698 -0.3184 -1.4151
19006TIP3   OH278432   4.278   0.614   0.691 -0.0467  0.0885  0.1640
19006TIP3    H178433   4.304   0.643   0.779 -0.1744 -0.4788  0.3959
19006TIP3    H278434   4.193   0.573   0.704 -2.1552  3.6760 -0.8710
19007TIP3   OH278435   6.754   2.357   2.985 -0.2845 -0.0410 -0.0496
19007TIP3    H178436   6.801   2.371   3.067 -0.8162 -1.3321  0.4971
19007TIP3    H278437   6.751   2.262   2.975 -1.2143  0.0735 -0.9855
19008TIP3   OH278438   0.145   1.702  16.580  0.2074 -0.5279 -0.0374
19008TIP3    H178439   0.050   1.695  16.591  0.2892 -2.1220 -0.1599
19008TIP3    H278440   0.156   1.756  16.502 -0.5954 -0.5054 -0.1444
19009TIP3   OH278441   3.631   1.484  16.710 -0.1123 -0.1444 -0.4562
19009TIP3    H178442   3.673   1.503  16.794 -0.6335  0.8364 -0.4025
19009TIP3    H278443   3.617   1.570  16.671 -0.5311 -0.5567 -1.2231
19010TIP3   OH278444   5.107   1.804  11.212 -0.3507  0.6373  0.2811
19010TIP3    H178445   5.189   1.759  11.195 -0.6297  0.9017 -2.0707
19010TIP3    H278446   5.116   1.888  11.169 -2.7183 -0.2866 -2.2985
19011TIP3   OH278447   3.487   2.431  15.292 -0.0416  0.0262 -0.2052
19011TIP3    H178448   3.422   2.362  15.278  0.3616 -0.4949  0.4555
19011TIP3    H278449   3.500   2.434  15.386  0.9890  0.0308 -0.3270
19012TIP3   OH278450   4.157   2.380  12.274 -0.2271 -0.7634 -0.0816
19012TIP3    H178451   4.139   2.461  12.226 -1.3087 -0.8402  0.1806
19012TIP3    H278452   4.234   2.343  12.230 -0.4720 -0.2233 -0.9869
19013TIP3   OH278453   5.952   1.767  13.055  0.1983 -0.1495 -0.1416
19013TIP3    H178454   6.028   1.709  13.064  0.5294 -0.2209 -2.6520
19013TIP3    H278455   5.880   1.710  13.031 -1.1444 -0.2784  3.5390
19014TIP3   OH278456   6.408   4.922   4.655 -1.1487 -0.2272 -0.3982
19014TIP3    H178457   6.435   4.851   4.597 -1.1565 -1.7286  1.3106
19014TIP3    H278458   6.468   4.994   4.637  2.4992 -2.5207  1.4332
19015TIP3   OH278459   3.841   3.508  15.144 -0.4171  0.3177  0.0130
19015TIP3    H178460   3.917   3.503  15.085 -1.2768 -2.0224 -1.0031
19015TIP3    H278461   3.787   3.578  15.106  0.0656  0.3259 -0.6911
19016TIP3   OH278462   2.478   4.605  13.209 -0.0279  0.1479  0.6574
19016TIP3    H178463   2.408   4.607  13.274 -2.5299  1.6558 -1.8647
19016TIP3    H278464   2.510   4.695  13.204  1.3840 -0.3079  1.0001
19017TIP3   OH278465   0.777   2.607  11.366 -0.2235  0.6469 -0.1337
19017TIP3    H178466   0.824   2.568  11.292  1.1650 -0.5655  1.3383
19017TIP3    H278467   0.833   2.678  11.395 -0.1766  0.3502  0.5059
19018TIP3   OH278468   0.812   3.817   6.099  0.5152  0.0114 -0.4308
19018TIP3    H178469   0.789   3.816   6.192 -2.0330 -1.1124 -0.9827
19018TIP3    H278470   0.835   3.726   6.080 -0.2504 -0.0413 -1.1547
19019TIP3   OH278471   2.602   2.544  11.383 -0.1918 -0.5763  0.2845
19019TIP3    H178472   2.582   2.638  11.380 -1.8140 -0.8780  0.7434
19019TIP3    H278473   2.586   2.519  11.473 -0.0952 -1.3640  0.0870
19020TIP3   OH278474   1.680   4.175  12.192 -0.0123  0.4196  0.5792
19020TIP3    H178475   1.610   4.186  12.127  0.7259 -0.6091 -0.4128
19020TIP3    H278476   1.728   4.258  12.190 -0.6684  0.8069  0.6377
19021TIP3   OH278477   1.966   3.292  11.699 -0.1742 -0.5251 -0.2564
19021TIP3    H178478   1.951   3.266  11.790 -1.9427 -1.0584 -0.6709
19021TIP3    H278479   1.983   3.210  11.653 -0.5937 -0.3924 -0.6476
19022TIP3   OH278480   1.645   1.047  11.632  0.4127  0.0053 -0.4130
19022TIP3    H178481   1.656   1.100  11.711  0.3114  0.0925 -0.4566
19022TIP3    H278482   1.602   0.967  11.663  0.8299 -0.1804 -0.2995
19023TIP3   OH278483   0.277   0.432  10.884 -0.3896 -0.3883 -0.1836
19023TIP3    H178484   0.323   0.454  10.966  0.0302 -1.6582 -0.0553
19023TIP3    H278485   0.345   0.396  10.827 -0.9104 -0.6692 -0.6396
19024TIP3   OH278486   3.200   1.634   5.697  0.2891 -0.0062  0.8378
19024TIP3    H178487   3.131   1.658   5.635  0.8864  1.6242  0.7794
19024TIP3    H278488   3.157   1.639   5.783  0.2639  0.8190  0.7854
19025TIP3   OH278489   6.610   1.362   4.436 -0.3032  0.3850  0.2509
19025TIP3    H178490   6.580   1.272   4.453 -0.5374  0.6833  1.5116
19025TIP3    H278491   6.593   1.409   4.517 -0.9783  1.8053 -0.6671
19026TIP3   OH278492   2.401   0.241   1.400  0.0906 -0.6443  0.1053
19026TIP3    H178493   2.486   0.284   1.392  0.2981 -0.9041  0.8457
19026TIP3    H278494   2.376   0.253   1.492 -0.3591 -1.1553  0.0570
19027TIP3   OH278495   5.024   2.045  12.371  0.7144 -0.4739 -0.1803
19027TIP3    H178496   4.938   2.025  12.409  0.7919 -0.6013 -0.0719
19027TIP3    H278497   5.004   2.083  12.285  0.5594 -0.8162 -0.2964
19028TIP3   OH278498   3.165   2.443  13.886  0.3517 -0.1650 -0.6344
19028TIP3    H178499   3.085   2.489  13.861  1.4565  1.9710 -0.4952
19028TIP3    H278500   3.225   2.456  13.813  0.3179 -2.6454 -1.2137
19029TIP3   OH278501   2.115   5.179  12.456 -0.5791  0.4878  0.1855
19029TIP3    H178502   2.117   5.241  12.382  0.0543 -1.5012 -1.5744
19029TIP3    H278503   2.047   5.116  12.433 -1.7350  0.8692  2.2989
19030TIP3   OH278504   4.314   5.716   5.653  0.1799 -0.0153 -0.1276
19030TIP3    H178505   4.254   5.667   5.709  0.0142 -1.3718 -1.4453
19030TIP3    H278506   4.401   5.694   5.686  0.0913 -0.9716 -0.5000
19031TIP3   OH278507   0.988   4.456   5.171 -0.2030 -0.5035 -0.3051
19031TIP3    H178508   1.035   4.373   5.162 -0.1364 -0.5670  0.5369
19031TIP3    H278509   0.912   4.435   5.225 -1.0493 -0.3390 -1.3990
19032TIP3   OH278510   2.470   6.010   1.118  0.5574 -0.5073  0.0471
19032TIP3    H178511   2.417   6.011   1.039  1.0972 -0.7217 -0.3297
19032TIP3    H278512   2.554   6.049   1.091  0.7790 -0.6709  0.4846
19033TIP3   OH278513   2.685   2.639   6.382  1.3153  0.4138 -0.0950
19033TIP3    H178514   2.642   2.723   6.365 -0.6369 -0.3906  0.5210
19033TIP3    H278515   2.613   2.576   6.387  2.5024 -0.9079  1.8342
19034TIP3   OH278516   1.075   3.902   3.695 -0.1470  0.6946  0.0784
19034TIP3    H178517   1.040   3.858   3.617 -0.4287 -0.0677  0.6189
19034TIP3    H278518   1.170   3.899   3.684 -0.1227 -0.6808  0.4075
19035TIP3   OH278519   1.478   5.432   2.645 -0.5372 -0.3979  0.1169
19035TIP3    H178520   1.567   5.415   2.676 -0.1657 -2.0412 -1.6843
19035TIP3    H278521   1.470   5.382   2.564 -2.9820  0.0292  0.0065
19036TIP3   OH278522   5.821   1.209   1.169 -0.5323  0.6297  0.3486
19036TIP3    H178523   5.889   1.277   1.174  0.8112 -0.5601 -0.7971
19036TIP3    H278524   5.753   1.248   1.115  0.2291  1.0774 -0.3202
19037TIP3   OH278525   0.968   3.318  12.528  0.0509  0.2045  0.1481
19037TIP3    H178526   0.983   3.277  12.613 -0.2149  2.1904  1.2150
19037TIP3    H278527   0.877   3.296  12.508  0.2897 -0.7693  0.0604
19038TIP3   OH278528   2.788   6.318   0.639  0.3484 -0.4725 -0.3791
19038TIP3    H178529   2.709   6.299   0.690 -0.5129 -1.3921 -1.9821
19038TIP3    H278530   2.756   6.338   0.551  1.8480  0.2698 -0.7894
19039TIP3   OH278531   5.799   4.862  15.779 -0.2492  0.2754  0.1947
19039TIP3    H178532   5.864   4.861  15.849 -1.0020  2.3171  0.9958
19039TIP3    H278533   5.810   4.948  15.738 -1.1995 -0.0907 -0.8589
19040TIP3   OH278534   3.524   5.223  15.475  0.0882  0.0896  0.1708
19040TIP3    H178535   3.546   5.191  15.562  0.4189 -2.3641 -0.7488
19040TIP3    H278536   3.604   5.210  15.424 -0.8641 -0.9781 -1.1218
19041TIP3   OH278537   5.696   4.811  11.316 -0.1666  0.4584 -0.8526
19041TIP3    H178538   5.628   4.873  11.289 -0.4388  0.0412 -1.1467
19041TIP3    H278539   5.662   4.725  11.289  0.0816  0.1499 -0.2155
19042TIP3   OH278540   0.977   0.230  14.343  0.4697  0.4339  0.5689
19042TIP3    H178541   1.042   0.162  14.324  0.2503  0.2745  0.3803
19042TIP3    H278542   0.895   0.195  14.308  0.4134  0.9235  0.1937
19043TIP3   OH278543   5.411   2.327   6.325  0.7689  0.5914  0.5964
19043TIP3    H178544   5.484   2.335   6.386 -1.1283  1.5818  2.9100
19043TIP3    H278545   5.385   2.417   6.306  1.0021  0.2911 -1.3790
19044TIP3   OH278546   6.591   2.132   5.735 -0.2384  0.1227 -0.5901
19044TIP3    H178547   6.654   2.064   5.714  0.3177  0.3128  0.4013
19044TIP3    H278548   6.507   2.087   5.738 -0.3818  0.0687 -3.0863
19045TIP3   OH278549   0.263   4.876  16.530 -0.2138  0.3527  0.2113
19045TIP3    H178550   0.211   4.797  16.515  0.2556  0.2743 -1.1320
19045TIP3    H278551   0.311   4.889  16.448  0.2489  1.6390  0.6635
19046TIP3   OH278552   4.913   0.642   1.324  0.1304 -0.4085 -0.3983
19046TIP3    H178553   4.965   0.692   1.262 -1.4069  0.8451 -0.7530
19046TIP3    H278554   4.943   0.552   1.315  0.9241 -0.0134 -1.9146
19047TIP3   OH278555   4.063   6.679  16.980 -0.2027  0.5544  0.1810
19047TIP3    H178556   3.985   6.707  17.028  0.9629  0.9505  1.9583
19047TIP3    H278557   4.135   6.719  17.028  1.1745 -0.8487 -0.6538
19048TIP3   OH278558   0.309   6.327  16.520 -0.0280 -0.5299  0.2284
19048TIP3    H178559   0.327   6.292  16.433 -0.6933 -1.1308  0.3208
19048TIP3    H278560   0.323   6.421  16.512  0.8127 -0.6860 -0.2852
19049TIP3   OH278561   0.704   5.669  15.739  0.3811  0.2577  0.7830
19049TIP3    H178562   0.779   5.643  15.792  0.1122  1.1914  1.6755
19049TIP3    H278563   0.693   5.763  15.758 -0.8609  0.1914  0.5077
19050TIP3   OH278564   1.255   4.594   2.108  0.0942 -0.2947 -0.1416
19050TIP3    H178565   1.218   4.551   2.031 -0.8375 -0.9225  0.6411
19050TIP3    H278566   1.205   4.559   2.182  1.7821 -0.6584  0.8994
19051TIP3   OH278567   1.301   6.600   4.599 -0.0592  0.8054 -0.6671
19051TIP3    H178568   1.252   6.526   4.634  1.9695 -0.1699  0.3015
19051TIP3    H278569   1.254   6.677   4.631  0.1341 -0.0742  1.9597
19052TIP3   OH278570   2.249   3.879  14.526  0.3564 -0.8617 -0.5429
19052TIP3    H178571   2.222   3.877  14.618  2.4517 -3.8529  0.1717
19052TIP3    H278572   2.182   3.931  14.482 -0.6007  0.8857  2.6757
19053TIP3   OH278573   0.107   0.344   2.138  0.1188  0.1847  0.1749
19053TIP3    H178574   0.106   0.289   2.060  0.6590  1.8860 -1.1102
19053TIP3    H278575   0.187   0.396   2.130 -0.5315  1.4093  1.1158
19054TIP3   OH278576   6.527   2.128  13.221 -0.2831  0.5979 -0.2024
19054TIP3    H178577   6.595   2.060  13.231 -0.2547  0.7364  0.5549
19054TIP3    H278578   6.511   2.130  13.126 -1.8987 -2.0579 -0.0870
19055TIP3   OH278579   0.317   2.103   0.122 -0.3268  0.3975  0.1447
19055TIP3    H178580   0.279   2.019   0.149  1.6319 -0.3082  0.8808
19055TIP3    H278581   0.249   2.143   0.068 -1.2759 -1.7277 -0.3634
19056TIP3   OH278582   0.971   0.083   1.503 -0.1932 -0.2656 -0.5485
19056TIP3    H178583   1.025   0.161   1.515 -0.4247 -0.1076 -0.5224
19056TIP3    H278584   0.989   0.054   1.414 -0.5600  0.1695 -0.7701
19057TIP3   OH278585   3.154   2.805   0.791  0.3983  0.1739  0.2339
19057TIP3    H178586   3.185   2.734   0.847  1.4455  0.0140 -0.5270
19057TIP3    H278587   3.225   2.870   0.793  1.5389 -0.8578 -2.7267
19058TIP3   OH278588   6.039   3.036  15.964  0.0247 -0.4699  0.3888
19058TIP3    H178589   5.959   3.071  15.923 -0.8542 -1.1591  1.4519
19058TIP3    H278590   6.108   3.097  15.938 -0.4298 -0.9304 -2.2197
19059TIP3   OH278591   1.887   1.432  13.390  0.5275  0.0333 -0.3157
19059TIP3    H178592   1.981   1.436  13.410  0.9264 -1.5422 -1.5952
19059TIP3    H278593   1.854   1.362  13.446 -0.0761  1.0962  0.6916
19060TIP3   OH278594   5.495   6.009   2.601  0.5688  0.5073 -0.2940
19060TIP3    H178595   5.495   5.933   2.542  2.3061  1.4280 -1.5756
19060TIP3    H278596   5.403   6.031   2.612  0.0919 -1.0362 -0.8524
19061TIP3   OH278597   1.712   4.841  10.667 -0.7211  0.1703 -0.8965
19061TIP3    H178598   1.659   4.775  10.623 -1.5370 -0.1140  0.4379
19061TIP3    H278599   1.671   4.925  10.643 -0.5062  0.0993 -1.5177
19062TIP3   OH278600   3.731   5.375  14.690  0.8379  0.1903  0.0515
19062TIP3    H178601   3.797   5.317  14.652  2.5128  0.0581  2.8188
19062TIP3    H278602   3.775   5.459  14.698 -0.9850  1.4692 -2.2869
19063TIP3   OH278603   5.444   6.043  17.220 -0.0202 -0.2481 -0.1840
19063TIP3    H178604   5.490   6.127  17.215 -0.8034  0.1723 -0.5413
19063TIP3    H278605   5.487   5.989  17.153 -2.1413  1.2186 -2.9779
19064TIP3   OH278606   1.326   6.163   2.196 -0.2544  0.1797  0.2589
19064TIP3    H178607   1.327   6.200   2.285  0.1764 -0.5659  0.5770
19064TIP3    H278608   1.419   6.151   2.175 -0.3805 -1.2128  0.3882
19065TIP3   OH278609   5.400   0.902  16.783 -0.2209  0.5805 -0.7752
19065TIP3    H178610   5.380   0.911  16.689  0.1701 -1.1128 -1.0497
19065TIP3    H278611   5.488   0.865  16.785 -0.2567  0.5338  0.2780
19066TIP3   OH278612   6.611   0.435   4.077 -0.7588  0.5490 -0.1411
19066TIP3    H178613   6.546   0.437   4.147  0.7385 -0.0381  1.3180
19066TIP3    H278614   6.562   0.402   4.001 -2.3512  0.9210  0.6652
19067TIP3   OH278615   5.639   4.092   5.186 -0.5877  0.1804 -0.1043
19067TIP3    H178616   5.726   4.069   5.218 -0.2200  1.4537 -0.1461
19067TIP3    H278617   5.588   4.011   5.194  0.4320 -0.4205  0.4648
19068TIP3   OH278618   4.576   2.478  15.274  0.1773 -0.3034 -0.3163
19068TIP3    H178619   4.654   2.531  15.261  0.9180 -1.1459  0.5389
19068TIP3    H278620   4.537   2.511  15.354  0.3114 -0.6387 -0.1076
19069TIP3   OH278621   4.740   6.659   3.185  0.2760  0.0792 -0.6426
19069TIP3    H178622   4.682   6.643   3.260  0.2506  0.6409 -0.5364
19069TIP3    H278623   4.739   6.577   3.136 -0.0118 -0.1679 -0.2341
19070TIP3   OH278624   3.764   2.204  14.483 -0.0281  0.3377 -0.3959
19070TIP3    H178625   3.820   2.193  14.406 -1.2100  2.3531 -1.6348
19070TIP3    H278626   3.700   2.132  14.477 -0.2459  0.6026 -1.4473
19071TIP3   OH278627   5.620   4.033   5.794  0.0924 -0.4190 -0.3797
19071TIP3    H178628   5.601   3.940   5.808 -0.5649 -0.5255 -1.7801
19071TIP3    H278629   5.677   4.058   5.867 -1.4495 -1.3777  1.2113
19072TIP3   OH278630   4.724   6.348  15.631  0.1084  0.1532 -0.0024
19072TIP3    H178631   4.777   6.278  15.593 -1.0282 -1.1917  0.8328
19072TIP3    H278632   4.766   6.428  15.600  3.5295 -0.7668  1.7026
19073TIP3   OH278633   5.103   4.290  14.173 -0.3223 -0.5161 -0.8956
19073TIP3    H178634   5.139   4.264  14.258 -0.6364  0.2507 -0.5154
19073TIP3    H278635   5.123   4.383  14.166 -0.6935 -0.4737 -1.4564
19074TIP3   OH278636   0.604   3.839   5.615  0.4431 -0.3890 -0.1424
19074TIP3    H178637   0.565   3.885   5.689  0.4304  0.2441 -0.5388
19074TIP3    H278638   0.562   3.752   5.616  1.4185 -0.8734  1.3859
19075TIP3   OH278639   0.181   0.658  15.979 -0.4416 -0.7939  0.2828
19075TIP3    H178640   0.137   0.735  15.943  0.8694 -1.8867 -4.4193
19075TIP3    H278641   0.256   0.694  16.026 -1.5718  0.8324  0.9547
19076TIP3   OH278642   6.410   2.288  15.763  0.2698  0.3954 -0.0167
19076TIP3    H178643   6.355   2.279  15.685 -0.6530 -1.5868  0.8002
19076TIP3    H278644   6.431   2.381  15.767 -0.9287  0.7838 -1.7685
19077TIP3   OH278645   5.330   5.324   3.563  0.8736 -0.0922 -0.4061
19077TIP3    H178646   5.346   5.240   3.519  1.1204 -0.0618 -0.3761
19077TIP3    H278647   5.399   5.330   3.629  1.0348  0.2668 -0.6009
19078TIP3   OH278648   5.755   1.399   3.438 -0.1583  0.5722 -0.1196
19078TIP3    H178649   5.806   1.385   3.359  0.2080  1.3221 -0.0252
19078TIP3    H278650   5.717   1.486   3.427 -0.1607  0.6534  0.4936
19079TIP3   OH278651   5.461   0.723  15.435  0.0587 -0.6103 -0.0090
19079TIP3    H178652   5.489   0.646  15.484  0.7133 -0.2625  0.1810
19079TIP3    H278653   5.539   0.779  15.432 -0.4477  0.1134  0.0015
19080TIP3   OH278654   3.765   2.716  13.915  0.5536 -0.3332 -0.3123
19080TIP3    H178655   3.855   2.683  13.926  0.9856  0.8341 -0.2204
19080TIP3    H278656   3.768   2.804  13.952 -1.2132 -1.0904  1.8604
19081TIP3   OH278657   5.563   0.009   4.279  0.2712  0.3847 -0.2830
19081TIP3    H178658   5.536  -0.034   4.198 -0.2798  0.3961 -0.1119
19081TIP3    H278659   5.657  -0.004   4.284 -0.1754 -3.5819  1.3196
19082TIP3   OH278660   5.264   5.836  16.847 -0.0440  0.2431 -0.7683
19082TIP3    H178661   5.192   5.899  16.842 -1.1974 -1.0887 -1.8201
19082TIP3    H278662   5.276   5.820  16.940 -2.5741 -1.0241 -0.5588
19083TIP3   OH278663   1.101   4.241  13.409  0.2377  0.1535  0.1369
19083TIP3    H178664   1.195   4.243  13.426  0.2436 -0.0625  0.1354
19083TIP3    H278665   1.074   4.152  13.432  0.0466  0.1925  0.0696
19084TIP3   OH278666   0.551   1.432  10.744  0.2270  0.4595 -0.2775
19084TIP3    H178667   0.593   1.517  10.733  2.5438 -0.6987 -0.9263
19084TIP3    H278668   0.580   1.401  10.830 -0.7224  0.3489  0.0244
19085TIP3   OH278669   3.750   5.661   6.750  0.7694  0.2383 -0.1444
19085TIP3    H178670   3.747   5.737   6.691 -2.0265  0.8581  0.6747
19085TIP3    H278671   3.688   5.599   6.712  0.1481 -0.0218  1.2451
19086TIP3   OH278672   4.810   2.445  15.506 -0.2949 -0.5606  0.2987
19086TIP3    H178673   4.880   2.456  15.570  1.0591 -1.9876 -0.8429
19086TIP3    H278674   4.736   2.492  15.543  1.8691  3.0780  0.5137
19087TIP3   OH278675   2.791   1.278   0.349  0.5355 -0.0050 -0.8343
19087TIP3    H178676   2.719   1.267   0.411  0.6277  0.1421 -0.7017
19087TIP3    H278677   2.790   1.197   0.298  0.3813 -0.0745 -0.7243
19088TIP3   OH278678   4.846   3.064  13.660  0.1597 -0.1833 -0.2715
19088TIP3    H178679   4.840   3.145  13.609 -0.6112 -0.3170 -0.3961
19088TIP3    H278680   4.938   3.061  13.688  1.0013 -0.8407 -2.8350
19089TIP3   OH278681   6.106   4.423  12.854 -0.6113  0.1886  0.6085
19089TIP3    H178682   6.092   4.500  12.910 -1.1108 -0.1388  0.9517
19089TIP3    H278683   6.193   4.434  12.818  0.1848 -0.1241  2.3208
19090TIP3   OH278684   1.652   1.233   4.307  0.3462  0.0551 -0.1212
19090TIP3    H178685   1.704   1.312   4.323 -1.8112  1.6772 -0.4909
19090TIP3    H278686   1.575   1.244   4.364 -0.5328 -1.2134 -1.0106
19091TIP3   OH278687   4.822   0.906  12.103 -0.3632 -0.8062 -0.1355
19091TIP3    H178688   4.760   0.945  12.165 -0.1784 -0.1702 -0.3505
19091TIP3    H278689   4.768   0.846  12.052 -0.6254 -0.9267  0.2710
19092TIP3   OH278690   4.957   2.973  16.150 -0.2236  0.0237  0.4783
19092TIP3    H178691   5.006   3.048  16.183 -0.5477  0.4241  0.0642
19092TIP3    H278692   4.965   2.979  16.055 -1.7546  0.5800  0.3566
19093TIP3   OH278693   5.264   5.079   3.480 -0.1046 -0.1934  0.1873
19093TIP3    H178694   5.329   5.063   3.411 -0.3412 -0.2962 -0.0159
19093TIP3    H278695   5.269   5.001   3.536  0.3201  0.0411  0.4739
19094TIP3   OH278696   6.064   0.825  11.334  0.0515 -0.3112  0.7217
19094TIP3    H178697   6.109   0.804  11.253 -0.4406  0.0455  0.3509
19094TIP3    H278698   6.068   0.745  11.386  2.1557  0.0488  1.1958
19095TIP3   OH278699   1.093   0.078  11.387 -0.5806 -0.1313 -0.1081
19095TIP3    H178700   1.064   0.063  11.477 -1.3356  0.3225 -0.2643
19095TIP3    H278701   1.024   0.038  11.333  0.1730 -0.9404 -0.4830
19096TIP3   OH278702   2.443   6.524   4.015  0.8316  0.4796  0.1047
19096TIP3    H178703   2.390   6.601   4.037  0.4066  0.6901 -1.4912
19096TIP3    H278704   2.510   6.558   3.955  1.2792 -0.2125  0.2040
19097TIP3   OH278705   3.899   5.744  11.943 -0.2614  0.1523 -0.0638
19097TIP3    H178706   3.805   5.757  11.958  0.1415  1.1061  1.9305
19097TIP3    H278707   3.941   5.777  12.022  1.7589 -0.6098 -0.7552
19098TIP3   OH278708   6.010   5.356   4.945 -0.2738  0.7026  0.1247
19098TIP3    H178709   5.925   5.312   4.952 -0.4644  0.8472 -1.0566
19098TIP3    H278710   6.024   5.366   4.851  1.1850  0.4418  0.2840
19099TIP3   OH278711   2.466   6.466  13.864  0.7322  0.2142 -0.2942
19099TIP3    H178712   2.438   6.556  13.845 -1.7774 -0.4566 -0.1439
19099TIP3    H278713   2.533   6.448  13.799  0.2340  1.7120 -1.2854
19100TIP3   OH278714   3.183   5.397  12.119 -0.6684  0.1091  0.0229
19100TIP3    H178715   3.165   5.338  12.192  1.1101  0.3921  0.7579
19100TIP3    H278716   3.157   5.484  12.151  0.0247  0.2194  0.3112
19101TIP3   OH278717   3.222   2.833  11.795  0.3530 -0.4628  0.0278
19101TIP3    H178718   3.166   2.792  11.861  0.2770  0.5239  0.5950
19101TIP3    H278719   3.299   2.777  11.790  0.6446 -0.2136  1.4232
19102TIP3   OH278720   3.411   0.931  14.697 -0.2165  0.1771  0.0434
19102TIP3    H178721   3.481   0.954  14.758 -2.3222  0.5175  2.4965
19102TIP3    H278722   3.389   0.840  14.717 -0.1989 -0.0815 -1.0295
19103TIP3   OH278723   5.047   2.410   5.934  0.1688  0.0279 -0.0985
19103TIP3    H178724   5.002   2.487   5.971 -1.0429  0.1804 -1.7506
19103TIP3    H278725   5.016   2.337   5.987 -0.7048  0.3632 -0.1256
19104TIP3   OH278726   1.910   0.429   4.239  0.2851  0.5721 -0.0444
19104TIP3    H178727   1.870   0.472   4.164 -2.8153  0.6485  1.4494
19104TIP3    H278728   1.914   0.336   4.214 -0.7673  0.5903 -0.3378
19105TIP3   OH278729   2.941   1.908  16.286 -0.0266 -0.0641 -0.2620
19105TIP3    H178730   2.927   1.818  16.315  0.7680 -0.4001 -0.8935
19105TIP3    H278731   2.889   1.961  16.347 -2.5989 -1.0961 -1.3948
19106TIP3   OH278732   0.265   1.603  16.934  0.2747  0.0173  0.4869
19106TIP3    H178733   0.251   1.528  16.992 -2.6509 -0.2748 -0.3919
19106TIP3    H278734   0.269   1.565  16.846  1.6393  0.6966  0.2316
19107TIP3   OH278735   1.754   5.662  16.301 -0.2889  0.0238  0.2507
19107TIP3    H178736   1.812   5.733  16.274 -1.5707  1.2048  0.5286
19107TIP3    H278737   1.804   5.582  16.281  2.3629  0.9410  2.4326
19108TIP3   OH278738   6.608   3.472   4.349 -0.2486  0.2034  0.0116
19108TIP3    H178739   6.543   3.429   4.405 -0.8958 -1.0939 -1.6691
19108TIP3    H278740   6.691   3.433   4.374 -0.2932  0.7941  1.1485
19109TIP3   OH278741   3.083   1.815  11.571  0.2375  0.0750 -0.3785
19109TIP3    H178742   3.012   1.863  11.528 -0.3209 -0.6701 -0.3189
19109TIP3    H278743   3.128   1.881  11.624 -0.5661  0.5195 -0.2230
19110TIP3   OH278744   6.170   4.518  15.000  0.1644  0.1547 -0.2808
19110TIP3    H178745   6.205   4.471  14.924  0.5887 -0.5984  0.3709
19110TIP3    H278746   6.084   4.548  14.972 -1.2301 -3.1284  0.0680
19111TIP3   OH278747   0.724   1.693   5.241 -0.0665 -0.0285 -0.0047
19111TIP3    H178748   0.691   1.694   5.151  0.8068 -3.1203 -0.4624
19111TIP3    H278749   0.796   1.757   5.240 -0.2370  0.1894 -1.4163
19112TIP3   OH278750   2.330   0.601   0.106 -0.1694 -0.1028  0.0921
19112TIP3    H178751   2.265   0.559   0.162 -0.4924  0.3890  0.0977
19112TIP3    H278752   2.290   0.685   0.082 -0.4609 -0.7097 -1.6660
19113TIP3   OH278753   4.892   6.509   3.530  0.3878 -0.0440 -1.0693
19113TIP3    H178754   4.974   6.557   3.519  0.0278  1.0864  0.7442
19113TIP3    H278755   4.919   6.417   3.534  1.5140  0.2755 -0.9360
19114TIP3   OH278756   5.569   0.892  10.678  0.1545 -0.0972  0.3216
19114TIP3    H178757   5.581   0.835  10.754 -1.4259  1.0674  1.5180
19114TIP3    H278758   5.567   0.832  10.603 -0.7296 -1.5575  1.4492
19115TIP3   OH278759   1.543   4.674  14.545 -0.0638  0.4000 -0.1154
19115TIP3    H178760   1.474   4.678  14.611  0.9407  1.1235  0.9302
19115TIP3    H278761   1.615   4.628  14.587  0.2749  0.0741 -1.0234
19116TIP3   OH278762   5.365   1.689   2.235 -0.2797 -0.2334 -0.0537
19116TIP3    H178763   5.295   1.734   2.186  0.4187  0.8561 -0.0778
19116TIP3    H278764   5.339   1.698   2.327 -0.4212 -0.2540 -0.0910
19117TIP3   OH278765   3.645   0.030  12.463  0.1978 -0.0988  0.3273
19117TIP3    H178766   3.551   0.024  12.444  0.5005  2.0450 -2.6440
19117TIP3    H278767   3.687   0.013  12.378  2.3629  1.3316  1.0444
19118TIP3   OH278768   5.108   3.353  12.943  0.1366  0.7451 -0.4202
19118TIP3    H178769   5.019   3.354  12.908 -0.1429 -0.2591  0.2016
19118TIP3    H278770   5.161   3.317  12.872 -0.2941 -0.5241 -0.1348
19119TIP3   OH278771   4.056   1.843   4.749  1.0442 -0.4326 -0.0021
19119TIP3    H178772   4.078   1.835   4.842  0.1646  0.6674  0.3168
19119TIP3    H278773   3.988   1.910   4.746  1.1969 -0.3161 -1.4671
19120TIP3   OH278774   2.734   2.892  12.455 -0.3954 -0.2938 -0.3998
19120TIP3    H178775   2.695   2.901  12.368 -1.0042  0.9774 -0.0296
19120TIP3    H278776   2.686   2.954  12.509  0.1154 -0.9111  0.8059
19121TIP3   OH278777   5.795   2.180   6.704 -0.1358  0.0346 -0.5265
19121TIP3    H178778   5.700   2.169   6.703 -0.2097  0.6435 -0.3410
19121TIP3    H278779   5.810   2.261   6.752  0.5929 -1.0656  1.2141
19122TIP3   OH278780   2.152   1.432   4.291  0.4158 -0.2285  0.0636
19122TIP3    H178781   2.108   1.467   4.214 -0.2601  0.6025  0.8033
19122TIP3    H278782   2.167   1.340   4.270 -0.4604 -0.2052 -0.7513
19123TIP3   OH278783   0.695   4.447   0.230  0.5446  0.3993 -0.2214
19123TIP3    H178784   0.683   4.442   0.135  2.2736 -1.3997 -0.4068
19123TIP3    H278785   0.631   4.385   0.265 -0.4265  1.4172 -0.1433
19124TIP3   OH278786   0.150   1.433  11.551  0.2266 -0.2317  0.7746
19124TIP3    H178787   0.219   1.419  11.485 -0.0215  0.2129  0.4172
19124TIP3    H278788   0.075   1.463  11.501  0.0191  0.0664  1.2602
19125TIP3   OH278789   1.201   5.028  13.127 -0.1883 -0.3086  0.3709
19125TIP3    H178790   1.135   5.084  13.168  0.1787 -0.5216  1.2575
19125TIP3    H278791   1.166   4.939  13.134 -0.6693 -0.2438 -0.8442
19126TIP3   OH278792   0.631   2.314  13.323  0.3273  0.0442 -0.1384
19126TIP3    H178793   0.570   2.330  13.251  1.3161  0.5754 -0.8897
19126TIP3    H278794   0.615   2.385  13.385  0.1652  0.1806 -0.3357
19127TIP3   OH278795   4.510   6.614   0.131  0.1481 -0.2878 -0.1520
19127TIP3    H178796   4.509   6.531   0.177  1.2955 -0.7908 -1.0012
19127TIP3    H278797   4.429   6.658   0.159 -0.2802 -1.5109  0.5893
19128TIP3   OH278798   4.148   6.055   4.290  0.3509  0.2371  0.3280
19128TIP3    H178799   4.159   6.021   4.201  0.2749 -1.2957  0.8795
19128TIP3    H278800   4.209   6.129   4.295  0.5749  0.1519 -0.8909
19129TIP3   OH278801   4.609   1.419  13.664 -0.0866 -1.1745  0.4185
19129TIP3    H178802   4.570   1.473  13.733  0.6738 -0.3449  0.2208
19129TIP3    H278803   4.605   1.474  13.585  2.1688 -0.7062  0.5536
19130TIP3   OH278804   6.533   2.592   2.172  0.0090  0.2584 -0.2914
19130TIP3    H178805   6.550   2.661   2.237 -1.1945  0.0431  0.2940
19130TIP3    H278806   6.619   2.555   2.154  0.8470  2.5133 -1.3430
19131TIP3   OH278807   5.192   6.293  16.463  0.1115 -0.1768  0.0592
19131TIP3    H178808   5.224   6.369  16.511 -0.7992  0.7351 -0.7542
19131TIP3    H278809   5.131   6.328  16.398 -0.4217 -1.6083 -0.2603
19132TIP3   OH278810   3.057   0.833   0.639 -0.5986 -0.5100 -0.6115
19132TIP3    H178811   3.072   0.815   0.732 -0.4183  0.1543 -0.5056
19132TIP3    H278812   3.008   0.915   0.638  0.8936  0.4289 -1.1416
19133TIP3   OH278813   4.646   4.490   0.678  0.0385  0.0555  0.4120
19133TIP3    H178814   4.725   4.437   0.685  0.1804  0.3254  0.9442
19133TIP3    H278815   4.673   4.566   0.626  0.1328  0.1396  0.5798
19134TIP3   OH278816   3.301   5.644  12.626  0.5362  0.2733 -0.1623
19134TIP3    H178817   3.234   5.585  12.593 -0.5810  2.0640 -1.2757
19134TIP3    H278818   3.276   5.730  12.592  1.2489  1.6753  2.6024
19135TIP3   OH278819   5.509   4.865   2.845  0.0685 -0.8609  0.3324
19135TIP3    H178820   5.488   4.914   2.766 -0.8684 -1.1959  0.3536
19135TIP3    H278821   5.571   4.920   2.893  0.1288 -0.3572 -0.3178
19136TIP3   OH278822   4.223   6.718  12.980 -0.5762  0.1962 -0.2216
19136TIP3    H178823   4.154   6.733  13.044 -0.9227 -0.7498 -0.3500
19136TIP3    H278824   4.273   6.799  12.978  0.6686 -0.3629  2.7345
19137TIP3   OH278825   6.000   0.024  11.190 -0.3481 -0.2240 -0.8042
19137TIP3    H178826   5.999  -0.072  11.189 -1.7357 -0.2749  0.7236
19137TIP3    H278827   5.991   0.049  11.098 -2.1447 -1.6010 -1.0638
19138TIP3   OH278828   3.626   1.234  16.028  0.8074 -0.2166 -0.4140
19138TIP3    H178829   3.646   1.194  15.943  0.2296 -0.3298 -0.5068
19138TIP3    H278830   3.609   1.326  16.008 -1.3803 -0.6386 -0.7708
19139TIP3   OH278831   6.528   5.833  13.417  0.3844  0.2153 -0.5930
19139TIP3    H178832   6.476   5.787  13.483 -3.4271  2.3033 -1.8410
19139TIP3    H278833   6.616   5.834  13.453 -1.0424 -0.4921  3.5274
19140TIP3   OH278834   2.050   4.679   1.389  0.5682  0.2429 -0.1964
19140TIP3    H178835   2.003   4.654   1.309  3.5926 -1.9558 -1.4783
19140TIP3    H278836   2.128   4.726   1.357 -0.3049  3.3308  1.7965
19141TIP3   OH278837   0.776   5.659   5.114 -0.6529 -0.2349 -0.1471
19141TIP3    H178838   0.692   5.696   5.089 -0.5875 -1.1920 -1.9244
19141TIP3    H278839   0.758   5.566   5.130  0.0342 -0.4286 -0.4605
19142TIP3   OH278840   5.274   0.582  12.155  0.1285 -0.6006  0.0851
19142TIP3    H178841   5.202   0.607  12.097  0.0717 -0.6548  0.1315
19142TIP3    H278842   5.236   0.586  12.242  0.3224 -0.1434  0.1512
19143TIP3   OH278843   1.902   0.710  15.815 -0.2199 -0.0857  0.4142
19143TIP3    H178844   1.906   0.617  15.794  0.1718 -0.6235  2.6549
19143TIP3    H278845   1.822   0.719  15.867  0.0263  0.7502  0.6563
19144TIP3   OH278846   1.440   2.077  13.539  0.0128 -0.2884 -0.7142
19144TIP3    H178847   1.368   2.075  13.603  0.7573 -1.0644  0.1261
19144TIP3    H278848   1.435   2.164  13.500 -1.4911 -0.3834 -0.8116
19145TIP3   OH278849   5.065   0.973   3.153 -0.8157 -0.0938  0.0301
19145TIP3    H178850   4.988   0.925   3.184  0.1343 -0.9228  1.2343
19145TIP3    H278851   5.099   1.016   3.231 -1.3114  2.1718 -0.9104
19146TIP3   OH278852   0.803   5.371   2.547  0.3535  0.2066  0.5081
19146TIP3    H178853   0.783   5.389   2.456  1.3880  0.4300  0.3120
19146TIP3    H278854   0.721   5.340   2.585 -0.4759  1.5455 -0.1294
19147TIP3   OH278855   3.823   1.232  11.833 -0.4142  0.2215 -0.9047
19147TIP3    H178856   3.751   1.212  11.893  1.3781 -0.2142  1.2302
19147TIP3    H278857   3.852   1.319  11.859  1.3632 -0.5782 -0.0108
19148TIP3   OH278858   1.433   1.339  11.620  0.2573  1.0317 -0.3397
19148TIP3    H178859   1.420   1.246  11.638  0.0471  1.2630  0.7574
19148TIP3    H278860   1.525   1.345  11.593  0.4614  0.5946  0.2293
19149TIP3   OH278861   4.803   5.570  16.641  0.1958  0.7155 -0.4587
19149TIP3    H178862   4.860   5.567  16.563  0.1515 -0.0264 -0.4674
19149TIP3    H278863   4.714   5.567  16.606  0.1805 -0.7001 -0.3550
19150TIP3   OH278864   4.277   3.565  12.101  0.0426  0.0399  0.0963
19150TIP3    H178865   4.347   3.547  12.163  0.5215  1.6391  0.0795
19150TIP3    H278866   4.206   3.600  12.154 -0.2838 -0.4202 -0.0337
19151TIP3   OH278867   4.758   1.453  11.589 -0.0354 -0.2669  0.0460
19151TIP3    H178868   4.713   1.510  11.527 -0.1335  0.8338  1.0851
19151TIP3    H278869   4.816   1.399  11.535  0.1049  0.8638 -0.9751
19152TIP3   OH278870   6.137   1.115   2.035  0.0792  0.4921 -0.3549
19152TIP3    H178871   6.144   1.030   2.079  3.1779  0.7994 -0.0169
19152TIP3    H278872   6.146   1.094   1.942 -0.4264  0.3490 -0.3729
19153TIP3   OH278873   4.649   0.791  10.796 -0.0289 -0.3511  0.0328
19153TIP3    H178874   4.631   0.740  10.875 -0.0891  1.3815  1.1733
19153TIP3    H278875   4.723   0.745  10.755  2.0478  0.3185  2.6939
19154TIP3   OH278876   4.593   0.172  13.183 -0.3572 -0.4316  0.4608
19154TIP3    H178877   4.677   0.205  13.213 -0.2886 -0.0580 -0.1168
19154TIP3    H278878   4.615   0.114  13.110 -0.6700  0.7924 -0.6474
19155TIP3   OH278879   3.837   5.008  12.863 -0.3005  0.3019  0.3658
19155TIP3    H178880   3.806   4.994  12.774 -0.2100 -0.4539  0.4447
19155TIP3    H278881   3.765   5.052  12.907  0.1242  1.8658 -0.3982
19156TIP3   OH278882   4.642   3.719   1.628 -0.4519  0.1637 -0.0735
19156TIP3    H178883   4.593   3.658   1.573  0.1019 -0.7284  0.4069
19156TIP3    H278884   4.575   3.776   1.665 -0.7864  1.1762 -2.1175
19157TIP3   OH278885   6.275   0.139   5.841 -0.5965  0.3539  0.2596
19157TIP3    H178886   6.282   0.106   5.931 -0.5916 -1.8012 -0.4785
19157TIP3    H278887   6.191   0.104   5.810 -0.8985  1.6083 -0.4025
19158TIP3   OH278888   0.082   6.514   2.521 -0.1017  0.0044  0.0179
19158TIP3    H178889   0.099   6.606   2.502  0.1274  0.0121  0.2477
19158TIP3    H278890   0.029   6.483   2.447 -2.3064  0.9446  1.1190
19159TIP3   OH278891   6.199   6.428  12.986 -0.0047  0.3200 -0.7087
19159TIP3    H178892   6.249   6.506  12.961  1.6510 -0.4451  0.0546
19159TIP3    H278893   6.247   6.355  12.948 -0.4920 -0.4619  0.1246
19160TIP3   OH278894   3.207   5.803   1.961 -0.0763 -0.6059  0.2393
19160TIP3    H178895   3.224   5.889   2.000  0.0395  0.2813 -1.6435
19160TIP3    H278896   3.116   5.809   1.930  0.2949 -0.7145 -0.9220
19161TIP3   OH278897   4.451   4.441   0.845 -0.4299  0.1570 -0.3195
19161TIP3    H178898   4.488   4.352   0.851 -0.4942  0.1276 -0.3665
19161TIP3    H278899   4.512   4.488   0.788 -0.8503 -0.0891 -0.9806
19162TIP3   OH278900   2.757   4.479  14.184  0.3180 -0.6826 -0.4535
19162TIP3    H178901   2.724   4.394  14.212  0.2300 -0.5929 -0.2839
19162TIP3    H278902   2.720   4.542  14.246  3.4521 -0.8856  1.8435
19163TIP3   OH278903   2.078   6.744  15.509 -0.2771  0.1878 -0.0192
19163TIP3    H178904   2.123   6.824  15.536  0.4842 -0.0375 -0.6038
19163TIP3    H278905   2.068   6.694  15.590 -1.2369  1.0884  0.4492
19164TIP3   OH278906   0.951   4.314   1.955 -0.0810  0.3217 -0.0734
19164TIP3    H178907   0.999   4.238   1.920  1.2768  1.2015 -0.1943
19164TIP3    H278908   0.926   4.288   2.043 -0.2485 -0.5242 -0.3560
19165TIP3   OH278909   6.433   1.566   0.062 -0.4815 -0.0271  0.2777
19165TIP3    H178910   6.412   1.474   0.080 -0.6362 -0.6560 -2.6923
19165TIP3    H278911   6.529   1.569   0.060 -0.4733 -0.0776  0.5273
19166TIP3   OH278912   2.893   0.497   6.271 -0.9330 -0.3391  0.0978
19166TIP3    H178913   2.945   0.442   6.212 -2.2761 -0.9485 -0.5459
19166TIP3    H278914   2.943   0.578   6.278 -0.6348 -0.3340 -1.7162
19167TIP3   OH278915   2.012   3.104  16.959  0.1788 -0.4498 -0.0986
19167TIP3    H178916   2.061   3.186  16.955  0.0364 -0.3829 -0.7033
19167TIP3    H278917   1.922   3.130  16.935 -0.0364 -0.6544  0.4764
19168TIP3   OH278918   2.945   0.575   5.913 -0.3973  0.5957  0.1721
19168TIP3    H178919   2.919   0.667   5.920  1.2334  1.0515  0.8738
19168TIP3    H278920   2.988   0.556   5.996  1.6313  0.0168 -0.9321
19169TIP3   OH278921   4.259   1.958  16.734 -0.0340  0.2842 -0.0887
19169TIP3    H178922   4.320   1.932  16.802  0.6766 -1.2790 -1.2595
19169TIP3    H278923   4.306   2.024  16.683  0.3268 -0.1965 -0.3932
19170TIP3   OH278924   5.754   4.125  13.248 -0.4431 -0.4112 -0.1755
19170TIP3    H178925   5.840   4.162  13.267 -0.1214 -1.5632  0.7558
19170TIP3    H278926   5.768   4.071  13.170 -0.1559 -1.0943  0.3360
19171TIP3   OH278927   5.819   3.625   3.268 -0.6209  0.1648  0.9047
19171TIP3    H178928   5.733   3.589   3.292 -0.4879 -0.7913  0.0278
19171TIP3    H278929   5.845   3.678   3.344 -1.2187 -0.9220  1.9070
19172TIP3   OH278930   0.803   1.669   4.348 -0.5483  0.7233 -0.5966
19172TIP3    H178931   0.829   1.585   4.387 -1.7902  0.0218 -1.2255
19172TIP3    H278932   0.863   1.733   4.386  2.5060 -0.8457 -2.3428
19173TIP3   OH278933   0.756   2.037  11.544  0.1061 -0.2493  0.1216
19173TIP3    H178934   0.701   2.079  11.478  2.6292  1.4749 -1.0717
19173TIP3    H278935   0.768   2.104  11.611 -0.3786 -1.1109  1.0978
19174TIP3   OH278936   5.311   2.817   2.912  0.0596  0.2632 -0.4967
19174TIP3    H178937   5.320   2.723   2.922  2.8446  0.5687  0.9016
19174TIP3    H278938   5.282   2.830   2.822  0.0322 -1.8906 -0.8287
19175TIP3   OH278939   2.241   2.054  10.877  0.5785  0.4156  0.4802
19175TIP3    H178940   2.293   1.978  10.850  1.1164  0.7943  0.4320
19175TIP3    H278941   2.164   2.016  10.920  1.6514 -0.1542  1.9772
19176TIP3   OH278942   4.810   1.807  11.351 -0.4154 -0.2385 -0.4834
19176TIP3    H178943   4.845   1.724  11.320  0.4713 -0.6634  1.5033
19176TIP3    H278944   4.859   1.873  11.302 -0.4922 -0.8582 -1.4216
19177TIP3   OH278945   5.629   3.692  16.541  0.6630  0.4584 -0.7293
19177TIP3    H178946   5.715   3.689  16.584 -0.1928 -1.0798  1.0247
19177TIP3    H278947   5.596   3.780  16.559  1.7166  0.9452 -1.1200
19178TIP3   OH278948   3.462   1.914  12.154 -0.1646 -0.7695 -0.0072
19178TIP3    H178949   3.549   1.954  12.161 -0.8123  1.4609 -2.9358
19178TIP3    H278950   3.464   1.869  12.069 -2.5641  1.4813 -1.3929
19179TIP3   OH278951   0.583   6.626  13.611 -0.0855 -0.3569  0.3062
19179TIP3    H178952   0.583   6.627  13.707 -1.8137 -0.3709  0.3365
19179TIP3    H278953   0.597   6.718  13.587 -1.3871 -0.0519  0.6266
19180TIP3   OH278954   5.248   5.381  11.159  0.9486 -0.2302  0.4542
19180TIP3    H178955   5.274   5.468  11.191 -0.8492  0.5732 -0.0958
19180TIP3    H278956   5.153   5.388  11.147  0.9664 -1.8147 -1.0065
19181TIP3   OH278957   1.175   5.594  11.702  0.0210  0.4684 -0.0066
19181TIP3    H178958   1.095   5.628  11.743 -0.1355  0.1020 -0.0042
19181TIP3    H278959   1.177   5.502  11.728 -0.2279  0.1512 -1.0523
19182TIP3   OH278960   0.037   5.070  13.528 -0.1256 -0.0119 -0.4717
19182TIP3    H178961   0.028   4.987  13.574  1.3709 -1.2480 -2.2430
19182TIP3    H278962   0.103   5.118  13.578 -0.8739  0.0659  0.4660
19183TIP3   OH278963   6.402   1.294   0.131  0.0127  0.2526 -0.2305
19183TIP3    H178964   6.308   1.301   0.147  0.0026  0.0019 -0.1800
19183TIP3    H278965   6.441   1.285   0.218  0.0472 -0.0483 -0.2752
19184TIP3   OH278966   4.692   2.546  13.355  0.7754 -0.0607 -0.0252
19184TIP3    H178967   4.695   2.631  13.309 -0.0502  0.5702  1.0399
19184TIP3    H278968   4.634   2.561  13.429 -1.1342 -2.1607 -0.9767
19185TIP3   OH278969   1.790   2.610   2.946 -0.8455  0.3060 -0.0054
19185TIP3    H178970   1.789   2.592   3.040  0.0424 -1.3258 -0.2694
19185TIP3    H278971   1.849   2.684   2.936  1.2583 -1.1977  0.5220
19186TIP3   OH278972   0.705   6.357  11.598  0.2558  0.2082 -0.3979
19186TIP3    H178973   0.650   6.298  11.546 -0.6190  0.2212  0.4801
19186TIP3    H278974   0.661   6.442  11.592  0.7592  0.4606 -0.5377
19187TIP3   OH278975   0.817   6.198  13.786  0.1907  0.0131  0.6874
19187TIP3    H178976   0.881   6.255  13.744  0.7697  1.2154  3.0486
19187TIP3    H278977   0.736   6.250  13.788  0.6902  0.8097  2.7398
19188TIP3   OH278978   4.511   4.392  12.269  0.2239  0.4689  0.1274
19188TIP3    H178979   4.596   4.425  12.297  0.1689 -1.6091  3.1857
19188TIP3    H278980   4.531   4.331  12.198  1.3932 -0.4355  1.2009
19189TIP3   OH278981   4.348   3.944   1.166  0.0690 -0.4367 -0.0065
19189TIP3    H178982   4.338   4.036   1.144 -1.0110 -0.4340  0.4021
19189TIP3    H278983   4.371   3.901   1.084  0.3935  0.1719 -0.2335
19190TIP3   OH278984   6.232   0.192   5.486 -0.5591  0.0685 -0.1799
19190TIP3    H178985   6.153   0.217   5.534 -0.5010  0.7528 -0.4193
19190TIP3    H278986   6.269   0.275   5.456  1.0809 -0.1118  1.2033
19191TIP3   OH278987   5.864   6.605   0.938 -0.0730  0.2552 -0.4751
19191TIP3    H178988   5.797   6.548   0.975 -0.3136  1.2223  0.6589
19191TIP3    H278989   5.930   6.614   1.007  0.1374  1.0367 -0.7594
19192TIP3   OH278990   3.763   6.126   2.905  0.0069 -0.5782  0.2185
19192TIP3    H178991   3.821   6.163   2.838  1.5292 -2.0493  0.6693
19192TIP3    H278992   3.736   6.202   2.957  1.8172  0.1339  0.1912
19193TIP3   OH278993   6.400   4.847  11.775 -0.2476 -0.2929 -0.3565
19193TIP3    H178994   6.355   4.802  11.846  1.1521  0.5785  1.1643
19193TIP3    H278995   6.423   4.778  11.713 -1.6781 -1.0441 -0.0797
19194TIP3   OH278996   2.465   0.342  16.268 -0.4062  0.1346 -0.1925
19194TIP3    H178997   2.487   0.299  16.350 -0.2425 -0.5376 -0.5830
19194TIP3    H278998   2.387   0.393  16.288 -0.4630 -0.1505  0.3360
19195TIP3   OH278999   2.914   1.739  14.418 -0.2364  0.4387  0.0124
19195TIP3    H179000   2.930   1.708  14.507  0.0809  1.9691  0.5116
19195TIP3    H279001   3.000   1.733  14.375 -0.6511 -1.6175 -0.6742
19196TIP3   OH279002   1.690   5.938   2.056 -0.0667 -0.1230  0.2291
19196TIP3    H179003   1.765   5.917   2.001  0.2723  0.3575  0.4992
19196TIP3    H279004   1.681   5.863   2.115  1.4869  0.6824  1.5754
19197TIP3   OH279005   4.024   6.423  12.251 -0.7052  0.1915  0.2554
19197TIP3    H179006   3.983   6.509  12.249 -0.5822  0.2689  0.8130
19197TIP3    H279007   4.077   6.424  12.331 -2.9213 -1.4188  1.8831
19198TIP3   OH279008   5.777   4.870  12.925  0.5229 -0.0928  1.2161
19198TIP3    H179009   5.841   4.849  12.857 -0.2879  1.0101  0.0701
19198TIP3    H279010   5.822   4.848  13.007  2.1154  0.0163  0.4258
19199TIP3   OH279011   2.805   1.451  15.944 -0.3110  0.3796  0.5919
19199TIP3    H179012   2.864   1.454  16.020  0.3494 -0.8523  0.1689
19199TIP3    H279013   2.784   1.542  15.926 -0.6316  0.6879  2.3654
19200TIP3   OH279014   3.317   0.587  10.956 -0.2254  0.2424  0.4723
19200TIP3    H179015   3.328   0.672  10.912 -1.1466 -0.5299 -1.3557
19200TIP3    H279016   3.227   0.561  10.937  0.3275 -1.5892  0.1419
19201TIP3   OH279017   4.032   4.617  11.549  0.0611  0.1768 -0.0432
19201TIP3    H179018   4.044   4.529  11.582 -0.5141 -0.8088 -2.2532
19201TIP3    H279019   3.940   4.637  11.567 -0.3098 -0.4424 -1.1542
19202TIP3   OH279020   2.257   2.221  12.185 -0.1064 -0.5322  0.3706
19202TIP3    H179021   2.167   2.253  12.197  0.5873  1.3122  0.9122
19202TIP3    H279022   2.260   2.192  12.094 -1.2522 -0.6236  0.3461
19203TIP3   OH279023   0.261   2.945  15.334 -0.2233 -0.0063  0.3203
19203TIP3    H179024   0.231   2.856  15.312  0.3040 -0.5172  1.5149
19203TIP3    H279025   0.184   3.000  15.320 -1.2018 -0.9841  1.4739
19204TIP3   OH279026   2.438   2.866   3.823  0.1849  0.2796  0.1569
19204TIP3    H179027   2.357   2.865   3.772 -1.0639 -3.1865  1.8960
19204TIP3    H279028   2.503   2.825   3.767  0.1634  0.9884 -0.4017
19205TIP3   OH279029   4.768   2.832   5.991  0.4088 -0.2368 -0.0615
19205TIP3    H179030   4.802   2.884   5.918 -0.2290  1.9005  1.0664
19205TIP3    H279031   4.785   2.886   6.068 -2.9002 -0.3026  0.8856
19206TIP3   OH279032   5.020   6.271   5.881 -0.3202 -0.0277 -0.6099
19206TIP3    H179033   4.954   6.207   5.855 -0.3107  0.1790 -1.1393
19206TIP3    H279034   5.010   6.343   5.820 -1.1048  1.0106  0.6784
19207TIP3   OH279035   2.460   3.490   6.176 -0.4263 -0.4538 -0.1095
19207TIP3    H179036   2.537   3.512   6.228 -1.7441  0.6536  1.4888
19207TIP3    H279037   2.404   3.441   6.236 -1.4353 -0.2866 -0.8993
19208TIP3   OH279038   4.890   3.300   2.243 -0.4753 -0.4092  0.2183
19208TIP3    H179039   4.935   3.216   2.234 -2.4646 -1.6149  0.8262
19208TIP3    H279040   4.902   3.343   2.158  0.8613 -1.1422  0.0151
19209TIP3   OH279041   2.666   1.554  16.751  0.2790  0.4988 -0.0086
19209TIP3    H179042   2.689   1.575  16.842  0.5350 -0.2038  0.0980
19209TIP3    H279043   2.696   1.463  16.739 -0.0050  0.4904 -0.7086
19210TIP3   OH279044   4.334   0.437  15.000  0.0675 -0.1045  0.3201
19210TIP3    H179045   4.350   0.447  14.907 -1.9642  0.9057  0.0292
19210TIP3    H279046   4.374   0.353  15.022  0.5251 -0.3937 -1.4552
19211TIP3   OH279047   4.318   4.315  13.990  0.1244 -0.3669  0.0295
19211TIP3    H179048   4.411   4.302  13.970  0.0287  1.2940 -1.8160
19211TIP3    H279049   4.316   4.395  14.043 -0.1748 -1.1668  1.2564
19212TIP3   OH279050   6.403   1.945   3.577 -0.1556  0.3402  0.2789
19212TIP3    H179051   6.380   2.027   3.621  0.5542  1.1940 -0.8773
19212TIP3    H279052   6.448   1.972   3.497 -0.8668 -1.1580 -0.6883
19213TIP3   OH279053   0.714   1.185   4.258  0.6158  0.5595  0.1723
19213TIP3    H179054   0.738   1.192   4.350 -0.8987 -3.0137  1.0270
19213TIP3    H279055   0.771   1.116   4.224 -1.1044 -0.5386 -0.5975
19214TIP3   OH279056   2.679   1.391  12.546 -0.1096 -0.1705 -0.0357
19214TIP3    H179057   2.667   1.312  12.598 -0.0423  0.4291  0.9063
19214TIP3    H279058   2.642   1.461  12.599  0.5377  0.5504 -0.5051
19215TIP3   OH279059   2.608   2.534   4.026  0.0745  0.3360  0.1737
19215TIP3    H179060   2.675   2.503   4.088 -0.6205  1.0522  1.3142
19215TIP3    H279061   2.528   2.490   4.053  0.1123 -0.8391 -1.4459
19216TIP3   OH279062   2.187   0.846   2.131  0.7221 -0.0004  0.4792
19216TIP3    H179063   2.155   0.928   2.168  1.5532  0.3560  0.4332
19216TIP3    H279064   2.137   0.835   2.050  0.5163  0.3943  0.5488
19217TIP3   OH279065   6.638   1.143   2.854  0.0096  0.4745  0.0880
19217TIP3    H179066   6.682   1.147   2.939  0.2345  0.3008 -0.0213
19217TIP3    H279067   6.658   1.056   2.820  1.4410  1.1767 -0.9682
19218TIP3   OH279068   3.337   0.528  16.104 -0.0301  0.2455  0.2435
19218TIP3    H179069   3.425   0.506  16.075 -0.5766 -3.9877  1.1567
19218TIP3    H279070   3.281   0.513  16.028 -0.2266  0.5698  0.3190
19219TIP3   OH279071   0.998   4.034   2.317 -0.7623  0.1858  0.3316
19219TIP3    H179072   0.949   3.957   2.344  0.6560 -1.0479 -0.4415
19219TIP3    H279073   1.068   4.042   2.382 -0.8757  0.8233  0.3899
19220TIP3   OH279074   6.119   1.052   1.781  0.8758 -0.1765 -0.4185
19220TIP3    H179075   6.141   0.974   1.731  2.2034  0.5570 -1.0221
19220TIP3    H279076   6.068   1.106   1.719 -0.6980 -0.8593  0.2346
19221TIP3   OH279077   6.623   5.408   3.026  0.3908  0.0778 -0.0816
19221TIP3    H179078   6.551   5.372   2.976  0.0366 -1.0843  1.1955
19221TIP3    H279079   6.601   5.500   3.038 -1.6316 -0.5322  1.4537
19222TIP3   OH279080   0.644   0.368  16.979 -0.5074 -0.7010  0.4298
19222TIP3    H179081   0.609   0.404  17.060 -0.1310 -0.3424  0.4400
19222TIP3    H279082   0.572   0.373  16.917  0.0849  2.0539 -0.1732
19223TIP3   OH279083   3.511   4.741  16.408 -0.1310  0.0313  0.4070
19223TIP3    H179084   3.535   4.833  16.400 -1.4174  0.3572  0.2024
19223TIP3    H279085   3.584   4.694  16.367 -0.1115  1.0192 -0.7380
19224TIP3   OH279086   5.491   6.256   0.627  0.5695 -0.1126 -0.4804
19224TIP3    H179087   5.460   6.276   0.715  1.6369  0.5006 -0.2241
19224TIP3    H279088   5.479   6.161   0.618  1.6561 -0.4042  0.8346
19225TIP3   OH279089   0.176   6.515   3.307  0.1005  0.4830 -0.4950
19225TIP3    H179090   0.187   6.457   3.232 -3.2660 -0.4548 -0.4204
19225TIP3    H279091   0.221   6.471   3.379 -0.0924 -0.6832 -1.0674
19226TIP3   OH279092   4.657   2.665   0.245 -0.7745  0.2052 -0.1245
19226TIP3    H179093   4.594   2.711   0.190 -1.1647 -1.3199 -1.0181
19226TIP3    H279094   4.725   2.730   0.263 -2.0954  1.6102  0.0821
19227TIP3   OH279095   0.296   1.035   4.533 -0.4021  0.3246 -0.0181
19227TIP3    H179096   0.341   0.951   4.521 -0.9111 -0.0949  0.8644
19227TIP3    H279097   0.324   1.089   4.459 -0.0669 -0.6263 -0.5974
19228TIP3   OH279098   5.242   3.663  17.284 -0.0039 -0.6799  0.2073
19228TIP3    H179099   5.295   3.637  17.359 -0.6071 -0.2725  0.7936
19228TIP3    H279100   5.169   3.711  17.323  0.3701  0.7046 -0.7308
19229TIP3   OH279101   5.021   1.487   1.241 -0.2155  0.4315 -0.7000
19229TIP3    H179102   5.065   1.572   1.233  0.0364  0.3737 -0.0206
19229TIP3    H279103   4.991   1.467   1.153 -0.3567  1.2726 -0.8554
19230TIP3   OH279104   0.636   1.704   6.169 -0.3543  0.0214 -0.1578
19230TIP3    H179105   0.599   1.784   6.129 -2.7445 -0.3554  1.1317
19230TIP3    H279106   0.561   1.659   6.207  0.9606 -2.7624 -0.6028
19231TIP3   OH279107   2.946   6.369  13.986 -0.1140  0.2596 -0.2017
19231TIP3    H179108   2.911   6.376  13.897  0.8387 -0.4603 -0.6515
19231TIP3    H279109   3.022   6.426  13.987 -0.0928  0.2263  0.1314
19232TIP3   OH279110   0.979   1.932   4.274  0.1961  0.3586 -0.0192
19232TIP3    H179111   1.023   1.861   4.228  1.1762  0.3113  0.9552
19232TIP3    H279112   1.035   1.950   4.349 -0.6472  1.3757  0.3852
19233TIP3   OH279113   0.661   0.078  16.514 -0.1379 -0.0134  0.1376
19233TIP3    H179114   0.584   0.044  16.560  1.3276 -2.3035  1.0269
19233TIP3    H279115   0.689   0.153  16.568 -1.2544  0.3761  0.2221
19234TIP3   OH279116   4.335   0.304   0.972  0.1525  0.2810 -0.0109
19234TIP3    H179117   4.240   0.307   0.975  0.0143 -0.3678 -2.1132
19234TIP3    H279118   4.362   0.392   0.947  0.1013  0.3826  0.2851
19235TIP3   OH279119   4.435   6.534  13.455 -0.1265 -0.4871 -0.1092
19235TIP3    H179120   4.429   6.459  13.396  1.8760  0.5316 -1.7574
19235TIP3    H279121   4.384   6.509  13.532 -1.5774 -2.5056 -1.6237
19236TIP3   OH279122   2.623   2.469  12.618  0.2395  0.0266 -0.1334
19236TIP3    H179123   2.716   2.447  12.614  0.3807  0.7772 -2.1355
19236TIP3    H279124   2.601   2.497  12.529 -1.5350  1.3521  0.6567
19237TIP3   OH279125   3.694   0.853  12.705  0.8679 -0.5260  0.4085
19237TIP3    H179126   3.780   0.826  12.737  0.5542 -1.0175  0.8645
19237TIP3    H279127   3.651   0.894  12.780  0.1643 -1.5973  0.6168
19238TIP3   OH279128   6.706   0.681   0.498 -0.2883 -0.7738 -0.3580
19238TIP3    H179129   6.643   0.609   0.492 -1.0987 -0.2404  1.1743
19238TIP3    H279130   6.652   0.759   0.506  0.5871 -0.1289 -0.6411
19239TIP3   OH279131   3.495   1.758   4.296  0.1719  0.0429  0.3640
19239TIP3    H179132   3.443   1.724   4.223  0.5141  0.4984 -0.1062
19239TIP3    H279133   3.472   1.851   4.299  0.7658  0.1957  0.3085
19240TIP3   OH279134   6.636   5.678   0.056 -0.1907  0.0716  0.3284
19240TIP3    H179135   6.711   5.726   0.023  0.1298  0.6486  1.7999
19240TIP3    H279136   6.565   5.699  -0.005  0.4213  0.8947 -0.1188
19241TIP3   OH279137   4.029   0.730  16.117  0.5360  0.0085  1.0124
19241TIP3    H179138   4.054   0.822  16.124  1.3801 -0.2463  1.4527
19241TIP3    H279139   3.950   0.723  16.171 -0.6448  0.8534 -0.5316
19242TIP3   OH279140   3.649   6.562   3.764  0.1735 -0.1546 -0.2596
19242TIP3    H179141   3.734   6.577   3.804  0.4647 -1.9461 -0.1256
19242TIP3    H279142   3.621   6.648   3.734  1.8097  0.5438  0.1122
19243TIP3   OH279143   2.949   5.485   2.150 -0.0943 -0.0429 -0.3708
19243TIP3    H179144   2.895   5.413   2.180 -1.9750  0.8223 -1.4967
19243TIP3    H279145   2.973   5.461   2.061  1.0859 -0.2351 -0.0153
19244TIP3   OH279146   0.748   2.239  15.384 -0.0279  0.4273  0.3178
19244TIP3    H179147   0.710   2.159  15.347 -1.3415  0.6289  1.1589
19244TIP3    H279148   0.782   2.287  15.308 -0.3568 -0.3457 -0.3373
19245TIP3   OH279149   0.555   2.337   3.777 -0.1350 -0.6536 -0.4572
19245TIP3    H179150   0.618   2.380   3.835 -0.9462 -0.1179  0.0399
19245TIP3    H279151   0.500   2.285   3.836 -0.5268 -0.6597 -0.8244
19246TIP3   OH279152   0.056   3.162   1.313 -0.4602 -0.0111 -0.3100
19246TIP3    H179153   0.067   3.257   1.313 -1.0696  0.1354  2.3510
19246TIP3    H279154  -0.038   3.149   1.299 -0.7964 -0.0456  1.6691
19247TIP3   OH279155   6.658   1.755  13.851  0.5262 -0.1107  0.0267
19247TIP3    H179156   6.565   1.771  13.862  0.4630 -0.2362 -0.3237
19247TIP3    H279157   6.681   1.694  13.921  0.1716 -0.7422 -0.4001
19248TIP3   OH279158   6.624   6.213   3.156  0.4634 -0.5756 -0.4504
19248TIP3    H179159   6.697   6.154   3.138  0.1060 -1.4934  1.0076
19248TIP3    H279160   6.554   6.182   3.099  0.9261 -0.1920 -1.2563
19249TIP3   OH279161   5.865   1.822   2.180 -0.0376  0.6069  1.2271
19249TIP3    H179162   5.780   1.816   2.223 -0.8367 -0.3504 -0.4102
19249TIP3    H279163   5.900   1.733   2.185  0.3386  0.7308  0.8307
19250TIP3   OH279164   2.780   5.997  16.412  0.1850  0.7954 -0.2910
19250TIP3    H179165   2.754   6.042  16.331 -2.3595  0.1347  0.0790
19250TIP3    H279166   2.721   6.032  16.479  0.6038 -0.4309  0.7640
19251TIP3   OH279167   0.130   2.830   5.181 -0.6270 -0.6204 -0.2910
19251TIP3    H179168   0.165   2.884   5.252 -3.9256  1.5015 -0.0550
19251TIP3    H279169   0.121   2.743   5.220  1.8393 -0.6379  0.3699
19252TIP3   OH279170   3.867   2.331  13.460 -0.3856 -1.0761  0.3017
19252TIP3    H179171   3.830   2.412  13.495  0.7553 -0.9842  1.3866
19252TIP3    H279172   3.892   2.353  13.370 -0.8849 -0.4943  0.2987
19253TIP3   OH279173   3.000   0.382   2.483 -0.2182  0.1939  0.4390
19253TIP3    H179174   3.039   0.317   2.540  0.4832 -0.6205 -0.9128
19253TIP3    H279175   2.906   0.372   2.496 -0.1703 -1.6874 -0.3188
19254TIP3   OH279176   1.710   5.571  14.972  0.0324 -0.2429 -0.3159
19254TIP3    H179177   1.624   5.596  15.004 -0.4709 -1.2324 -0.8509
19254TIP3    H279178   1.770   5.634  15.012 -0.8998  0.2810  0.2871
19255TIP3   OH279179   6.548   3.556   5.921  0.1567  1.0613 -0.6442
19255TIP3    H179180   6.493   3.497   5.870  0.8999 -0.6099  0.4197
19255TIP3    H279181   6.575   3.505   5.997  1.7258  2.4210 -0.2245
19256TIP3   OH279182   3.750   2.495   1.573  0.5357  0.0193 -0.0705
19256TIP3    H179183   3.726   2.587   1.573  0.0006 -0.1192  0.1208
19256TIP3    H279184   3.708   2.460   1.494  1.2743  0.0758 -0.4969
19257TIP3   OH279185   3.781   0.806  16.224 -0.4483 -0.2263 -0.4250
19257TIP3    H179186   3.735   0.887  16.202 -2.8988 -1.3398  0.2414
19257TIP3    H279187   3.775   0.800  16.320  0.8231 -0.6134 -0.3451
19258TIP3   OH279188   2.046   3.098  15.515  0.1774 -0.5009 -0.5487
19258TIP3    H179189   2.046   3.030  15.582  0.5393  1.6290  1.7515
19258TIP3    H279190   1.971   3.078  15.460 -0.8960 -1.6540  1.2363
19259TIP3   OH279191   1.483   1.344  12.845  0.2702 -0.2493 -0.5263
19259TIP3    H179192   1.477   1.362  12.939 -1.1064 -0.2970 -0.5815
19259TIP3    H279193   1.422   1.407  12.805  1.9216  0.7998 -1.5555
19260TIP3   OH279194   3.278   6.330  13.470  0.0290  0.0012  0.1108
19260TIP3    H179195   3.345   6.278  13.425 -0.9118 -0.9565 -0.2267
19260TIP3    H279196   3.228   6.265  13.520 -0.6796  0.7033  0.3197
19261TIP3   OH279197   3.890   5.685  15.686 -0.5517  0.1558  0.2278
19261TIP3    H179198   3.849   5.680  15.600  0.0714  1.6201 -0.1772
19261TIP3    H279199   3.822   5.720  15.744 -0.7656 -0.2004  0.1931
19262TIP3   OH279200   4.339   0.534  17.309 -0.5510  0.2868 -0.0709
19262TIP3    H179201   4.272   0.597  17.283 -1.2639 -0.9342 -1.3138
19262TIP3    H279202   4.322   0.518  17.402 -1.3372  0.7397 -0.1310
19263TIP3   OH279203   2.381   5.173  15.887  0.3262  0.7117 -0.2669
19263TIP3    H179204   2.348   5.107  15.947  1.1822  1.4989  1.1126
19263TIP3    H279205   2.439   5.126  15.827 -1.1422 -0.2113 -1.0174
19264TIP3   OH279206   4.888   0.499  12.903  0.7470 -0.0477  0.6767
19264TIP3    H179207   4.893   0.594  12.904 -0.3459  0.0452  2.4984
19264TIP3    H279208   4.844   0.478  12.820  1.2592  1.0017  0.1277
19265TIP3   OH279209   2.002   2.374  15.383  0.2098  0.0541  0.1479
19265TIP3    H179210   1.961   2.432  15.318  1.1216 -0.6279 -1.0736
19265TIP3    H279211   2.081   2.421  15.410  0.8589 -0.5009 -0.7167
19266TIP3   OH279212   2.519   0.858   2.948  0.1591 -0.3615  0.2185
19266TIP3    H179213   2.588   0.908   2.903 -1.1398  0.7860 -0.5830
19266TIP3    H279214   2.491   0.793   2.883 -1.2553  0.8596 -0.4433
19267TIP3   OH279215   0.490   0.767   5.192 -0.5093 -0.2541 -0.4076
19267TIP3    H179216   0.449   0.810   5.267 -1.8823 -1.1611 -0.6029
19267TIP3    H279217   0.423   0.708   5.158  0.1487  0.0171 -2.2703
19268TIP3   OH279218   0.896   0.751   0.789  0.0861 -0.4991  0.1463
19268TIP3    H179219   0.905   0.844   0.766  1.4192 -0.5561  0.3370
19268TIP3    H279220   0.984   0.715   0.776  0.3513 -1.0772  2.9252
19269TIP3   OH279221   5.937   0.315   2.920  0.5404 -0.0060  0.3924
19269TIP3    H179222   5.877   0.379   2.883  0.9975 -0.2568 -0.8358
19269TIP3    H279223   5.954   0.346   3.009 -0.4624  0.7085  0.3510
19270TIP3   OH279224   0.209   6.175   0.965 -0.1466 -0.7931  0.1164
19270TIP3    H179225   0.185   6.114   0.895  0.4129 -1.9513  0.8983
19270TIP3    H279226   0.129   6.224   0.984 -0.0231  0.4640 -2.1741
19271TIP3   OH279227   4.831   4.288  14.200 -0.4134  0.3246 -0.0270
19271TIP3    H179228   4.839   4.308  14.293 -0.4505  2.1869 -0.3853
19271TIP3    H279229   4.918   4.303  14.164  0.0128 -1.8982 -0.0860
19272TIP3   OH279230   5.469   5.583   2.803 -0.2764 -0.0679 -0.1788
19272TIP3    H179231   5.441   5.667   2.840 -1.6456 -0.6718  0.1966
19272TIP3    H279232   5.413   5.570   2.727  0.0659 -0.5524 -0.3548
19273TIP3   OH279233   4.475   1.944   1.574 -0.3950  0.1496 -0.5759
19273TIP3    H179234   4.411   2.011   1.597  1.7694  2.5738 -1.0762
19273TIP3    H279235   4.515   1.919   1.658  0.5814  1.5143 -0.5948
19274TIP3   OH279236   5.404   3.483   4.353  0.1610 -0.3196 -0.4655
19274TIP3    H179237   5.449   3.527   4.425 -0.0703 -2.3500  1.0370
19274TIP3    H279238   5.458   3.498   4.276  0.5241  1.7627  0.1472
19275TIP3   OH279239   6.450   1.036   2.505  0.0093 -0.1297  0.2169
19275TIP3    H179240   6.497   1.062   2.425  0.5572  0.9626  0.8542
19275TIP3    H279241   6.400   1.114   2.529  0.8514  0.0177  1.6163
19276TIP3   OH279242   6.367   0.791  12.563 -0.2090  0.2359  0.1474
19276TIP3    H179243   6.448   0.801  12.514  0.5995 -0.5666  1.2812
19276TIP3    H279244   6.393   0.752  12.646 -1.6547  0.7559  0.8812
19277TIP3   OH279245   6.194   6.250   3.606  0.3402 -0.0977  0.6393
19277TIP3    H179246   6.203   6.320   3.670 -0.0734  0.7320 -0.1907
19277TIP3    H279247   6.103   6.258   3.575  0.6964 -0.1401 -0.4381
19278TIP3   OH279248   5.743   0.975  13.040 -0.4123 -0.2781  0.5975
19278TIP3    H179249   5.786   1.043  13.092 -0.0261  0.9073 -1.1770
19278TIP3    H279250   5.816   0.923  13.004 -0.5094  0.6572 -1.0051
19279TIP3   OH279251   4.147   4.600  16.945 -0.6364  0.3999 -0.1332
19279TIP3    H179252   4.160   4.510  16.972 -0.6043  0.2551 -0.6233
19279TIP3    H279253   4.054   4.616  16.957 -0.8153 -0.0027 -0.9615
19280TIP3   OH279254   0.166   5.925  16.822  0.5301 -0.1809 -0.2125
19280TIP3    H179255   0.230   5.882  16.879  1.6348 -2.1063 -2.7006
19280TIP3    H279256   0.210   6.003  16.790  0.9150 -0.4805 -0.4206
19281TIP3   OH279257   2.238   4.357   3.264 -0.5211 -0.5023 -0.4692
19281TIP3    H179258   2.221   4.436   3.213  2.2104 -0.3144 -1.2229
19281TIP3    H279259   2.265   4.292   3.199  1.4000 -0.7574  0.5080
19282TIP3   OH279260   1.228   0.020  14.233  0.1103 -1.0893  0.5584
19282TIP3    H179261   1.310   0.068  14.241  0.1106 -1.0946  0.5848
19282TIP3    H279262   1.255  -0.070  14.214  0.1173 -1.1790  0.9891
19283TIP3   OH279263   5.660   1.050   3.350  0.0714  0.0546  0.4689
19283TIP3    H179264   5.661   0.980   3.415  0.3519  0.0307  0.4403
19283TIP3    H279265   5.747   1.047   3.310  1.2749  2.4412  2.6333
19284TIP3   OH279266   4.800   1.067  15.159 -0.1026 -0.0867  0.5033
19284TIP3    H179267   4.797   0.998  15.093 -0.1179  0.5342 -0.1712
19284TIP3    H279268   4.854   1.032  15.229  0.6662 -0.4296 -0.2423
19285TIP3   OH279269   4.178   2.367  11.744 -0.3980  0.4771  0.3735
19285TIP3    H179270   4.222   2.437  11.793  1.4426  1.8367 -2.8677
19285TIP3    H279271   4.241   2.296  11.741 -0.8672  0.0389  0.7160
19286TIP3   OH279272   2.871   0.515   1.062 -0.7038 -0.4226  0.2358
19286TIP3    H179273   2.824   0.590   1.025 -0.3761 -0.8852 -1.1361
19286TIP3    H279274   2.931   0.487   0.993 -1.4789 -2.5455  0.3657
19287TIP3   OH279275   4.619   0.211  12.641  0.0905 -0.1215 -0.5672
19287TIP3    H179276   4.552   0.142  12.642  0.1505 -0.3406 -3.2579
19287TIP3    H279277   4.696   0.170  12.680 -0.4461 -0.8991 -0.2890
19288TIP3   OH279278   3.533   3.837   5.589  0.1162  0.7963  0.2511
19288TIP3    H179279   3.443   3.833   5.622  0.8272  0.2373  2.3063
19288TIP3    H279280   3.563   3.925   5.610  1.5157 -0.3960  4.0907
19289TIP3   OH279281   1.907   1.442  11.389 -0.2695  0.0338 -0.0914
19289TIP3    H179282   1.971   1.478  11.328  0.7501 -1.1927  0.2121
19289TIP3    H279283   1.846   1.393  11.334 -1.8971  2.4023 -0.5541
19290TIP3   OH279284   5.910   5.167  11.351 -0.0666  0.1095  0.1400
19290TIP3    H179285   5.882   5.144  11.262 -1.1568 -0.1711  0.5385
19290TIP3    H279286   5.888   5.090  11.403 -1.0217  0.9275  0.9643
19291TIP3   OH279287   6.623   5.579  12.371  0.3931  0.2671 -0.4211
19291TIP3    H179288   6.645   5.565  12.463  4.0325  1.6841 -0.9170
19291TIP3    H279289   6.582   5.665  12.369  0.0701  0.1213 -0.0970
19292TIP3   OH279290   3.040   1.996   0.358  0.2493 -0.0581  0.3652
19292TIP3    H179291   3.047   2.033   0.446 -2.0555  0.9249  0.2104
19292TIP3    H279292   2.967   1.934   0.364  0.3305 -0.2806 -0.7667
19293TIP3   OH279293   5.886   0.055  12.206 -0.2302  0.7346 -1.0194
19293TIP3    H179294   5.975   0.044  12.171  0.1394  0.8610 -0.1615
19293TIP3    H279295   5.846  -0.031  12.195 -0.4940  1.0386 -2.6783
19294TIP3   OH279296   6.384   4.947   1.271  0.0422 -0.2699  0.0627
19294TIP3    H179297   6.360   4.942   1.364  0.5750 -0.1038  0.2123
19294TIP3    H279298   6.466   4.899   1.265 -0.1494 -0.5518 -0.3862
19295TIP3   OH279299   4.164   4.090   5.495  0.5268 -0.3318 -0.0838
19295TIP3    H179300   4.211   4.007   5.483  1.3252  0.2313 -1.0620
19295TIP3    H279301   4.165   4.130   5.408  0.4350  0.8545  0.4457
19296TIP3   OH279302   0.714   4.651   2.680  0.0174  0.0413  0.1991
19296TIP3    H179303   0.673   4.610   2.757 -1.8842  2.0899  0.3884
19296TIP3    H279304   0.779   4.711   2.717  1.4505 -1.3517  0.0106
19297TIP3   OH279305   2.562   6.346  15.826 -0.1004  0.5058  0.5886
19297TIP3    H179306   2.521   6.259  15.823 -0.0877  0.4967  0.6714
19297TIP3    H279307   2.519   6.395  15.756  0.5367  0.1507 -0.0671
19298TIP3   OH279308   6.536   4.849   0.227  0.4634 -0.0475 -0.9698
19298TIP3    H179309   6.486   4.810   0.155 -0.4008 -0.5474 -0.1263
19298TIP3    H279310   6.612   4.890   0.185 -0.5539  0.5637 -2.2616
19299TIP3   OH279311   4.309   5.907   2.841 -0.4123  0.2606  0.5701
19299TIP3    H179312   4.312   5.851   2.763  1.3177 -1.4171  1.7478
19299TIP3    H279313   4.219   5.899   2.873 -1.9545  2.9782 -2.5120
19300TIP3   OH279314   0.005   6.603  14.620 -0.3650  0.2731  0.5601
19300TIP3    H179315   0.022   6.633  14.709 -0.8094  2.1751  0.0437
19300TIP3    H279316  -0.087   6.577  14.620  0.5649 -3.6054  1.6202
19301TIP3   OH279317   1.089   4.356   6.047  0.2723 -0.1332  0.3691
19301TIP3    H179318   1.125   4.282   5.997 -1.1281 -0.8986  0.4498
19301TIP3    H279319   1.161   4.420   6.050  1.2451 -1.1492 -0.3902
19302TIP3   OH279320   3.192   5.504  16.086  0.1031  0.2871 -0.9166
19302TIP3    H179321   3.219   5.581  16.137 -0.5529  0.1009 -0.2746
19302TIP3    H279322   3.221   5.524  15.997  2.5421 -0.0095 -0.2517
19303TIP3   OH279323   2.641   2.360  16.465 -0.4011  0.6446  0.1611
19303TIP3    H179324   2.629   2.335  16.557  1.5042 -1.2806 -0.0687
19303TIP3    H279325   2.614   2.283  16.415  2.2041  0.1962 -0.7001
19304TIP3   OH279326   5.614   3.925   6.166  0.2411 -0.4086  0.7719
19304TIP3    H179327   5.549   3.923   6.236  0.3955 -0.9080  0.8998
19304TIP3    H279328   5.601   3.843   6.119  1.1124 -0.7420  1.0977
19305TIP3   OH279329   0.086   0.937   0.560 -0.1163  0.6007  0.0724
19305TIP3    H179330   0.113   0.871   0.496  0.6532 -0.7946  1.7472
19305TIP3    H279331  -0.004   0.915   0.581  0.0556  0.2223  0.4321
19306TIP3   OH279332   3.923   0.693  15.394 -0.4431  0.2164 -0.3409
19306TIP3    H179333   3.922   0.779  15.435  0.9207 -0.5282  1.3817
19306TIP3    H279334   3.904   0.632  15.465  0.4389 -1.0339 -1.1296
19307TIP3   OH279335   4.086   6.723   6.091  0.2577  0.3957 -0.2065
19307TIP3    H179336   4.047   6.669   6.160  1.9624 -0.5534  0.0679
19307TIP3    H279337   4.016   6.782   6.064 -1.0497 -0.5803  0.9257
19308TIP3   OH279338   5.598   5.431   4.166  0.2040 -0.1581  0.2108
19308TIP3    H179339   5.555   5.499   4.218  1.5549 -0.1014  1.3183
19308TIP3    H279340   5.533   5.361   4.159 -1.0693  1.0586 -0.6185
19309TIP3   OH279341   2.866   2.623  12.875 -0.2033  0.3059 -0.2035
19309TIP3    H179342   2.854   2.559  12.804  0.3378  0.9978 -0.9285
19309TIP3    H279343   2.923   2.578  12.938 -0.0594 -0.0379 -0.5717
19310TIP3   OH279344   0.913   2.204   6.159 -0.0649 -0.3764  0.6805
19310TIP3    H179345   0.977   2.207   6.088 -2.6675 -0.6726 -1.8616
19310TIP3    H279346   0.925   2.287   6.206  0.4390  0.7621 -1.3561
19311TIP3   OH279347   0.247   3.000   2.349  0.1048  0.0667 -0.0660
19311TIP3    H179348   0.187   3.069   2.379 -0.0974 -0.1195 -0.0388
19311TIP3    H279349   0.234   2.929   2.411  1.2686  0.4799  0.6994
19312TIP3   OH279350   3.092   2.306  13.177  0.2090  0.2984 -0.4158
19312TIP3    H179351   3.008   2.260  13.182  0.3359  0.1522  2.2986
19312TIP3    H279352   3.068   2.399  13.175 -0.1153  0.3193  1.5839
19313TIP3   OH279353   2.659   4.947  15.493 -0.0738 -0.4734  0.2646
19313TIP3    H179354   2.750   4.934  15.518 -0.0015 -1.1855 -0.3388
19313TIP3    H279355   2.633   4.864  15.454 -1.5749 -0.9740  2.1727
19314TIP3   OH279356   5.356   6.572  11.315  0.1692 -0.2134 -0.0301
19314TIP3    H179357   5.297   6.625  11.261 -1.8877 -1.5309  0.7963
19314TIP3    H279358   5.376   6.496  11.262 -0.6363 -0.7843  0.4591
19315TIP3   OH279359   3.181   1.276  13.984 -0.8265  0.1414  0.7780
19315TIP3    H179360   3.169   1.215  14.056 -1.5269 -0.5664  0.0725
19315TIP3    H279361   3.209   1.358  14.026  0.9617 -0.8824  1.6690
19316TIP3   OH279362   1.169   6.314   2.973  0.4637 -0.2001  0.1726
19316TIP3    H179363   1.078   6.318   3.003  0.8775  1.8649  1.3706
19316TIP3    H279364   1.207   6.398   3.000  2.3082 -0.3366 -1.6993
19317TIP3   OH279365   1.068   5.335  11.820 -0.0660  0.0924  0.4145
19317TIP3    H179366   0.994   5.277  11.800  0.9417 -2.1600  2.5805
19317TIP3    H279367   1.053   5.362  11.911  1.7907 -0.5689  0.9714
19318TIP3   OH279368   2.565   1.198  10.787 -0.2828  1.0196  0.0390
19318TIP3    H179369   2.618   1.165  10.859 -1.6602 -1.0721  0.1772
19318TIP3    H279370   2.558   1.124  10.726 -1.3641  1.8889 -0.9406
19319TIP3   OH279371   3.914   0.052   1.552 -0.3004  0.0023  0.0582
19319TIP3    H179372   4.000   0.011   1.559  0.2226  1.2635  1.7818
19319TIP3    H279373   3.854  -0.020   1.533  0.9760 -1.0702 -0.0461
19320TIP3   OH279374   6.195   5.201  12.114 -0.1623 -0.3629  0.2673
19320TIP3    H179375   6.212   5.144  12.038  0.2891  0.3247 -0.1561
19320TIP3    H279376   6.134   5.267  12.081 -2.3708 -1.7452  1.2980
19321TIP3   OH279377   3.879   3.077  12.284  0.3170 -0.5803 -0.8486
19321TIP3    H179378   3.946   3.130  12.328 -1.3438  1.3494 -0.4874
19321TIP3    H279379   3.902   2.987  12.305  1.2615  0.1468  1.5588
19322TIP3   OH279380   1.459   6.739   3.674 -0.1352 -0.0111  0.4201
19322TIP3    H179381   1.512   6.707   3.601  0.0008  1.5419 -0.2045
19322TIP3    H279382   1.518   6.735   3.749  0.4097  0.2997  0.0235
19323TIP3   OH279383   3.507   3.940  14.897 -0.0360  0.7473 -0.0832
19323TIP3    H179384   3.592   3.952  14.940  0.9196  1.2445 -2.0031
19323TIP3    H279385   3.509   3.851  14.863 -1.7432 -0.5207  2.7434
19324TIP3   OH279386   3.290   3.173   3.398 -0.1247  0.2560  0.2396
19324TIP3    H179387   3.216   3.124   3.363 -0.0208 -0.2032  0.6510
19324TIP3    H279388   3.251   3.239   3.455 -0.2072 -0.1804  0.6932
19325TIP3   OH279389   1.680   3.951  16.227  0.4204  0.2252  0.2596
19325TIP3    H179390   1.597   3.990  16.201  0.8958  0.2087 -1.3795
19325TIP3    H279391   1.745   4.020  16.213  1.0923 -0.6934 -1.4450
19326TIP3   OH279392   2.709   0.300   0.452 -0.0659  0.3766  0.3573
19326TIP3    H179393   2.741   0.267   0.536  0.1224  0.6805  0.4059
19326TIP3    H279394   2.623   0.259   0.442  0.2933 -0.3703  0.2719
19327TIP3   OH279395   1.130   3.094  11.974  0.2372  0.5232  0.0573
19327TIP3    H179396   1.218   3.123  11.997  0.5719  0.6109 -1.2620
19327TIP3    H279397   1.073   3.163  12.007  1.0061  2.7150 -2.8020
19328TIP3   OH279398   3.605   3.694  16.294 -0.8578 -0.2001  0.0055
19328TIP3    H179399   3.589   3.635  16.221 -0.2375 -3.0999  2.0211
19328TIP3    H279400   3.568   3.649  16.370  2.2526  0.5163  2.1576
19329TIP3   OH279401   3.419   6.147   5.799  0.4919  0.5266 -0.1264
19329TIP3    H179402   3.479   6.211   5.759  0.1393 -0.0009 -1.5475
19329TIP3    H279403   3.335   6.193   5.804  0.9273  1.2263  1.7624
19330TIP3   OH279404   4.082   0.547   1.665 -0.0456  0.7769 -0.7281
19330TIP3    H179405   4.112   0.590   1.745  0.0986 -1.7467  0.6543
19330TIP3    H279406   3.991   0.573   1.656 -0.1003  0.9656  0.3357
19331TIP3   OH279407   0.654   2.157  12.683 -0.2300 -0.0982 -0.0310
19331TIP3    H179408   0.724   2.215  12.714  1.7322 -1.7473 -1.1293
19331TIP3    H279409   0.638   2.098  12.757  2.1896 -1.9969 -0.8885
19332TIP3   OH279410   4.712   1.996  13.359 -0.2760  0.3151 -0.3723
19332TIP3    H179411   4.723   2.066  13.295  0.2979  0.3569 -0.2259
19332TIP3    H279412   4.660   1.930  13.313 -0.4721  0.6503 -0.6444
19333TIP3   OH279413   5.958   4.221   4.328  0.0255 -0.4211  0.0632
19333TIP3    H179414   5.933   4.305   4.288  1.0233 -1.1273 -2.2392
19333TIP3    H279415   6.016   4.180   4.263  0.4328 -2.4332  1.5933
19334TIP3   OH279416   0.788   3.572  11.441  0.4008  0.1140 -0.7206
19334TIP3    H179417   0.882   3.559  11.429  0.4197  0.7715 -1.3748
19334TIP3    H279418   0.771   3.658  11.403 -0.2982  0.4387  0.2968
19335TIP3   OH279419   5.396   4.847   0.495 -0.3824  0.5971 -0.0841
19335TIP3    H179420   5.350   4.790   0.433  0.0627  0.3182 -0.1633
19335TIP3    H279421   5.486   4.813   0.496 -0.6189 -0.0362  1.4704
19336TIP3   OH279422   0.534   1.359  13.741  0.1804 -0.4006  0.2206
19336TIP3    H179423   0.482   1.395  13.669 -1.0212 -1.3894  0.5568
19336TIP3    H279424   0.541   1.266  13.721  1.9443 -0.2755  0.1361
19337TIP3   OH279425   6.567   0.297  13.503 -0.4085  0.2152  0.4387
19337TIP3    H179426   6.656   0.265  13.491 -0.4641  0.0588  0.4422
19337TIP3    H279427   6.520   0.265  13.426 -0.5415  0.0120  0.6036
19338TIP3   OH279428   3.998   5.226  14.103  0.0750  0.2815 -0.5927
19338TIP3    H179429   4.028   5.139  14.131  0.8008  0.7165  0.0131
19338TIP3    H279430   3.979   5.215  14.010 -1.1049 -0.8501 -0.2431
19339TIP3   OH279431   3.226   0.578   1.026  0.5030 -0.1827 -0.4822
19339TIP3    H179432   3.301   0.528   0.993  0.0661 -1.7662  0.8025
19339TIP3    H279433   3.232   0.571   1.121 -1.2095 -0.2450 -0.3531
19340TIP3   OH279434   1.480   1.506  14.966  0.0908 -0.2267  0.4121
19340TIP3    H179435   1.439   1.592  14.962  1.8125  0.6991  1.2616
19340TIP3    H279436   1.478   1.483  15.058  1.7017  0.0093  0.5382
19341TIP3   OH279437   4.532   6.279   3.527 -0.3985 -0.1961  0.2123
19341TIP3    H179438   4.522   6.364   3.571 -2.3874 -0.9183  1.2909
19341TIP3    H279439   4.520   6.299   3.434 -0.6053  0.7505  0.4274
19342TIP3   OH279440   3.451   6.096   4.028 -0.9226 -0.2023  0.0424
19342TIP3    H179441   3.515   6.028   4.049 -2.5434 -2.2352 -1.2086
19342TIP3    H279442   3.502   6.163   3.982  0.3773 -1.6560 -0.7399
19343TIP3   OH279443   3.611   6.028  17.109  0.3370 -0.1835  0.0567
19343TIP3    H179444   3.519   6.012  17.088  0.9353 -1.4850 -1.7917
19343TIP3    H279445   3.641   6.087  17.040  1.3090 -1.2119 -0.4359
19344TIP3   OH279446   1.088   1.954   6.123 -0.2570 -0.0952 -0.3212
19344TIP3    H179447   1.004   1.988   6.154 -0.5107 -0.8877 -0.1294
19344TIP3    H279448   1.097   1.869   6.166  0.4007 -0.2490 -0.7543
19345TIP3   OH279449   6.175   5.116  15.594 -0.2179 -0.3999 -0.1284
19345TIP3    H179450   6.101   5.144  15.649 -0.6673  1.7882 -1.7278
19345TIP3    H279451   6.139   5.048  15.538 -0.2817 -1.2073  0.8530
19346TIP3   OH279452   2.790   3.519   0.230  0.1898 -0.3374 -0.4120
19346TIP3    H179453   2.883   3.521   0.207  0.5506  0.9188  0.9898
19346TIP3    H279454   2.789   3.488   0.321 -0.6728  0.4755 -0.1266
19347TIP3   OH279455   0.879   5.091  15.678  0.1297 -0.2730 -0.4839
19347TIP3    H179456   0.887   5.146  15.756  0.6715  2.2688 -2.2380
19347TIP3    H279457   0.818   5.137  15.621 -2.0184 -3.1697 -0.7888
19348TIP3   OH279458   4.557   0.634  15.407 -0.0385  0.3356  0.0646
19348TIP3    H179459   4.567   0.674  15.494 -1.4705  1.2488 -0.1610
19348TIP3    H279460   4.590   0.700  15.346  0.4078 -0.0654 -0.1351
19349TIP3   OH279461   3.756   0.529  15.135 -0.1954  0.1872 -0.3595
19349TIP3    H179462   3.686   0.496  15.079  0.8187 -2.1524 -0.3648
19349TIP3    H279463   3.734   0.498  15.223  0.6660 -0.3747 -0.3195
19350TIP3   OH279464   1.915   0.320   1.014  0.1639  0.2469 -0.6854
19350TIP3    H179465   1.970   0.356   1.084  0.3314 -0.7327 -0.2885
19350TIP3    H279466   1.972   0.257   0.969 -0.4907 -0.4652 -0.5410
19351TIP3   OH279467   0.149   4.477   0.777  0.1638 -0.1330  0.8325
19351TIP3    H179468   0.093   4.400   0.764  0.9063 -0.2999 -2.0828
19351TIP3    H279469   0.089   4.551   0.777 -0.4311 -0.5690  2.3857
19352TIP3   OH279470   2.862   1.862  14.717 -0.3729  0.1725  0.6499
19352TIP3    H179471   2.918   1.896  14.786 -0.1631  1.7208 -0.2363
19352TIP3    H279472   2.826   1.940  14.674 -1.2626 -0.7560 -0.3638
19353TIP3   OH279473   5.073   0.126   0.655 -0.4554  0.4469 -0.0994
19353TIP3    H179474   5.051   0.138   0.563 -0.9554  0.8938  0.0729
19353TIP3    H279475   5.007   0.177   0.702 -0.8455 -0.6267  0.5526
19354TIP3   OH279476   5.543   0.651  15.817 -0.1025 -0.1961 -0.0106
19354TIP3    H179477   5.534   0.572  15.870 -1.0513  1.9825  3.3763
19354TIP3    H279478   5.585   0.715  15.875  0.3210  1.9478 -2.4680
19355TIP3   OH279479   1.100   3.402   6.319 -0.2535  0.0771 -0.2669
19355TIP3    H179480   1.027   3.394   6.381 -0.9870 -1.9920 -1.2914
19355TIP3    H279481   1.119   3.495   6.316 -2.2727  0.5750  0.7305
19356TIP3   OH279482   5.000   2.351  15.801  0.1685 -0.0687  0.4148
19356TIP3    H179483   5.031   2.362  15.890  0.6124  0.5497  0.1838
19356TIP3    H279484   4.968   2.437  15.775 -5.2737 -1.2385  1.9142
19357TIP3   OH279485   0.840   4.092  16.422 -0.0431  0.0815 -0.1819
19357TIP3    H179486   0.858   4.156  16.353  0.9687 -0.4155 -0.4037
19357TIP3    H279487   0.816   4.145  16.499 -2.0083  0.6132 -1.0987
19358TIP3   OH279488   0.136   6.085   3.160  0.0712  0.3938  0.1378
19358TIP3    H179489   0.147   6.159   3.099  1.3870 -1.6186 -2.2713
19358TIP3    H279490   0.203   6.100   3.227  1.6123  0.5158 -1.3430
19359TIP3   OH279491   6.470   1.346   5.962  0.1145  0.2643 -0.6712
19359TIP3    H179492   6.523   1.388   6.030 -1.6488  0.1772  0.8590
19359TIP3    H279493   6.426   1.274   6.007  1.0697 -1.6674 -2.6265
19360TIP3   OH279494   5.492   1.822   4.837  0.1963 -0.0375  0.3075
19360TIP3    H179495   5.439   1.902   4.833 -2.7653 -1.9352 -2.3202
19360TIP3    H279496   5.429   1.751   4.838  2.7355 -2.4895  2.0377
19361TIP3   OH279497   1.815   5.288  11.927 -0.0125  0.2233 -0.5621
19361TIP3    H179498   1.892   5.326  11.885  1.3920 -1.1057  0.6550
19361TIP3    H279499   1.782   5.224  11.863  1.4856 -1.0458 -0.1416
19362TIP3   OH279500   2.719   6.154  15.070  0.8721  0.0867  0.0558
19362TIP3    H179501   2.635   6.186  15.038  0.8334  0.2024  0.2680
19362TIP3    H279502   2.704   6.061  15.089  0.6804  0.2000  0.4684
19363TIP3   OH279503   4.364   4.961  14.056 -0.0312 -0.4553 -0.6965
19363TIP3    H179504   4.376   5.015  13.978 -0.5998  0.5575 -0.0921
19363TIP3    H279505   4.440   4.902  14.056  1.4803  1.3829 -0.5226
19364TIP3   OH279506   6.097   5.240  16.171  0.1399 -0.2526  0.1870
19364TIP3    H179507   6.006   5.245  16.200  0.6690  1.7848  1.6727
19364TIP3    H279508   6.130   5.159  16.209 -0.3070  0.3997  2.0806
19365TIP3   OH279509   3.032   1.582  16.862  0.0125  0.3374  0.3004
19365TIP3    H179510   2.979   1.569  16.941 -0.9150 -0.6550 -0.4691
19365TIP3    H279511   3.083   1.661  16.881  1.0504 -0.7749  2.5565
19366TIP3   OH279512   2.430   0.829   4.587  0.3672  0.2816  0.3652
19366TIP3    H179513   2.464   0.897   4.646  0.4889  0.0186  0.5981
19366TIP3    H279514   2.494   0.758   4.593 -0.2535 -0.2459  0.8622
19367TIP3   OH279515   0.509   1.806   5.347  0.2524 -0.2729 -0.5695
19367TIP3    H179516   0.574   1.753   5.301 -1.4358 -1.0068 -2.2658
19367TIP3    H279517   0.550   1.827   5.431  1.6327 -2.9422 -0.4570
19368TIP3   OH279518   4.836   2.001  16.874  0.0550  0.4245  0.2283
19368TIP3    H179519   4.923   1.979  16.841 -0.0828  0.5124 -0.2016
19368TIP3    H279520   4.832   1.960  16.960  0.7026  0.8142  0.4536
19369TIP3   OH279521   5.068   4.759  16.644 -0.5193  0.2993 -0.5027
19369TIP3    H179522   5.085   4.706  16.567 -1.6104  0.4166 -0.8425
19369TIP3    H279523   5.075   4.849  16.614  0.9485  0.3725 -0.0117
19370TIP3   OH279524   0.211   3.222  13.297  0.1459 -0.1888 -0.6313
19370TIP3    H179525   0.297   3.263  13.309 -0.8984  1.3626  2.9194
19370TIP3    H279526   0.149   3.290  13.323 -1.9309 -2.4522  0.7516
19371TIP3   OH279527   6.095   3.246  12.409  0.2197  0.0002 -0.2184
19371TIP3    H179528   6.185   3.273  12.430  0.0677 -0.2811  0.8235
19371TIP3    H279529   6.071   3.186  12.479 -0.6862 -0.1627 -0.6569
19372TIP3   OH279530   4.544   6.602   2.905  0.7125  0.5138 -0.2012
19372TIP3    H179531   4.499   6.639   2.981  0.6675  1.6017 -0.7305
19372TIP3    H279532   4.474   6.576   2.845  0.7586  0.2864 -0.1567
19373TIP3   OH279533   1.115   1.899  14.051 -0.0796 -1.0295 -0.4170
19373TIP3    H179534   1.205   1.916  14.078 -0.5212 -0.5982  0.8661
19373TIP3    H279535   1.118   1.814  14.007  1.2000 -0.3210 -1.7747
19374TIP3   OH279536   1.511   5.259  17.274 -0.1050  0.1182 -0.3062
19374TIP3    H179537   1.597   5.301  17.266 -0.2547  0.7102  1.0032
19374TIP3    H279538   1.464   5.312  17.337 -0.5322 -1.6338  0.9137
19375TIP3   OH279539   4.952   5.494  14.752  0.0704 -0.1066  0.3748
19375TIP3    H179540   4.947   5.574  14.804  0.3770 -0.1702  0.5043
19375TIP3    H279541   4.989   5.429  14.811 -0.9508 -0.5709  0.5306
19376TIP3   OH279542   4.071   1.022  16.082 -0.3792  0.2258 -0.1063
19376TIP3    H179543   3.986   1.054  16.113 -0.5019 -0.1815 -0.0274
19376TIP3    H279544   4.118   1.102  16.059 -2.3350  0.4134 -4.3675
19377TIP3   OH279545   3.055   2.753   3.346 -0.0119  0.0366  0.5575
19377TIP3    H179546   3.064   2.671   3.394 -2.0578  1.6105  3.9948
19377TIP3    H279547   3.113   2.814   3.392 -1.1771  1.3474  0.3391
19378TIP3   OH279548   2.912   4.171   2.954  0.5598 -0.2826 -0.0381
19378TIP3    H179549   2.842   4.181   3.019  0.3750  1.4720 -0.4762
19378TIP3    H279550   2.916   4.076   2.939  0.7283 -0.7625  2.6324
19379TIP3   OH279551   0.176   4.021  15.485  0.1098 -0.2998 -0.7945
19379TIP3    H179552   0.100   4.076  15.506  1.4286  0.8568  1.3629
19379TIP3    H279553   0.181   4.022  15.390 -2.9832 -1.0257 -1.0557
19380TIP3   OH279554   6.462   3.451   5.351  0.5411 -0.2343  0.5648
19380TIP3    H179555   6.520   3.438   5.426 -0.1488  0.3100  1.2088
19380TIP3    H279556   6.378   3.416   5.380 -0.1849  1.5212  0.7057
19381TIP3   OH279557   0.875   5.796  12.620  0.1068 -0.0566 -0.5405
19381TIP3    H179558   0.849   5.749  12.541 -1.4642  1.5437 -1.0439
19381TIP3    H279559   0.793   5.825  12.659  0.9554  1.0438  0.5156
19382TIP3   OH279560   2.289   2.612  14.111 -0.0620  0.1601  0.8977
19382TIP3    H179561   2.288   2.691  14.164 -1.1017 -0.9246  2.5590
19382TIP3    H279562   2.331   2.546  14.167  1.3324 -0.3605 -0.6667
19383TIP3   OH279563   2.885   6.608  13.799  0.3062  0.0990 -0.3307
19383TIP3    H179564   2.881   6.659  13.880  0.1839 -0.0855 -0.2215
19383TIP3    H279565   2.844   6.665  13.734  1.3894  0.7133 -0.5124
19384TIP3   OH279566   5.679   5.874   0.677  0.7303  0.0781  0.7432
19384TIP3    H179567   5.633   5.905   0.599  0.5241 -0.3564  0.6872
19384TIP3    H279568   5.748   5.938   0.691  0.2784  0.5848  0.6629
19385TIP3   OH279569   6.685   2.531   5.494 -0.5997 -0.1262 -0.4899
19385TIP3    H179570   6.680   2.450   5.444  2.0870  0.1066 -1.2807
19385TIP3    H279571   6.666   2.505   5.584 -1.4676 -1.2994 -0.9950
19386TIP3   OH279572   3.832   4.313  15.590 -0.2677  0.2326 -0.1346
19386TIP3    H179573   3.831   4.229  15.635  1.0415 -0.4196 -1.2129
19386TIP3    H279574   3.924   4.324  15.563 -0.2210  2.4168  0.7034
19387TIP3   OH279575   2.847   1.702   1.979  0.5551 -0.0623  0.1380
19387TIP3    H179576   2.896   1.696   1.897 -0.1425 -0.5622 -0.2552
19387TIP3    H279577   2.755   1.700   1.952  0.3045  0.9371  0.8562
19388TIP3   OH279578   1.653   5.429   3.903 -0.0397  0.5533 -0.0472
19388TIP3    H179579   1.566   5.404   3.873 -0.1938 -0.7909  1.3610
19388TIP3    H279580   1.704   5.439   3.823 -1.2948  0.6448 -0.8726
19389TIP3   OH279581   4.072   0.926  16.606 -0.0349 -0.4569 -0.3424
19389TIP3    H179582   4.095   0.939  16.514  0.5986 -1.0651 -0.2819
19389TIP3    H279583   3.993   0.871  16.604 -0.7060  0.4937 -0.5333
19390TIP3   OH279584   0.738   0.470  16.590  0.4675  0.5070  0.1516
19390TIP3    H179585   0.788   0.547  16.617  1.0839  0.0928  0.2244
19390TIP3    H279586   0.731   0.478  16.494  0.1079  0.8981  0.2093
19391TIP3   OH279587   1.814   5.291   4.487  0.1536  0.2055  0.3026
19391TIP3    H179588   1.752   5.353   4.524 -2.1770 -1.3189 -0.8177
19391TIP3    H279589   1.842   5.330   4.405  0.1461  0.5868  0.4799
19392TIP3   OH279590   0.536   3.669   2.387 -0.1138 -0.5556  0.1435
19392TIP3    H179591   0.488   3.750   2.405  1.4233  0.3013  0.5805
19392TIP3    H279592   0.544   3.666   2.291  2.8682  1.7701  0.1752
19393TIP3   OH279593   6.277   4.551   4.473  0.1547 -0.0025  0.7322
19393TIP3    H179594   6.278   4.565   4.378 -0.8247  0.7210  0.8070
19393TIP3    H279595   6.369   4.543   4.497  0.5348  1.6352 -0.0388
19394TIP3   OH279596   4.136   0.361   2.148 -0.2842  0.0389 -0.3592
19394TIP3    H179597   4.111   0.280   2.104  2.1001  0.2972 -2.4313
19394TIP3    H279598   4.217   0.387   2.105  0.4187  2.1698  2.0263
19395TIP3   OH279599   6.496   0.253  17.132  0.0290  0.0858  0.3895
19395TIP3    H179600   6.574   0.297  17.167  0.0380  1.0882 -0.8255
19395TIP3    H279601   6.444   0.324  17.093 -0.5792 -0.8231 -0.4964
19396TIP3   OH279602   3.362   4.145   5.797  0.1651 -0.5480 -0.2470
19396TIP3    H179603   3.334   4.108   5.881  0.8032  1.0134  0.7092
19396TIP3    H279604   3.311   4.226   5.788  0.3039 -0.5585 -1.2290
19397TIP3   OH279605   3.711   2.877   1.786  0.2442 -0.1995  0.4776
19397TIP3    H179606   3.719   2.863   1.691  2.1607  2.0203  0.2192
19397TIP3    H279607   3.664   2.960   1.793  0.2229 -0.2904  1.4735
19398TIP3   OH279608   5.903   2.756  16.914 -0.4924  0.4185 -0.1355
19398TIP3    H179609   5.933   2.830  16.967  1.7167  0.2011 -0.9871
19398TIP3    H279610   5.849   2.796  16.845 -1.2446  0.9522  0.7275
19399TIP3   OH279611   2.965   5.705   3.206 -0.9114 -0.1995  0.0079
19399TIP3    H179612   2.986   5.672   3.293 -0.3687 -1.6216 -0.6478
19399TIP3    H279613   2.879   5.748   3.217 -0.0157  1.3245  1.6224
19400TIP3   OH279614   4.646   1.716  17.000 -0.2956 -0.1108  0.2526
19400TIP3    H179615   4.625   1.691  16.910  0.9441  1.3522 -0.5005
19400TIP3    H279616   4.602   1.800  17.013 -0.2678 -0.1933  0.9369
19401TIP3   OH279617   6.599   5.998  16.087  0.1983 -0.2887  0.7349
19401TIP3    H179618   6.600   5.970  16.178 -1.1021 -1.5980  0.3691
19401TIP3    H279619   6.610   6.093  16.092 -1.4813 -0.1267  2.3484
19402TIP3   OH279620   1.549   3.628   1.274 -0.2473  0.1015 -0.2375
19402TIP3    H179621   1.567   3.565   1.205 -0.0702 -0.0725 -0.0324
19402TIP3    H279622   1.635   3.648   1.311 -0.1823  1.1438 -0.8901
19403TIP3   OH279623   5.070   5.956  14.696  0.0258  0.1708  0.3233
19403TIP3    H179624   4.978   5.984  14.691 -0.1407 -0.2799  0.7442
19403TIP3    H279625   5.116   6.031  14.734 -0.3107  0.1092  0.8730
19404TIP3   OH279626   0.464   2.223  16.346 -0.1394 -0.2551  0.4358
19404TIP3    H179627   0.532   2.156  16.357  0.3944  0.3972  1.2794
19404TIP3    H279628   0.399   2.183  16.288 -0.0784 -1.6783  1.3109
19405TIP3   OH279629   3.827   4.937  10.912  0.4268 -0.3576 -0.5556
19405TIP3    H179630   3.772   4.967  10.984 -0.1241  1.0133 -1.4940
19405TIP3    H279631   3.863   4.854  10.942  1.3968  0.8367  1.9022
19406TIP3   OH279632   2.050   4.366  17.331  0.1083  0.0160 -0.2657
19406TIP3    H179633   2.076   4.407  17.413 -1.0080 -0.4690  0.3488
19406TIP3    H279634   2.060   4.435  17.265  2.6596 -0.0601 -0.0774
19407TIP3   OH279635   0.902   4.491  11.268  0.1649  0.1564  0.1363
19407TIP3    H179636   0.968   4.425  11.291  0.2584 -0.4256 -1.6577
19407TIP3    H279637   0.843   4.446  11.208 -0.3555  1.4173 -0.3325
19408TIP3   OH279638   3.378   2.560   6.678 -0.6670  0.9628 -0.6926
19408TIP3    H179639   3.399   2.652   6.665 -0.5795  0.8324 -1.5418
19408TIP3    H279640   3.406   2.517   6.597 -1.4120  0.3159 -0.6250
19409TIP3   OH279641   3.914   1.220   4.345 -0.2639  0.7125  0.2470
19409TIP3    H179642   3.953   1.133   4.354  0.6601  1.3051  2.8335
19409TIP3    H279643   3.892   1.227   4.252 -1.7713 -2.8361  0.2085
19410TIP3   OH279644   4.088   4.026   2.276 -0.1080  0.4406  0.4025
19410TIP3    H179645   4.102   4.046   2.368 -0.3713  0.2881  0.4763
19410TIP3    H279646   4.123   3.938   2.265  0.2559  0.5987  0.2728
19411TIP3   OH279647   2.713   6.338  11.767 -0.0675  0.1137 -0.0999
19411TIP3    H179648   2.767   6.274  11.814 -0.8311 -1.8570 -1.7429
19411TIP3    H279649   2.773   6.377  11.703  0.1630  0.3500  0.2525
19412TIP3   OH279650   5.844   0.520  15.937 -0.0598  0.1148  0.2273
19412TIP3    H179651   5.843   0.447  15.875 -3.9251 -0.6565  0.9104
19412TIP3    H279652   5.829   0.598  15.883  0.7038  0.0092 -0.1557
19413TIP3   OH279653   3.678   6.372   3.552 -0.2902  0.2102  0.1967
19413TIP3    H179654   3.655   6.432   3.481  0.0599  0.3627  0.2105
19413TIP3    H279655   3.655   6.419   3.632  1.3352  0.9291  0.2679
19414TIP3   OH279656   2.240   1.084  17.245 -0.0221  0.2990  0.1076
19414TIP3    H179657   2.180   1.016  17.275 -2.9287  1.5680 -2.2641
19414TIP3    H279658   2.189   1.165  17.252  1.4253  1.4863 -1.9766
19415TIP3   OH279659   0.724   5.000  17.358 -0.3728  0.1578  0.4268
19415TIP3    H179660   0.709   4.910  17.384 -0.4684 -0.0696 -0.3921
19415TIP3    H279661   0.637   5.040  17.355 -0.4159  0.0301 -0.0802
19416TIP3   OH279662   3.756   2.427   5.765  0.2488  0.4537  0.0233
19416TIP3    H179663   3.777   2.518   5.786  0.2437  0.2412  1.0096
19416TIP3    H279664   3.840   2.382   5.764  0.0635 -0.0182  2.0768
19417TIP3   OH279665   5.546   1.062  11.888 -0.6252  0.1849 -0.5483
19417TIP3    H179666   5.641   1.055  11.880 -0.5765 -0.0350  0.1800
19417TIP3    H279667   5.527   1.035  11.977 -1.2457  1.5661 -0.2344
19418TIP3   OH279668   6.300   5.878   5.542 -0.0835  0.2831  0.0739
19418TIP3    H179669   6.321   5.971   5.541  1.9528 -0.1264 -0.9164
19418TIP3    H279670   6.338   5.845   5.624  0.8334  0.0342 -0.4303
19419TIP3   OH279671   5.769   2.327   4.551 -0.5477  0.2844 -0.2488
19419TIP3    H179672   5.701   2.263   4.575  0.5865 -0.2758  1.6143
19419TIP3    H279673   5.720   2.407   4.531 -1.7842 -0.1321  0.9432
19420TIP3   OH279674   4.493   2.552  12.224 -0.7110  0.0058  0.2626
19420TIP3    H179675   4.468   2.467  12.187 -0.1827  0.0324 -0.1684
19420TIP3    H279676   4.568   2.580  12.172  0.1852 -0.0473  1.4701
19421TIP3   OH279677   6.063   4.475   3.531 -0.0799 -0.6927  0.0460
19421TIP3    H179678   6.005   4.503   3.461 -1.5841  0.2677  1.6031
19421TIP3    H279679   6.142   4.528   3.519 -1.7544  2.3425  1.2079
19422TIP3   OH279680   6.481   2.450   1.301 -0.0600  0.5638 -1.0466
19422TIP3    H179681   6.440   2.498   1.229 -1.5042 -0.3815 -0.8942
19422TIP3    H279682   6.417   2.382   1.324  1.0190 -0.0890  0.1379
19423TIP3   OH279683   2.551   4.117   2.054  0.2024  0.3646 -0.4504
19423TIP3    H179684   2.504   4.165   2.122  1.0078 -1.5103  1.5991
19423TIP3    H279685   2.629   4.169   2.037 -0.1773  1.0314 -0.1723
19424TIP3   OH279686   6.534   1.607  11.894  0.3089  0.6823 -0.2842
19424TIP3    H179687   6.476   1.536  11.865 -0.3878  0.6543  1.0841
19424TIP3    H279688   6.622   1.572  11.880 -0.0018  0.1852 -1.1243
19425TIP3   OH279689   1.973   2.822   3.188 -0.7322  0.3145 -0.1117
19425TIP3    H179690   1.880   2.842   3.177 -1.3683 -0.9357  2.1858
19425TIP3    H279691   1.998   2.870   3.267  0.0284 -0.8841  0.3944
19426TIP3   OH279692   0.917   3.976   0.508 -0.1950 -0.0239  0.6072
19426TIP3    H179693   0.863   3.946   0.582 -0.3175  0.7730  0.8524
19426TIP3    H279694   0.934   4.068   0.527 -2.8292  1.1311 -1.8404
19427TIP3   OH279695   1.402   3.009  12.013  0.0698  0.2594 -0.3926
19427TIP3    H179696   1.493   2.991  12.037 -0.7486 -2.9179  0.8030
19427TIP3    H279697   1.357   3.022  12.096 -1.0040 -0.8872 -0.7569
19428TIP3   OH279698   3.773   5.913  16.893  0.0026 -0.2808 -0.0611
19428TIP3    H179699   3.725   5.934  16.973 -0.5773 -2.1887  0.1354
19428TIP3    H279700   3.865   5.924  16.916 -0.1382 -1.0934  0.9885
19429TIP3   OH279701   3.423   6.376  16.177 -0.5617 -0.6353 -0.1188
19429TIP3    H179702   3.387   6.443  16.119 -1.5982  1.0061  2.2441
19429TIP3    H279703   3.352   6.357  16.238  1.2090 -0.3863  2.1431
19430TIP3   OH279704   1.470   2.298  11.872  0.0180 -0.3984  0.0534
19430TIP3    H179705   1.390   2.311  11.924  0.1885  1.2152 -0.0679
19430TIP3    H279706   1.496   2.385  11.844  0.5268 -1.1262 -1.9014
19431TIP3   OH279707   0.120   6.133  15.474  0.2391  0.5754  0.4939
19431TIP3    H179708   0.089   6.223  15.482 -0.6565  0.5628 -1.8558
19431TIP3    H279709   0.133   6.121  15.380  0.3142 -1.7541  0.7414
19432TIP3   OH279710   0.702   1.934  13.158  0.2019 -0.1940 -0.0524
19432TIP3    H179711   0.712   1.929  13.253 -2.0148 -1.7839  0.1942
19432TIP3    H279712   0.787   1.963  13.125  0.4757  2.2755  2.5290
19433TIP3   OH279713   1.737   0.889  14.804  0.4938 -0.2364  0.3571
19433TIP3    H179714   1.666   0.827  14.790 -0.1966  0.5734  0.2389
19433TIP3    H279715   1.750   0.931  14.719  0.3785  0.3780  0.6359
19434TIP3   OH279716   1.368   3.648   0.615 -0.6558 -0.1385 -0.3914
19434TIP3    H179717   1.342   3.559   0.595 -0.3586  0.0859 -1.8686
19434TIP3    H279718   1.406   3.682   0.534  2.9269  0.0425  1.1450
19435TIP3   OH279719   0.799   4.197  14.836 -0.0699  0.0429  0.2541
19435TIP3    H179720   0.875   4.184  14.892 -1.1309  0.3513  1.8356
19435TIP3    H279721   0.807   4.130  14.768  2.1165  0.7051 -0.2488
19436TIP3   OH279722   0.617   5.487  13.702 -0.1863  0.5131 -0.4826
19436TIP3    H179723   0.569   5.412  13.666 -0.0893  0.5043 -0.5970
19436TIP3    H279724   0.586   5.562  13.651  1.1193  0.2699 -1.7004
19437TIP3   OH279725   4.387   5.355  16.645 -0.6448 -0.4136  0.2459
19437TIP3    H179726   4.465   5.299  16.648 -0.5650 -0.3785 -0.7050
19437TIP3    H279727   4.421   5.443  16.663 -0.1210 -0.1091 -1.8883
19438TIP3   OH279728   0.724   6.608   3.114  0.2430 -0.5389 -0.5753
19438TIP3    H179729   0.798   6.628   3.057  0.6916 -0.2248  0.1102
19438TIP3    H279730   0.649   6.650   3.072  0.2324 -1.7083 -1.8256
19439TIP3   OH279731   3.267   6.674   5.156  0.3176 -0.2448 -0.5622
19439TIP3    H179732   3.358   6.650   5.135 -0.6705 -2.3627 -2.8859
19439TIP3    H279733   3.224   6.590   5.175 -1.1416  0.7466  0.7316
19440TIP3   OH279734   1.513   4.631  13.088 -0.1846 -0.2014 -0.5261
19440TIP3    H179735   1.588   4.684  13.114  0.5385 -1.7517  0.7788
19440TIP3    H279736   1.548   4.570  13.024  0.4826 -2.7560  2.0493
19441TIP3   OH279737   5.205   4.546  14.695 -0.8409  0.7548  0.5012
19441TIP3    H179738   5.254   4.568  14.615  1.1927  0.7475  1.6751
19441TIP3    H279739   5.221   4.620  14.753  2.0429 -1.3720  2.7209
19442TIP3   OH279740   0.186   5.286  14.804 -0.5095  0.3502 -0.5401
19442TIP3    H179741   0.188   5.196  14.834  0.8920  0.3197 -0.6469
19442TIP3    H279742   0.241   5.334  14.866 -1.0028  1.0807 -0.6467
19443TIP3   OH279743   1.693   3.690  17.096  0.3405 -0.2446 -0.2941
19443TIP3    H179744   1.754   3.761  17.079  1.2259 -1.2551 -1.6175
19443TIP3    H279745   1.730   3.643  17.170 -0.9444  1.3674  1.4595
19444TIP3   OH279746   4.120   4.859   1.202 -0.3734 -0.1306 -0.2749
19444TIP3    H179747   4.063   4.782   1.194  0.1497 -0.5615  0.1707
19444TIP3    H279748   4.203   4.832   1.163 -0.3413  0.3760 -0.5701
19445TIP3   OH279749   3.635   1.473  13.571 -0.1657  0.0820  0.4605
19445TIP3    H179750   3.692   1.422  13.514 -0.1100  0.2048  0.4070
19445TIP3    H279751   3.560   1.497  13.516 -0.9017 -1.1604  0.8614
19446TIP3   OH279752   3.176   3.573  14.269  0.3911  0.0422  0.5369
19446TIP3    H179753   3.169   3.502  14.333 -0.8076  0.3656  0.8016
19446TIP3    H279754   3.247   3.628  14.302 -1.3123  1.1775  2.6505
19447TIP3   OH279755   5.005   2.734  14.241 -0.4552 -0.4358 -0.4968
19447TIP3    H179756   4.933   2.672  14.247  0.3617 -1.3009  0.8899
19447TIP3    H279757   4.978   2.808  14.296 -1.2835  0.3598 -1.8893
19448TIP3   OH279758   4.461   6.406  15.725  0.0687  0.1374 -0.2760
19448TIP3    H179759   4.537   6.358  15.692  2.9416  2.9664  1.6636
19448TIP3    H279760   4.446   6.369  15.812  0.3314  0.6811  0.0047
19449TIP3   OH279761   4.571   5.116  15.874  0.1758 -0.6770  0.3243
19449TIP3    H179762   4.651   5.071  15.848  0.9185  1.7093 -1.9309
19449TIP3    H279763   4.527   5.138  15.792  0.6297  3.8291  1.0055
19450TIP3   OH279764   5.957   2.876   1.856 -0.4210 -0.1285  0.2311
19450TIP3    H179765   5.934   2.783   1.850 -1.8115 -0.0837  3.3064
19450TIP3    H279766   6.038   2.877   1.906  0.9789  0.2896 -1.9000
19451TIP3   OH279767   3.373   4.820  16.691  0.4334  0.0607  0.4702
19451TIP3    H179768   3.345   4.874  16.617  1.2167  0.5541  0.5192
19451TIP3    H279769   3.461   4.852  16.711  0.6277 -0.7655  0.9543
19452TIP3   OH279770   3.077   6.605   2.475  0.2491  0.0349 -0.0439
19452TIP3    H179771   3.082   6.662   2.399 -2.4320  0.7736  0.2280
19452TIP3    H279772   3.111   6.521   2.444 -1.3013  0.1393 -2.3130
19453TIP3   OH279773   0.657   2.134  14.167 -0.1414  0.7884 -0.3379
19453TIP3    H179774   0.707   2.188  14.105 -1.3881 -0.2322 -2.3578
19453TIP3    H279775   0.632   2.056  14.116 -2.2024  0.4127  1.1198
19454TIP3   OH279776   0.970   2.545   0.272  0.0152  0.0319 -0.6467
19454TIP3    H179777   0.981   2.475   0.208 -0.2620 -1.8027  1.2220
19454TIP3    H279778   1.007   2.623   0.229  1.0125 -1.3951 -2.5044
19455TIP3   OH279779   6.711   3.306   6.330 -0.5537  0.2255 -0.3194
19455TIP3    H179780   6.793   3.324   6.377 -0.0550 -0.3642 -0.9290
19455TIP3    H279781   6.690   3.216   6.354 -1.7689  0.8113  0.8962
19456TIP3   OH279782   2.890   2.469  14.450 -0.0568  0.4236  0.5497
19456TIP3    H179783   2.977   2.508  14.452  0.1920 -0.1428  2.0313
19456TIP3    H279784   2.903   2.381  14.416 -0.1925  0.6349 -0.0622
19457TIP3   OH279785   5.061   3.064   4.828  0.5168  0.3428  0.1536
19457TIP3    H179786   5.000   3.051   4.901  1.3903 -1.6064  0.5938
19457TIP3    H279787   5.013   3.036   4.751  0.5166 -0.2598  0.3692
19458TIP3   OH279788   3.190   0.974  15.796  0.1112 -0.0692 -0.0484
19458TIP3    H179789   3.178   1.002  15.705 -1.3269  0.1180  0.1831
19458TIP3    H279790   3.102   0.957  15.828  0.5002  0.9538  1.6766
19459TIP3   OH279791   1.674   2.127  16.055  0.4712 -0.3179 -0.4657
19459TIP3    H179792   1.608   2.116  15.986 -0.5996  0.4536  0.3895
19459TIP3    H279793   1.624   2.129  16.136  1.6319 -0.4010  0.2782
19460TIP3   OH279794   0.368   6.006  15.490  0.9283 -0.2469 -0.6289
19460TIP3    H179795   0.296   6.066  15.470  0.7262 -0.5471 -0.8161
19460TIP3    H279796   0.426   6.057  15.546 -0.9401 -0.9242  2.1404
19461TIP3   OH279797   3.447   3.008   4.291  0.3835 -0.1063 -0.1629
19461TIP3    H179798   3.503   2.931   4.304  0.1168 -0.5529 -1.5344
19461TIP3    H279799   3.370   2.990   4.345  0.6356 -0.4593  0.0904
19462TIP3   OH279800   3.145   1.956  12.067 -0.6982 -0.2408  0.7017
19462TIP3    H179801   3.182   2.043  12.075  0.4721 -0.7743  1.3744
19462TIP3    H279802   3.061   1.969  12.023  0.4959  0.9738 -1.3820
19463TIP3   OH279803   2.292   2.652  15.179 -0.2980  0.6980 -0.3320
19463TIP3    H179804   2.316   2.745  15.187  0.4418  0.4703  0.1785
19463TIP3    H279805   2.231   2.636  15.250  0.9573  0.3670  0.7009
19464TIP3   OH279806   3.757   5.373   3.885 -0.0317 -0.5497  0.2477
19464TIP3    H179807   3.731   5.286   3.855  1.0815 -0.6250 -0.5686
19464TIP3    H279808   3.702   5.433   3.834 -1.4069 -0.7745  1.4292
19465TIP3   OH279809   5.764   5.079  14.054  0.1142  0.0648 -0.3288
19465TIP3    H179810   5.741   5.024  14.129 -1.9756  1.9214  0.5259
19465TIP3    H279811   5.850   5.047  14.026  1.5992 -0.0247  3.6077
19466TIP3   OH279812   0.205   3.675  16.509 -0.4183  0.2081 -0.0036
19466TIP3    H179813   0.145   3.673  16.435 -0.5400  1.4145  0.0490
19466TIP3    H279814   0.268   3.605  16.491 -1.0657 -0.2089 -0.7015
19467TIP3   OH279815   3.838   0.061   2.291 -0.0747 -0.0237 -0.3318
19467TIP3    H179816   3.863   0.107   2.371 -1.4488  1.3036 -0.6199
19467TIP3    H279817   3.792  -0.017   2.322 -0.4813  0.4138  0.1979
19468TIP3   OH279818   3.023   3.422   1.562 -0.1070  0.2830  0.3254
19468TIP3    H179819   3.115   3.420   1.537 -0.0121  2.0790  0.4393
19468TIP3    H279820   2.997   3.330   1.563  1.7866 -0.2927  0.6942
19469TIP3   OH279821   2.746   4.487   4.640  0.6700  0.1330 -0.1600
19469TIP3    H179822   2.839   4.508   4.648  0.7199 -0.0136 -0.3498
19469TIP3    H279823   2.705   4.530   4.715  0.7108  1.1982 -0.7399
19470TIP3   OH279824   5.021   3.980  14.252  0.1623  0.0754  0.4042
19470TIP3    H179825   5.065   3.936  14.179 -0.3495  0.8931 -0.4196
19470TIP3    H279826   5.032   4.073  14.235  0.1160  0.2843  1.4320
19471TIP3   OH279827   0.173   3.448  12.423 -0.0927  0.1810 -0.1380
19471TIP3    H179828   0.176   3.428  12.329  1.0048 -0.8685  0.0864
19471TIP3    H279829   0.081   3.463  12.441 -0.3483  0.2107 -1.3547
19472TIP3   OH279830   2.468   0.453   4.150 -0.1450  0.1532 -0.2663
19472TIP3    H179831   2.552   0.407   4.153  0.2546  0.9207  0.9412
19472TIP3    H279832   2.444   0.464   4.242 -1.2572  0.5254 -0.5861
19473TIP3   OH279833   2.048   1.503  16.886 -0.2938  0.1882  0.1380
19473TIP3    H179834   2.036   1.517  16.792  0.1465 -0.1254  0.0305
19473TIP3    H279835   1.976   1.551  16.927  1.1486  2.9020 -0.1992
19474TIP3   OH279836   4.867   4.215  16.703 -0.8532 -0.2324  0.4308
19474TIP3    H179837   4.775   4.223  16.728 -0.6772  0.6689  0.8264
19474TIP3    H279838   4.909   4.177  16.780 -0.9996 -1.2972  0.0004
19475TIP3   OH279839   3.416   5.962  16.633 -0.1278 -0.1380  0.6739
19475TIP3    H179840   3.443   5.960  16.541  0.4339  0.5248  0.8160
19475TIP3    H279841   3.498   5.953  16.682 -0.1539  1.6339  1.1114
19476TIP3   OH279842   0.536   5.196   0.981 -0.0631 -0.4544  0.2917
19476TIP3    H179843   0.598   5.250   0.931  0.2074  0.7674  1.8633
19476TIP3    H279844   0.548   5.108   0.946 -0.1424  0.3819 -1.9986
19477TIP3   OH279845   2.891   1.194   1.940  0.2736 -0.0900 -0.5771
19477TIP3    H179846   2.895   1.212   2.034  1.8808 -1.5446 -0.3303
19477TIP3    H279847   2.904   1.100   1.933  0.4611  0.0394 -2.2890
19478TIP3   OH279848   0.409   2.552   2.115 -0.1165  0.7257  0.5791
19478TIP3    H179849   0.338   2.592   2.065  2.0337  1.6497 -2.0149
19478TIP3    H279850   0.404   2.459   2.095  0.7751  1.0924 -1.6180
19479TIP3   OH279851   1.045   5.707   5.206 -0.4256  0.1946 -0.2309
19479TIP3    H179852   0.967   5.688   5.154  1.5710 -3.9976 -2.2075
19479TIP3    H279853   1.015   5.697   5.297 -1.8564 -4.5972 -0.9004
19480TIP3   OH279854   3.166   5.346   1.569  0.4025 -0.4881  0.1367
19480TIP3    H179855   3.232   5.389   1.514  1.5596 -3.8247 -1.3645
19480TIP3    H279856   3.217   5.287   1.624 -1.2067 -2.3694 -0.2844
19481TIP3   OH279857   3.279   0.362  13.628  0.5717  0.1589  0.2586
19481TIP3    H179858   3.281   0.283  13.682 -0.7766  0.6597  1.0753
19481TIP3    H279859   3.338   0.423  13.672  1.1461 -0.1611 -0.0456
19482TIP3   OH279860   5.957   1.061  16.778 -0.2380 -0.5734  0.2837
19482TIP3    H179861   5.962   0.997  16.707 -0.1916  0.9522 -1.1239
19482TIP3    H279862   5.982   1.144  16.738 -0.6693  0.4164  1.9804
19483TIP3   OH279863   1.661   6.216   4.253  0.0677  0.1076  0.1279
19483TIP3    H179864   1.676   6.310   4.260 -0.0352  0.0883  0.6082
19483TIP3    H279865   1.634   6.189   4.340  1.3910 -0.5997  0.3465
19484TIP3   OH279866   6.597   3.106   2.827 -0.3238  0.0525 -0.1480
19484TIP3    H179867   6.526   3.172   2.825  0.5777  1.0489 -0.1919
19484TIP3    H279868   6.580   3.056   2.907 -1.7025 -0.4474 -0.7206
19485TIP3   OH279869   3.438   0.573  13.748 -0.1333 -0.1281 -0.2657
19485TIP3    H179870   3.480   0.605  13.827 -0.5202  2.4448 -1.0102
19485TIP3    H279871   3.507   0.570  13.682 -0.2830  0.0319 -0.4316
19486TIP3   OH279872   6.443   3.426  15.294 -0.1818 -0.4385 -0.3184
19486TIP3    H179873   6.432   3.335  15.321 -0.0410 -0.3772 -0.0443
19486TIP3    H279874   6.471   3.421  15.203  1.2972 -0.7355  0.1261
19487TIP3   OH279875   0.800   2.381   0.686  0.3044 -0.7731 -0.6551
19487TIP3    H179876   0.835   2.304   0.730 -0.5005 -0.0858  1.2865
19487TIP3    H279877   0.705   2.370   0.689  0.1797  0.2411 -0.4052
19488TIP3   OH279878   2.818   4.058  12.938  0.6915 -0.1978 -0.0147
19488TIP3    H179879   2.887   3.998  12.909 -0.5850 -1.3505 -0.7959
19488TIP3    H279880   2.737   4.007  12.931 -0.4609  1.6190 -0.7235
19489TIP3   OH279881   1.599   1.523   0.465  0.2942  0.5790  0.3411
19489TIP3    H179882   1.677   1.468   0.453 -0.4303 -0.0554 -2.1409
19489TIP3    H279883   1.541   1.471   0.521  0.1669 -0.6636 -0.8915
19490TIP3   OH279884   6.196   1.261  11.061 -0.5743 -0.3293 -0.5270
19490TIP3    H179885   6.176   1.260  10.967 -0.4525 -0.2976 -0.5535
19490TIP3    H279886   6.216   1.169  11.082  0.5209 -0.1671 -0.7772
19491TIP3   OH279887   2.177   5.874  16.013 -0.1823 -0.0845 -0.3486
19491TIP3    H179888   2.089   5.882  15.976 -0.5553 -2.0875 -0.0456
19491TIP3    H279889   2.230   5.837  15.942 -0.0270 -0.5409 -0.0020
19492TIP3   OH279890   1.790   0.455  17.233  0.2512  0.4986 -0.6907
19492TIP3    H179891   1.746   0.537  17.212  0.0442 -0.2447 -3.7376
19492TIP3    H279892   1.749   0.391  17.174  0.5089 -1.7815  1.4589
19493TIP3   OH279893   4.845   3.171   2.512 -0.0517 -0.8166 -0.2066
19493TIP3    H179894   4.902   3.142   2.583 -0.4698 -2.4502 -0.4880
19493TIP3    H279895   4.846   3.266   2.518  1.1911 -0.8654  0.9715
19494TIP3   OH279896   0.752   2.275  11.790  0.2110 -0.0132  0.3394
19494TIP3    H179897   0.784   2.344  11.730 -0.7959  0.3356  0.1821
19494TIP3    H279898   0.832   2.237  11.827  0.8021  1.8528  1.1296
19495TIP3   OH279899   6.259   5.339  16.404 -0.6815  0.0613  0.7671
19495TIP3    H179900   6.337   5.319  16.353 -0.6048 -1.8630  1.5550
19495TIP3    H279901   6.280   5.422  16.448  1.4718 -1.0114  1.9344
19496TIP3   OH279902   2.119   1.601   0.039  0.0765 -0.2288  0.2241
19496TIP3    H179903   2.189   1.552  -0.003 -0.1847 -1.0182  0.6788
19496TIP3    H279904   2.076   1.648  -0.032 -0.3904 -1.5659 -0.4118
19497TIP3   OH279905   3.666   2.862  13.119 -0.1080 -0.3199  0.3355
19497TIP3    H179906   3.594   2.836  13.061  0.4075 -0.3538 -0.3117
19497TIP3    H279907   3.640   2.832  13.206 -1.2492  0.4001  0.2574
19498TIP3   OH279908   6.652   5.083  14.892  0.2719 -0.1695  0.2502
19498TIP3    H179909   6.721   5.077  14.958 -1.0821 -0.8382  1.6529
19498TIP3    H279910   6.632   4.992  14.870 -0.6984 -0.0105  0.4412
19499TIP3   OH279911   0.156   2.722  13.889 -0.0091  0.8323  0.0223
19499TIP3    H179912   0.105   2.641  13.887 -1.2943  1.6158  0.1044
19499TIP3    H279913   0.142   2.761  13.803  1.2597  0.6087 -0.3151
19500TIP3   OH279914   4.209   3.418  15.234 -0.0720 -0.1866 -0.3686
19500TIP3    H179915   4.130   3.366  15.244 -1.4190  1.4088 -2.0289
19500TIP3    H279916   4.252   3.412  15.319 -2.0625 -0.9769  0.6484
19501TIP3   OH279917   0.867   3.789   2.360  0.4865 -0.0572  0.0491
19501TIP3    H179918   0.892   3.696   2.358  0.0427 -0.1606 -0.9712
19501TIP3    H279919   0.788   3.791   2.414  2.0832  0.1478  2.5270
19502TIP3   OH279920   2.648   3.097   3.091  0.2711  0.4933  0.6213
19502TIP3    H179921   2.587   3.163   3.125  1.4785  2.4262 -0.7340
19502TIP3    H279922   2.646   3.110   2.996  1.4712 -0.5945  0.4228
19503TIP3   OH279923   0.947   4.784  14.680 -0.2324 -0.1405 -0.1238
19503TIP3    H179924   1.000   4.788  14.601 -0.1713 -0.9843 -0.1277
19503TIP3    H279925   0.960   4.696  14.714  0.4229  0.4784  1.3079
19504TIP3   OH279926   2.389   0.707  14.949  0.2212  0.1843 -0.2794
19504TIP3    H179927   2.350   0.786  14.912  1.1616  0.5799 -0.4794
19504TIP3    H279928   2.441   0.739  15.023  0.4022 -0.2800 -0.2041
19505TIP3   OH279929   1.260   5.633   4.926  0.1062 -0.0139 -0.8110
19505TIP3    H179930   1.184   5.647   4.983 -0.2644  0.2103 -1.3561
19505TIP3    H279931   1.335   5.656   4.981  0.1321 -3.7126  1.0247
19506TIP3   OH279932   4.857   0.335  10.367 -0.4591 -0.5194  0.1260
19506TIP3    H179933   4.888   0.272  10.302 -0.2133  0.3787 -0.6636
19506TIP3    H279934   4.804   0.397  10.317  0.1391  0.4707  0.6850
19507TIP3   OH279935   5.491   0.025   5.143  0.2904 -0.0897 -0.1372
19507TIP3    H179936   5.415  -0.025   5.174 -0.1541  0.7151  0.1195
19507TIP3    H279937   5.541   0.044   5.222  0.5996 -0.3636 -0.2687
19508TIP3   OH279938   6.130   0.404  16.603 -0.4616 -0.5497 -0.5905
19508TIP3    H179939   6.106   0.356  16.523  0.1251 -1.5547 -0.1782
19508TIP3    H279940   6.063   0.472  16.611 -0.5709 -0.4781 -1.8924
19509TIP3   OH279941   1.721   6.294  12.918  0.5513  0.0016  0.5958
19509TIP3    H179942   1.740   6.302  13.012  0.1944 -2.8819  1.0038
19509TIP3    H279943   1.788   6.235  12.885  0.2998  0.4928 -0.8590
19510TIP3   OH279944   5.134   3.105  17.067  0.5502 -0.3711 -0.0419
19510TIP3    H179945   5.043   3.078  17.079  0.0447  0.7077 -1.2730
19510TIP3    H279946   5.170   3.041  17.005 -0.7203  1.7193 -3.1659
19511TIP3   OH279947   6.228   4.137  16.275 -0.2582  0.4828  0.6102
19511TIP3    H179948   6.245   4.089  16.194 -0.8094  0.2664  0.6145
19511TIP3    H279949   6.246   4.228  16.254 -3.5647  0.9459 -0.7817
19512TIP3   OH279950   2.640   3.463   2.766  0.3554  0.4616  0.4090
19512TIP3    H179951   2.659   3.380   2.808  0.4043  0.3700  0.2072
19512TIP3    H279952   2.579   3.441   2.695  1.0037  0.4753 -0.1689
19513TIP3   OH279953   1.179   5.224   3.874  0.7710  0.0924  0.4360
19513TIP3    H179954   1.161   5.267   3.958  1.4742 -1.0684  1.2251
19513TIP3    H279955   1.103   5.167   3.860  0.6610  0.2743  0.2874
19514TIP3   OH279956   3.355   3.862  17.118  0.6738  0.3868  0.0265
19514TIP3    H179957   3.343   3.933  17.054 -0.3811  1.1631  1.0483
19514TIP3    H279958   3.449   3.845  17.116  0.9491  1.7821 -0.2898
19515TIP3   OH279959   6.147   3.436  11.937 -0.4007 -0.1355 -0.4363
19515TIP3    H179960   6.162   3.475  12.024  0.3283 -0.5992 -0.3436
19515TIP3    H279961   6.222   3.465  11.885 -1.3888  1.0632 -1.2609
19516TIP3   OH279962   0.992   3.361   3.229  0.1287  0.0135 -0.2805
19516TIP3    H179963   1.071   3.393   3.185 -0.0694  0.2065 -0.4972
19516TIP3    H279964   1.004   3.266   3.234  2.1577  0.2859  3.0815
19517TIP3   OH279965   5.918   1.330   3.233 -0.2188  0.1691 -0.6845
19517TIP3    H179966   5.904   1.264   3.166 -0.3299 -0.5185  0.0006
19517TIP3    H279967   6.008   1.360   3.219  0.2397 -0.9643 -0.2961
19518TIP3   OH279968   0.880   5.800   6.060 -0.4385  0.4858  0.0843
19518TIP3    H179969   0.837   5.772   6.140  0.3336  2.4274  1.2521
19518TIP3    H279970   0.835   5.751   5.991 -2.1084 -0.1866  1.5495
19519TIP3   OH279971   2.277   3.895  16.046 -0.0646 -0.4079 -0.7134
19519TIP3    H179972   2.342   3.965  16.054 -1.3227  0.8759 -1.2803
19519TIP3    H279973   2.229   3.897  16.130  0.2670 -0.9818 -0.5084
19520TIP3   OH279974   1.869   3.450  12.975  0.4967 -0.1428 -0.3220
19520TIP3    H179975   1.817   3.465  12.896  0.0754  0.8180  0.1203
19520TIP3    H279976   1.940   3.392  12.946 -0.3325 -0.8042 -1.1242
19521TIP3   OH279977   4.677   5.372  12.752  0.1435  0.0626  0.2917
19521TIP3    H179978   4.592   5.340  12.782  0.6320 -0.6769  0.9571
19521TIP3    H279979   4.736   5.297  12.766  0.6848  0.1920 -1.1980
19522TIP3   OH279980   1.047   0.363   5.582 -0.7857  0.2311  0.3878
19522TIP3    H179981   1.022   0.278   5.619 -1.5366  1.2437  2.3731
19522TIP3    H279982   1.109   0.399   5.645  0.0291  0.8981 -0.7653
19523TIP3   OH279983   6.054   3.773   3.869  0.1343 -0.2296  0.5445
19523TIP3    H179984   6.009   3.839   3.923 -1.9703 -0.1196 -1.1905
19523TIP3    H279985   6.099   3.824   3.801  0.9006 -0.4724  0.8586
19524TIP3   OH279986   0.334   2.042   2.346  0.2014 -0.5329 -0.1022
19524TIP3    H179987   0.263   1.988   2.311 -1.2914  1.3190 -0.0610
19524TIP3    H279988   0.351   2.107   2.278  0.0339  0.6375  0.9327
19525TIP3   OH279989   1.568   6.309  11.816  0.3759 -0.1695  0.1545
19525TIP3    H179990   1.569   6.225  11.861  0.7629  0.2433  0.9409
19525TIP3    H279991   1.490   6.306  11.761 -0.3596 -0.5157  1.1919
19526TIP3   OH279992   5.396   0.205   1.642  0.2934 -0.2610 -0.6017
19526TIP3    H179993   5.320   0.150   1.620  0.8399 -1.4143  0.2960
19526TIP3    H279994   5.372   0.292   1.610 -1.2602 -0.6756 -0.6595
19527TIP3   OH279995   4.624   0.034  10.316 -0.7941 -0.3920  0.3731
19527TIP3    H179996   4.686  -0.032  10.348 -1.5267 -0.8780  0.8029
19527TIP3    H279997   4.546   0.022  10.369 -0.3540  1.9931  1.7126
19528TIP3   OH279998   1.115   2.817  16.671  0.0348 -0.1708 -0.1284
19528TIP3    H179999   1.083   2.783  16.588  1.4885 -1.6513 -0.1229
19528TIP3    H280000   1.206   2.788  16.676 -0.5727 -2.0274  2.9284
19529TIP3   OH280001   1.585   0.477  16.665  0.3676  0.0098 -0.0729
19529TIP3    H180002   1.570   0.461  16.572  0.2728  1.5448 -0.3482
19529TIP3    H280003   1.556   0.396  16.708 -2.7001  0.4118 -1.1111
19530TIP3   OH280004   1.482   0.289  13.672 -0.2400 -0.2999  0.2795
19530TIP3    H180005   1.543   0.318  13.739 -1.2919  0.8987  0.7498
19530TIP3    H280006   1.536   0.278  13.594  0.8245 -0.7511  1.0535
19531TIP3   OH280007   4.359   5.931  12.039 -0.3767 -0.1266  0.2829
19531TIP3    H180008   4.392   6.012  12.002  0.8860 -0.0109  1.6092
19531TIP3    H280009   4.304   5.893  11.970 -0.1390  1.3232 -0.7192
19532TIP3   OH280010   4.315   3.408  15.525 -0.1541  0.0341 -0.1503
19532TIP3    H180011   4.406   3.425  15.547  0.4625 -1.4336 -1.4364
19532TIP3    H280012   4.282   3.492  15.492  0.7458  0.5456  0.2183
19533TIP3   OH280013   2.094   2.889  13.157 -0.1345  0.3006 -0.0404
19533TIP3    H180014   2.137   2.971  13.179 -0.2572  0.9337 -1.9137
19533TIP3    H280015   2.022   2.915  13.099  1.1895 -1.2280 -2.5719
19534TIP3   OH280016   4.617   3.162   5.444  0.5771  0.1889 -0.5434
19534TIP3    H180017   4.690   3.207   5.402  2.2298 -0.9440  0.9604
19534TIP3    H280018   4.602   3.210   5.526  0.9415 -0.6989  0.0618
19535TIP3   OH280019   0.509   1.005  12.885  0.0384 -0.3674 -0.1686
19535TIP3    H180020   0.436   0.945  12.897 -0.8324  0.6248 -0.3578
19535TIP3    H280021   0.563   0.992  12.963 -0.3628 -1.0642  0.0077
19536TIP3   OH280022   5.357   0.138   3.789  0.2863  0.0675 -0.2601
19536TIP3    H180023   5.401   0.222   3.802  1.0909 -0.5621  1.3917
19536TIP3    H280024   5.423   0.073   3.812 -0.4463 -1.0238 -1.1252
19537TIP3   OH280025   0.878   1.768  16.577  0.1613 -0.2754 -0.0897
19537TIP3    H180026   0.899   1.858  16.602 -1.0500 -0.0054 -0.0014
19537TIP3    H280027   0.905   1.762  16.485  1.2024 -0.1498  0.1882
19538TIP3   OH280028   4.588   3.773  11.969  0.6668  0.5313  0.9100
19538TIP3    H180029   4.643   3.711  12.018  1.7779  0.5481 -0.2682
19538TIP3    H280030   4.547   3.720  11.901 -0.0953  0.6912  1.2392
19539TIP3   OH280031   2.781   3.161   0.829  0.0849  0.2260 -0.4964
19539TIP3    H180032   2.735   3.135   0.908 -0.1339  2.0513  0.0165
19539TIP3    H280033   2.723   3.225   0.787  1.4581  1.4575 -0.5965
19540TIP3   OH280034   3.376   3.094  13.086  0.3304  0.5228  0.6361
19540TIP3    H180035   3.304   3.033  13.105 -0.6638  1.6792  0.7039
19540TIP3    H280036   3.333   3.178  13.070  1.6226  1.0835 -0.0917
19541TIP3   OH280037   0.654   1.421  15.703 -0.2749  0.0328  0.7042
19541TIP3    H180038   0.699   1.405  15.785  3.0365  0.3319 -0.9059
19541TIP3    H280039   0.653   1.336  15.659 -0.1224  0.2876  0.1982
19542TIP3   OH280040   5.639   6.563  12.713  0.1757 -0.2178 -1.1044
19542TIP3    H180041   5.635   6.637  12.652 -1.8190 -1.0197 -2.0159
19542TIP3    H280042   5.728   6.567  12.749  0.2900  2.3440 -1.4486
19543TIP3   OH280043   2.350   3.976   0.679 -0.2539 -0.0447 -0.0663
19543TIP3    H180044   2.360   3.977   0.584 -1.2781  0.2713 -0.1816
19543TIP3    H280045   2.396   4.055   0.709  0.4453 -0.3766 -0.2501
19544TIP3   OH280046   0.748   3.520   5.046  0.3652  0.1155 -0.5249
19544TIP3    H180047   0.732   3.433   5.081  0.9921 -0.5136 -1.7505
19544TIP3    H280048   0.712   3.517   4.957 -2.5638  2.1217  0.4229
19545TIP3   OH280049   2.655   6.325  14.063 -0.0845  0.0870  0.5143
19545TIP3    H180050   2.727   6.374  14.023 -0.3018 -0.7916 -1.0557
19545TIP3    H280051   2.659   6.239  14.022 -1.8508 -0.0740  0.5797
19546TIP3   OH280052   6.134   4.898   4.815 -0.3929 -0.5773  0.9067
19546TIP3    H180053   6.107   4.809   4.792  1.7414 -1.3090  1.0295
19546TIP3    H280054   6.220   4.909   4.775  0.5325  0.4816  3.0065
19547TIP3   OH280055   4.631   0.744  11.969 -0.2619 -0.0956  0.5908
19547TIP3    H180056   4.681   0.667  11.943  0.0377 -0.6427  2.5937
19547TIP3    H280057   4.584   0.716  12.047 -3.0071  0.7039 -0.6614
19548TIP3   OH280058   3.665   3.551  17.275 -0.5106  0.3108  0.0719
19548TIP3    H180059   3.665   3.641  17.241  0.1832 -0.0498 -0.9117
19548TIP3    H280060   3.573   3.525  17.274 -0.6975  0.9407  0.1945
19549TIP3   OH280061   0.015   6.623  14.077  0.2629  0.6791  0.2675
19549TIP3    H180062  -0.079   6.620  14.062  0.1844 -3.1904  0.4915
19549TIP3    H280063   0.032   6.550  14.137  3.3944  1.4858  0.5482
19550TIP3   OH280064   3.649   2.284  13.087  0.0611  0.4497  0.3962
19550TIP3    H180065   3.692   2.256  13.006 -2.8354  0.0111 -1.1306
19550TIP3    H280066   3.664   2.378  13.090  0.2830  0.4618 -0.6113
19551TIP3   OH280067   1.393   1.214  14.914  0.0652 -0.0569  0.4313
19551TIP3    H180068   1.439   1.212  14.998  1.4813 -1.4899 -0.3326
19551TIP3    H280069   1.403   1.304  14.883 -0.2901  0.4365  1.6725
19552TIP3   OH280070   0.620   6.368  10.790 -0.0809  0.9945 -0.3340
19552TIP3    H180071   0.619   6.464  10.787 -1.7268  1.0312  0.2684
19552TIP3    H280072   0.556   6.342  10.724 -1.2405  0.4055  0.9829
19553TIP3   OH280073   0.861   2.802  16.772 -0.2605  0.2775 -0.3231
19553TIP3    H180074   0.840   2.715  16.738 -0.3527 -1.0551  2.8049
19553TIP3    H280075   0.949   2.820  16.741  0.2333 -1.5202 -0.0206
19554TIP3   OH280076   3.418   5.357   3.490 -0.2124  0.2208 -0.2595
19554TIP3    H180077   3.475   5.370   3.414 -0.6302  1.0099 -0.4462
19554TIP3    H280078   3.409   5.444   3.529  0.6300 -0.3024  1.1613
19555TIP3   OH280079   4.314   4.641   3.513 -0.1929 -0.5189 -0.0163
19555TIP3    H180080   4.327   4.588   3.435 -1.4580  2.1031 -2.1774
19555TIP3    H280081   4.383   4.707   3.509 -1.0637  0.4446  0.2989
19556TIP3   OH280082   5.343   5.645  17.046 -0.1494  0.0088 -0.1390
19556TIP3    H180083   5.401   5.581  17.088 -0.6737 -0.4803 -0.1502
19556TIP3    H280084   5.402   5.711  17.009  0.3999 -0.4797 -0.1399
19557TIP3   OH280085   4.370   6.640  12.309 -0.1082  0.8219 -0.1443
19557TIP3    H180086   4.325   6.587  12.375 -0.1525  0.7762 -0.2098
19557TIP3    H280087   4.457   6.602  12.303 -0.0047  1.0154  0.1035
19558TIP3   OH280088   0.740   1.430  12.177  0.2428  0.2527  0.3589
19558TIP3    H180089   0.706   1.414  12.089 -0.5630  0.4209  0.6330
19558TIP3    H280090   0.823   1.382  12.180  0.2380  0.1827 -0.4648
19559TIP3   OH280091   1.610   6.727  11.682 -0.2918  0.4991  0.3078
19559TIP3    H180092   1.524   6.685  11.679 -0.1084  0.1616 -0.1770
19559TIP3    H280093   1.620   6.769  11.597 -0.4560  1.5104  0.7676
19560TIP3   OH280094   1.732   1.839  14.251  0.4416  0.2158 -0.8824
19560TIP3    H180095   1.710   1.750  14.279  1.7818 -0.3954 -1.6511
19560TIP3    H280096   1.713   1.841  14.157  3.1298 -0.2551 -1.5271
19561TIP3   OH280097   6.136   5.524   1.930 -0.5849  0.0446 -0.0711
19561TIP3    H180098   6.062   5.464   1.916  0.9294 -2.1463  0.7031
19561TIP3    H280099   6.192   5.478   1.993  0.3411  2.6499  1.1292
19562TIP3   OH280100   5.981   1.460  12.868  0.0761  0.2175  0.3719
19562TIP3    H180101   5.977   1.492  12.778  0.9851  0.2651  0.3381
19562TIP3    H280102   6.043   1.388  12.866 -1.9152 -1.5983  0.4600
19563TIP3   OH280103   3.899   1.910  12.659  0.4013 -0.1211 -0.5200
19563TIP3    H180104   3.940   1.995  12.673  0.4979 -0.0159 -1.4131
19563TIP3    H280105   3.971   1.850  12.640  0.2835 -0.2883 -0.4498
19564TIP3   OH280106   6.708   0.158   2.272 -0.1188  0.2476 -0.4676
19564TIP3    H180107   6.767   0.230   2.248 -0.8477  0.3967 -1.8975
19564TIP3    H280108   6.623   0.184   2.236 -0.5208 -1.0662 -0.5040
19565TIP3   OH280109   0.401   6.365   4.381 -0.1387 -0.1676  0.2862
19565TIP3    H180110   0.389   6.288   4.436  0.5726 -1.3190 -1.1004
19565TIP3    H280111   0.494   6.364   4.357 -0.2574  0.7436 -0.2968
19566TIP3   OH280112   1.449   2.556   2.411 -0.0050 -0.1550  0.4403
19566TIP3    H180113   1.459   2.571   2.318 -0.3757 -1.1333  0.2230
19566TIP3    H280114   1.488   2.470   2.426  1.0923  0.4809  1.4050
19567TIP3   OH280115   4.484   5.100  12.690 -0.0002  0.0210 -0.0542
19567TIP3    H180116   4.483   5.147  12.773 -1.4118  0.1401 -0.1070
19567TIP3    H280117   4.450   5.013  12.711 -2.2031  0.6248 -0.7618
19568TIP3   OH280118   5.893   3.089   6.153 -0.3551 -0.7450  0.3407
19568TIP3    H180119   5.881   3.148   6.079  2.6688 -0.8088 -0.3258
19568TIP3    H280120   5.947   3.139   6.214 -1.4277 -1.2996  1.7918
19569TIP3   OH280121   2.493   2.268   1.823  0.0190  0.3576  0.3540
19569TIP3    H180122   2.441   2.316   1.887 -1.6166  0.5657 -1.0780
19569TIP3    H280123   2.505   2.328   1.750  0.2167 -0.5090 -0.3489
19570TIP3   OH280124   1.195   5.662   4.303 -0.6740 -0.5514  0.0173
19570TIP3    H180125   1.208   5.757   4.297  1.0161 -0.7986 -0.7662
19570TIP3    H280126   1.181   5.646   4.397  2.2912  0.1586  0.6821
19571TIP3   OH280127   1.491   5.791  12.550 -0.1989 -0.0986  0.1440
19571TIP3    H180128   1.407   5.745  12.541 -0.4315  0.6478 -2.1807
19571TIP3    H280129   1.471   5.864  12.609 -1.4328  0.5294 -0.9988
19572TIP3   OH280130   2.897   2.013  15.357 -0.0607  0.2972  0.3979
19572TIP3    H180131   2.905   2.009  15.453 -2.3654  0.7094  0.6740
19572TIP3    H280132   2.873   2.104  15.340  0.4540  0.2525 -0.6105
19573TIP3   OH280133   5.783   2.120   0.137  0.4232 -0.2925  0.3924
19573TIP3    H180134   5.841   2.176   0.189 -0.2153 -0.6695  1.5317
19573TIP3    H280135   5.830   2.108   0.054  1.1668  0.8367  0.6261
19574TIP3   OH280136   0.612   5.614   2.655 -0.0576 -0.2963  0.4455
19574TIP3    H180137   0.593   5.545   2.592  0.4979 -0.7138  0.7325
19574TIP3    H280138   0.552   5.597   2.728 -1.4946  0.8320 -0.4039
19575TIP3   OH280139   3.768   6.484  16.913  0.2263 -0.1254 -0.2460
19575TIP3    H180140   3.722   6.525  16.986  0.9828 -2.3659  1.6081
19575TIP3    H280141   3.828   6.552  16.882 -1.4780  1.5236 -0.1462
19576TIP3   OH280142   1.531   2.094  13.826  0.9012 -0.2392  0.1681
19576TIP3    H180143   1.550   2.061  13.738  1.4473  0.9003 -0.1651
19576TIP3    H280144   1.504   2.185  13.812  1.5130  0.1240  1.2061
19577TIP3   OH280145   0.100   3.170   1.928 -0.2020 -0.2213 -0.0115
19577TIP3    H180146   0.010   3.139   1.922  0.3640 -1.8945 -0.7641
19577TIP3    H280147   0.096   3.248   1.983 -1.6217 -2.2747  3.0648
19578TIP3   OH280148   2.815   6.679  15.996 -0.3385 -0.0465  0.1238
19578TIP3    H180149   2.730   6.635  15.990 -0.3980  0.2547 -2.1075
19578TIP3    H280150   2.808   6.752  15.935  1.7723 -0.4303 -0.6525
19579TIP3   OH280151   4.241   2.263  11.321  0.0276 -0.1670 -0.4762
19579TIP3    H180152   4.266   2.205  11.249  1.9851  0.8486 -0.7058
19579TIP3    H280153   4.276   2.219  11.399 -0.5749 -0.4316 -0.3527
19580TIP3   OH280154   5.634   3.305   1.545 -1.1007 -0.0458 -0.2723
19580TIP3    H180155   5.558   3.294   1.488 -0.8144 -1.7595 -0.3821
19580TIP3    H280156   5.691   3.231   1.523 -1.1608 -1.0350  2.5113
19581TIP3   OH280157   3.132   0.374  16.783 -0.0928  0.2010 -0.0957
19581TIP3    H180158   3.105   0.413  16.866  1.2984 -1.0307  0.9866
19581TIP3    H280159   3.068   0.304  16.769 -1.0466  1.1634 -0.7160
19582TIP3   OH280160   5.788   1.982   0.383  0.0285  0.0363 -0.7734
19582TIP3    H180161   5.815   1.922   0.314 -0.7096 -0.6952 -0.4381
19582TIP3    H280162   5.719   2.035   0.342  0.0521  0.0515 -0.7941
19583TIP3   OH280163   3.666   0.100  14.590  0.7233 -0.4742 -0.7079
19583TIP3    H180164   3.581   0.062  14.611  1.3654 -0.4655  2.3091
19583TIP3    H280165   3.651   0.194  14.591  0.7450 -0.4723 -0.1634
19584TIP3   OH280166   0.280   3.882  15.727  0.7613  0.2181  0.0301
19584TIP3    H180167   0.257   3.806  15.781  0.4925  1.0122  1.0753
19584TIP3    H280168   0.286   3.847  15.638  0.3716 -0.9713  0.4434
19585TIP3   OH280169   1.055   4.140  13.733  0.4695  0.0738  0.6853
19585TIP3    H180170   0.981   4.098  13.777  0.3539 -2.1657 -1.4726
19585TIP3    H280171   1.094   4.071  13.680  0.7186  2.5023 -2.5629
19586TIP3   OH280172   2.405   2.601  15.911 -0.1317 -0.1431  0.2436
19586TIP3    H180173   2.405   2.692  15.878  0.8489  0.1047  0.8835
19586TIP3    H280174   2.373   2.608  16.001 -2.2708 -0.7538 -0.3917
19587TIP3   OH280175   3.312   4.327   2.003  0.3949  0.7097 -0.5413
19587TIP3    H180176   3.327   4.361   1.915  1.1434 -1.0718 -1.1596
19587TIP3    H280177   3.400   4.312   2.038  0.1446  2.6292  1.0646
19588TIP3   OH280178   1.139   4.954   1.757  0.3967 -0.5100 -0.3004
19588TIP3    H180179   1.058   4.998   1.731 -0.6429 -0.5330  2.5281
19588TIP3    H280180   1.142   4.875   1.702 -0.7542  0.1723 -1.4103
19589TIP3   OH280181   4.908   2.468   1.541 -0.6079  0.1799  0.1552
19589TIP3    H180182   4.906   2.433   1.630 -1.2862 -1.6338 -0.5099
19589TIP3    H280183   4.829   2.522   1.535 -1.5689 -1.1718  0.1378
19590TIP3   OH280184   0.099   1.994  16.102  0.6761 -0.6659 -0.0662
19590TIP3    H180185   0.026   1.948  16.062  0.1017 -0.1484  0.3666
19590TIP3    H280186   0.174   1.976  16.045  0.1284 -0.8820 -0.7237
19591TIP3   OH280187   4.042   2.987  13.536 -0.5251 -0.0243  0.9505
19591TIP3    H180188   4.071   2.980  13.445 -0.2613 -2.3064  1.1690
19591TIP3    H280189   4.088   2.917  13.582 -2.9492 -0.9174  2.2197
19592TIP3   OH280190   1.877   2.790  10.961 -0.0098  0.1121  0.4627
19592TIP3    H180191   1.948   2.729  10.981  0.9901  0.3095 -2.0383
19592TIP3    H280192   1.906   2.874  10.995  0.6660  0.0431  0.0819
19593TIP3   OH280193   6.486   4.376   5.988  0.3671 -0.0444  0.0024
19593TIP3    H180194   6.456   4.465   6.005  0.1586  0.7182 -3.5208
19593TIP3    H280195   6.581   4.384   5.975  0.3178 -0.2497 -0.5494
19594TIP3   OH280196   0.822   6.540  15.462  0.1657  0.2498 -0.4231
19594TIP3    H180197   0.863   6.603  15.522  1.2278  0.0958 -0.9694
19594TIP3    H280198   0.789   6.594  15.390 -0.4598  0.3567 -0.0613
19595TIP3   OH280199   5.231   3.133   1.944 -0.4365 -0.4941  0.5939
19595TIP3    H180200   5.158   3.127   2.005  0.0260 -1.7471  1.0615
19595TIP3    H280201   5.243   3.226   1.929 -1.9274 -0.2507  0.7413
19596TIP3   OH280202   1.252   0.523   5.719 -0.9391  0.4910  0.3178
19596TIP3    H180203   1.305   0.449   5.750 -2.1161 -1.3327 -1.8093
19596TIP3    H280204   1.254   0.585   5.792 -0.1880 -1.7601  2.3506
19597TIP3   OH280205   2.289   1.431  17.312 -0.0974  0.2664  0.6571
19597TIP3    H180206   2.204   1.403  17.278 -1.3611  2.8523  1.3703
19597TIP3    H280207   2.347   1.432  17.236 -1.2246  0.2319 -0.2186
19598TIP3   OH280208   3.804   1.949   5.714  0.0096  0.4732  0.2462
19598TIP3    H180209   3.749   1.979   5.641  0.4556  2.9167  0.8173
19598TIP3    H280210   3.747   1.890   5.764 -0.7698 -0.1176 -1.2768
19599TIP3   OH280211   0.461   3.963   3.083 -0.6011  0.5508 -0.3042
19599TIP3    H180212   0.514   3.885   3.098  1.1704  1.5494 -1.0922
19599TIP3    H280213   0.376   3.929   3.054 -0.9189 -1.1266  2.3154
19600TIP3   OH280214   3.748   4.000  13.811  0.1382  0.1491  0.0189
19600TIP3    H180215   3.782   4.078  13.768  1.5160 -0.9704 -1.0014
19600TIP3    H280216   3.763   4.016  13.904  0.3587  1.1006 -0.1663
19601TIP3   OH280217   0.559   5.227   1.516  0.0689  0.1355 -0.0170
19601TIP3    H180218   0.620   5.255   1.585  0.9874 -2.2000  0.2027
19601TIP3    H280219   0.611   5.233   1.436 -0.2381  0.5203 -0.1921
19602TIP3   OH280220   6.391   5.815   4.314 -0.4401 -0.2311  0.7504
19602TIP3    H180221   6.313   5.783   4.267  0.4494 -0.8586 -0.3506
19602TIP3    H280222   6.455   5.744   4.304 -0.2909 -0.5369  3.2198
19603TIP3   OH280223   0.976   2.161   5.090 -0.2765 -0.3189 -0.0382
19603TIP3    H180224   0.942   2.138   5.004 -0.1822 -1.9483  0.3266
19603TIP3    H280225   0.922   2.235   5.119 -0.5346  0.0172 -1.3295
19604TIP3   OH280226   5.294   2.955  16.447  0.3962  0.0865  0.3927
19604TIP3    H180227   5.368   3.013  16.465 -0.9813  1.5535  1.6303
19604TIP3    H280228   5.329   2.866  16.460  1.7997  0.7613  1.4318
19605TIP3   OH280229   5.407   2.874  15.567 -0.2102  0.5125 -0.5035
19605TIP3    H180230   5.361   2.949  15.529 -0.9292 -0.3563 -1.4257
19605TIP3    H280231   5.443   2.907  15.649 -1.4432  1.5732 -0.3496
19606TIP3   OH280232   1.661   1.964   4.092 -0.2406 -1.0940  0.3301
19606TIP3    H180233   1.721   2.022   4.046 -0.1971  0.8737  2.6781
19606TIP3    H280234   1.702   1.947   4.176 -2.4760 -0.4508  1.6500
19607TIP3   OH280235   3.447   6.272   3.409  0.3360 -0.1534  0.2306
19607TIP3    H180236   3.518   6.299   3.468  0.3051  0.7326 -0.1165
19607TIP3    H280237   3.462   6.323   3.330  0.6253 -1.6321 -0.7087
19608TIP3   OH280238   4.715   5.857  11.464 -0.4172 -0.5345 -0.0090
19608TIP3    H180239   4.684   5.775  11.425 -1.0147 -0.5332  0.4437
19608TIP3    H280240   4.793   5.833  11.513  0.3049 -0.5557 -1.1168
19609TIP3   OH280241   0.392   0.344  17.359  0.5003 -0.1371  0.1937
19609TIP3    H180242   0.390   0.316  17.450 -2.7800  1.4576  0.7664
19609TIP3    H280243   0.350   0.272  17.311 -0.7654  0.3605  0.5004
19610TIP3   OH280244   0.971   1.864  13.444 -0.4709 -0.0154  0.0886
19610TIP3    H180245   1.015   1.945  13.417  0.2518  0.2395  1.8743
19610TIP3    H280246   0.880   1.891  13.461  0.1491  0.8833  2.3652
19611TIP3   OH280247   2.400   4.572   1.002  0.2392 -0.2486 -0.1546
19611TIP3    H180248   2.366   4.615   0.924  0.6216  0.0696 -0.1499
19611TIP3    H280249   2.343   4.496   1.015 -1.3281  0.9828  0.6156
19612TIP3   OH280250   1.792   0.806   6.257 -0.0730  0.0492  0.0798
19612TIP3    H180251   1.874   0.835   6.297 -0.7950 -0.6007  2.1477
19612TIP3    H280252   1.802   0.712   6.247 -0.8897 -0.1711  1.1959
19613TIP3   OH280253   1.937   5.862  15.859 -0.5158  0.0705  0.6839
19613TIP3    H180254   1.854   5.871  15.905 -0.7633 -0.8228  0.4385
19613TIP3    H280255   1.940   5.937  15.800 -0.6251  0.7157  1.4847
19614TIP3   OH280256   5.613   2.945  14.382 -0.0892  0.0331  0.4094
19614TIP3    H180257   5.545   3.007  14.408 -1.6413 -0.5581 -1.9530
19614TIP3    H280258   5.571   2.859  14.386  0.9709 -0.5091  0.2914
19615TIP3   OH280259   6.067   6.586   5.147 -0.3428 -0.1145  0.2975
19615TIP3    H180260   6.046   6.589   5.240 -1.1315  0.6194  0.1091
19615TIP3    H280261   6.161   6.603   5.143  0.3817 -3.2654  1.1538
19616TIP3   OH280262   5.208   6.490  16.690  0.4124 -0.0458  0.2173
19616TIP3    H180263   5.122   6.496  16.647 -0.4674  0.4020  1.9158
19616TIP3    H280264   5.237   6.581  16.696 -0.8916  0.3149  3.0966
19617TIP3   OH280265   6.753   3.932  12.497 -0.0315 -0.1708  0.5040
19617TIP3    H180266   6.732   3.867  12.430  0.8148 -1.4335  1.4144
19617TIP3    H280267   6.805   3.998  12.451 -0.8291 -0.1692 -0.4174
19618TIP3   OH280268   1.993   5.861   5.179  0.5923  0.2772 -0.0976
19618TIP3    H180269   2.049   5.786   5.162  0.0756  0.1465 -1.3409
19618TIP3    H280270   2.053   5.935   5.189  1.0113  0.0975 -1.1483
19619TIP3   OH280271   0.340   2.454  13.389  0.2539 -0.1277  0.2513
19619TIP3    H180272   0.341   2.391  13.318 -2.8893 -0.9822  0.8044
19619TIP3    H280273   0.395   2.526  13.359 -0.3996 -0.7678 -2.7492
19620TIP3   OH280274   1.536   4.173   3.696 -0.4011 -0.0022 -0.0721
19620TIP3    H180275   1.578   4.157   3.780 -0.3583 -1.1339 -0.2939
19620TIP3    H280276   1.556   4.265   3.676  0.4244 -0.0117  0.6779
19621TIP3   OH280277   4.803   1.730   4.041  0.1955 -0.1623 -0.3052
19621TIP3    H180278   4.744   1.659   4.016 -0.4036  0.4368 -0.5980
19621TIP3    H280279   4.767   1.808   4.000  1.0884  0.2498 -0.3396
19622TIP3   OH280280   2.706   5.426   1.048 -0.6443  0.5641  0.5692
19622TIP3    H180281   2.630   5.375   1.076 -0.2550  0.4888  1.5680
19622TIP3    H280282   2.781   5.371   1.071 -0.2906  0.4622 -0.7721
19623TIP3   OH280283   6.082   3.506  12.639 -0.0869  0.6738 -0.5964
19623TIP3    H180284   6.066   3.597  12.666 -1.3290  0.2913 -0.0041
19623TIP3    H280285   6.155   3.478  12.694  0.2994  1.2904 -0.7727
19624TIP3   OH280286   0.711   3.594   5.331  0.2148  0.5584  0.0359
19624TIP3    H180287   0.759   3.602   5.249 -0.6974  2.9919 -0.3322
19624TIP3    H280288   0.778   3.579   5.397  1.3689  2.4221 -0.6577
19625TIP3   OH280289   2.435   1.164   4.077 -0.0110  0.1805 -0.0081
19625TIP3    H180290   2.347   1.148   4.112  0.3702 -0.5912  0.6440
19625TIP3    H280291   2.471   1.232   4.132 -0.1110  0.3255 -0.1213
19626TIP3   OH280292   6.371   0.469  15.455  0.1164 -0.4186 -0.3297
19626TIP3    H180293   6.399   0.473  15.547 -0.8409 -0.7913 -0.0038
19626TIP3    H280294   6.376   0.559  15.424  1.2265 -0.4098 -0.1613
19627TIP3   OH280295   6.257   4.536  16.734  0.1092  0.2850  0.2222
19627TIP3    H180296   6.226   4.604  16.675  2.5265  0.0234 -1.4790
19627TIP3    H280297   6.316   4.482  16.681 -2.0990 -3.5839  1.2601
19628TIP3   OH280298   3.342   3.887   0.006  0.1047 -0.6058 -0.3884
19628TIP3    H180299   3.352   3.917  -0.085 -0.5276 -0.0333 -0.2799
19628TIP3    H280300   3.253   3.853   0.010 -0.5944  1.1813  0.4894
19629TIP3   OH280301   3.963   6.247   1.430  0.0279  0.1962  0.3314
19629TIP3    H180302   3.952   6.185   1.358  0.4482 -0.2894  0.6749
19629TIP3    H280303   4.045   6.292   1.410 -0.3974  0.8210 -0.0418
19630TIP3   OH280304   5.152   6.686   3.471  0.1567  0.1372  0.2553
19630TIP3    H180305   5.201   6.648   3.397 -0.2101  1.0576 -0.4727
19630TIP3    H280306   5.129   6.774   3.442 -0.5785  0.2722  1.2170
19631TIP3   OH280307   6.390   5.448   3.580 -0.1331  0.2813 -0.0023
19631TIP3    H180308   6.297   5.424   3.579 -0.1535  0.3278 -1.7535
19631TIP3    H280309   6.425   5.410   3.500  1.0922  1.3002  0.0253
19632TIP3   OH280310   1.163   2.405  10.775  0.2087 -0.5155 -0.6242
19632TIP3    H180311   1.241   2.395  10.829 -1.8326 -0.8910  2.5135
19632TIP3    H280312   1.168   2.495  10.743  1.6050 -0.3218  0.0599
19633TIP3   OH280313   1.717   2.307   1.250  0.4509 -0.0186 -0.4046
19633TIP3    H180314   1.689   2.297   1.341  1.1773 -0.1859 -0.1982
19633TIP3    H280315   1.722   2.218   1.216  1.2932 -0.0252 -0.2687
19634TIP3   OH280316   3.203   5.235   0.494  0.1131  0.5228  0.3162
19634TIP3    H180317   3.290   5.261   0.465 -0.0586 -0.1362 -0.8726
19634TIP3    H280318   3.143   5.283   0.437 -0.2381 -0.7700 -0.4486
19635TIP3   OH280319   0.953   0.969   4.083 -0.1937  0.1454 -0.0010
19635TIP3    H180320   0.933   0.886   4.126 -1.2691  0.4013  0.0142
19635TIP3    H280321   1.049   0.974   4.084 -0.1157 -1.0722  0.0273
19636TIP3   OH280322   1.576   1.597   2.758 -0.1855 -0.7792 -1.2194
19636TIP3    H180323   1.520   1.674   2.768  0.5866 -0.3314 -0.1303
19636TIP3    H280324   1.664   1.632   2.745 -0.3766 -1.3858 -5.7559
19637TIP3   OH280325   0.130   5.876   4.800  0.1380  0.2842 -0.4250
19637TIP3    H180326   0.041   5.896   4.773 -0.2692  2.3175  2.0603
19637TIP3    H280327   0.185   5.907   4.728 -1.0967 -0.7361 -1.8548
19638TIP3   OH280328   4.792   2.891   1.668  0.5563  0.1940  0.2827
19638TIP3    H180329   4.885   2.879   1.686  0.4921 -1.9327 -0.5532
19638TIP3    H280330   4.762   2.806   1.638 -1.7619  0.7204  0.8869
19639TIP3   OH280331   3.462   4.642   0.339 -0.2005 -0.3381 -0.1334
19639TIP3    H180332   3.444   4.726   0.381 -0.1231 -0.5401  0.3037
19639TIP3    H280333   3.555   4.647   0.315 -0.6022  0.3947 -1.6974
19640TIP3   OH280334   0.189   5.444  15.325 -0.1435 -0.1805  0.2919
19640TIP3    H180335   0.265   5.449  15.383  0.2923  1.4951 -0.3604
19640TIP3    H280336   0.114   5.455  15.383  0.0871 -1.7720  0.9308
19641TIP3   OH280337   4.158   4.863   4.441 -0.2113 -0.6498  0.1076
19641TIP3    H180338   4.182   4.913   4.362 -0.3888 -1.5485 -0.5282
19641TIP3    H280339   4.106   4.924   4.493  1.3543  0.5381  0.3577
19642TIP3   OH280340   2.475   6.646  14.633  0.1844 -0.5513  0.1264
19642TIP3    H180341   2.470   6.725  14.579 -0.0440  0.2385  1.2646
19642TIP3    H280342   2.384   6.618  14.642  0.3613 -1.7513 -1.3756
19643TIP3   OH280343   2.637   5.465   1.434 -0.2606 -0.1164 -0.0285
19643TIP3    H180344   2.700   5.533   1.411 -1.0581  0.3556 -0.8880
19643TIP3    H280345   2.570   5.510   1.485 -0.1544 -0.5212  0.4765
19644TIP3   OH280346   3.688   0.005   0.997  0.0381  0.1650 -0.1820
19644TIP3    H180347   3.747  -0.062   0.961 -0.6100 -0.6417  0.2396
19644TIP3    H280348   3.737   0.042   1.071  0.2140 -0.1668 -0.1297
19645TIP3   OH280349   3.180   1.075  10.564 -0.1120  0.1638  0.1830
19645TIP3    H180350   3.257   1.105  10.612  0.0575 -0.7966  0.5287
19645TIP3    H280351   3.118   1.050  10.632  0.1389 -1.2236 -0.0709
19646TIP3   OH280352   4.395   1.192   1.167  0.1509 -0.1720  0.6024
19646TIP3    H180353   4.429   1.218   1.082 -0.3641  1.4278  0.8542
19646TIP3    H280354   4.351   1.108   1.152 -3.0864  1.7095 -1.5251
19647TIP3   OH280355   3.018   5.930  16.983  0.2853  0.1814  0.0470
19647TIP3    H180356   3.110   5.957  16.984 -0.1154  1.7018 -0.9247
19647TIP3    H280357   3.020   5.839  16.955  1.5021  0.1578  0.1546
19648TIP3   OH280358   1.063   6.239  16.926  0.4989 -0.3979  0.2611
19648TIP3    H180359   0.997   6.170  16.926 -1.5236  1.3551 -1.8337
19648TIP3    H280360   1.130   6.209  16.864 -0.5088 -0.4072 -0.8549
19649TIP3   OH280361   5.950   2.270  14.810  0.3716  0.7371 -0.4379
19649TIP3    H180362   6.033   2.223  14.805  0.0936  0.2626 -0.6438
19649TIP3    H280363   5.887   2.205  14.841  0.0111  1.0036 -0.6058
19650TIP3   OH280364   6.547   4.016   4.347  0.5252  0.1019 -0.2179
19650TIP3    H180365   6.603   3.938   4.348 -1.3104 -1.2913 -0.4461
19650TIP3    H280366   6.535   4.036   4.254  1.0756  0.7404 -0.1577
19651TIP3   OH280367   1.418   2.822  13.791  0.0353  0.1709 -0.0400
19651TIP3    H180368   1.388   2.804  13.880 -2.7174  1.0198 -0.6985
19651TIP3    H280369   1.420   2.918  13.785  2.5967  0.1709 -0.2171
19652TIP3   OH280370   1.379   4.965  11.606  0.4066 -0.0289  0.0073
19652TIP3    H180371   1.345   5.017  11.678 -1.5004 -1.5104  0.2405
19652TIP3    H280372   1.362   5.018  11.528  0.0785  0.4397  0.3951
19653TIP3   OH280373   5.713   1.250   1.824 -0.0101  0.2367  0.0895
19653TIP3    H180374   5.718   1.234   1.919 -1.1779 -0.1473  0.0973
19653TIP3    H280375   5.620   1.262   1.806 -0.0802 -1.8149 -1.3276
19654TIP3   OH280376   5.128   2.831   3.314 -0.0892  0.2063  0.1894
19654TIP3    H180377   5.059   2.863   3.372 -1.2260  0.7347 -1.3944
19654TIP3    H280378   5.125   2.735   3.323 -2.3207  0.0702 -1.1860
19655TIP3   OH280379   0.559   2.934  15.239  0.2796 -0.5924 -0.0164
19655TIP3    H180380   0.478   2.920  15.287 -0.1005  1.6904  0.1036
19655TIP3    H280381   0.533   2.937  15.147  0.5677 -1.9516 -0.1614
19656TIP3   OH280382   1.394   6.634  13.895  0.4612  0.4061  0.0255
19656TIP3    H180383   1.377   6.710  13.840 -3.1940 -0.6681 -0.6307
19656TIP3    H280384   1.422   6.566  13.834 -0.0514  0.2038  0.0090
19657TIP3   OH280385   1.695   1.712   1.837 -0.1715  0.2434 -0.6196
19657TIP3    H180386   1.770   1.662   1.870  0.7980  1.5424 -0.7857
19657TIP3    H280387   1.695   1.697   1.742 -1.7715 -1.8972 -0.3531
19658TIP3   OH280388   1.057   5.794   1.573  0.0607  0.6011  0.2062
19658TIP3    H180389   0.962   5.790   1.566  0.0948  0.4225 -0.1815
19658TIP3    H280390   1.074   5.878   1.616 -0.2022  1.5363 -1.4353
19659TIP3   OH280391   2.660   2.781   5.404 -0.3104 -0.1936 -0.1571
19659TIP3    H180392   2.695   2.724   5.335 -1.4909 -0.3107 -0.6759
19659TIP3    H280393   2.640   2.722   5.477  0.1485 -0.1846 -0.0204
19660TIP3   OH280394   2.103   3.452   4.236  0.3899 -0.1790 -0.8877
19660TIP3    H180395   2.067   3.512   4.170  0.6838 -0.5931 -1.4264
19660TIP3    H280396   2.126   3.510   4.310 -1.1245  0.1300 -0.6173
19661TIP3   OH280397   3.107   1.563   1.880 -0.2624 -0.5343 -0.3088
19661TIP3    H180398   3.189   1.515   1.893 -0.7251 -1.0058  1.0177
19661TIP3    H280399   3.085   1.597   1.967 -2.3062 -1.7704 -0.2818
19662TIP3   OH280400   4.923   1.454   6.269  0.3348 -0.5891  0.2290
19662TIP3    H180401   4.937   1.506   6.348 -1.3373  0.5981 -0.1889
19662TIP3    H280402   5.010   1.421   6.246  1.7022  2.7625  0.0422
19663TIP3   OH280403   0.897   2.927   4.330 -0.4830 -0.2462 -0.6885
19663TIP3    H180404   0.944   3.000   4.370 -0.9640 -0.7208  0.8203
19663TIP3    H280405   0.966   2.868   4.300 -0.0889 -0.4023  0.4681
19664TIP3   OH280406   6.608   0.950  16.442  0.1296 -0.0844  0.2342
19664TIP3    H180407   6.599   0.883  16.510 -0.9279 -0.8253 -0.5974
19664TIP3    H280408   6.527   1.001  16.448  0.7284  0.8272  0.5605
19665TIP3   OH280409   2.336   6.264   4.849  0.3116  0.5268 -0.3931
19665TIP3    H180410   2.257   6.315   4.830 -0.6210 -1.6498 -2.8515
19665TIP3    H280411   2.401   6.297   4.786  0.9299  1.2267  0.5770
19666TIP3   OH280412   4.645   1.316  14.720 -0.0431  0.3373  0.1708
19666TIP3    H180413   4.666   1.265  14.798 -0.5414 -0.1107  0.0212
19666TIP3    H280414   4.728   1.356  14.694  0.2925 -0.1526  0.4724
19667TIP3   OH280415   5.081   0.317  14.295  0.5714  0.4686  0.1320
19667TIP3    H180416   4.989   0.327  14.320  1.1044  1.9795  1.8058
19667TIP3    H280417   5.094   0.223  14.286 -1.3752  0.2647 -1.2934
19668TIP3   OH280418   5.517   1.387   3.671  0.5192  0.5020  0.2477
19668TIP3    H180419   5.536   1.464   3.725 -0.6679  1.9232 -1.2312
19668TIP3    H280420   5.519   1.314   3.732  1.6418  1.6952  1.7308
19669TIP3   OH280421   5.202   1.464   0.851  0.0591  0.3100  0.8764
19669TIP3    H180422   5.238   1.544   0.814 -0.6651 -0.2706 -1.1979
19669TIP3    H280423   5.119   1.491   0.891 -0.4137  0.5383 -0.2353
19670TIP3   OH280424   6.750   1.005   1.154 -0.6209 -0.1031  0.1254
19670TIP3    H180425   6.767   1.098   1.170 -0.4160  0.2551 -1.8880
19670TIP3    H280426   6.824   0.961   1.196 -0.8697  0.6138  1.3541
19671TIP3   OH280427   0.805   3.050  15.169 -0.3168 -0.1713  0.4077
19671TIP3    H180428   0.729   3.072  15.224  0.0125  2.2300 -0.0172
19671TIP3    H280429   0.769   2.996  15.099 -1.0345 -1.8571  1.9908
19672TIP3   OH280430   5.394   3.340   6.662 -0.0293  0.0121 -0.5649
19672TIP3    H180431   5.371   3.256   6.702 -0.1670  0.8856  1.2721
19672TIP3    H280432   5.312   3.373   6.626  0.0351 -0.6339 -1.3415
19673TIP3   OH280433   2.469   3.292  13.271  0.3003  0.0541  0.4171
19673TIP3    H180434   2.541   3.341  13.310 -0.9279  0.7644  1.8788
19673TIP3    H280435   2.422   3.356  13.218 -0.0745 -0.0594  0.6119
19674TIP3   OH280436   1.913   4.610  17.164 -0.1600 -0.3006  0.8553
19674TIP3    H180437   1.982   4.663  17.202 -0.1900  0.0538  0.4266
19674TIP3    H280438   1.934   4.607  17.070 -0.8544  0.0144  0.6832
19675TIP3   OH280439   1.146   2.247   3.637  0.5977 -0.3343  0.4834
19675TIP3    H180440   1.090   2.174   3.665  1.0028 -0.9930 -0.3671
19675TIP3    H280441   1.230   2.205   3.616  0.7591  0.3411 -0.2642
19676TIP3   OH280442   0.761   0.324   1.080  0.5638 -0.0639  0.1055
19676TIP3    H180443   0.701   0.269   1.131 -0.3350  1.9181  1.3154
19676TIP3    H280444   0.839   0.271   1.068 -0.1902 -1.5164  1.3684
19677TIP3   OH280445   6.214   1.951   1.916 -0.0610 -0.4682  0.2147
19677TIP3    H180446   6.142   2.014   1.910  0.0608 -0.3684 -0.2886
19677TIP3    H280447   6.292   2.005   1.927 -0.0770 -0.5822  0.9020
19678TIP3   OH280448   4.443   2.710  12.762  0.5985 -0.0084 -0.2750
19678TIP3    H180449   4.442   2.729  12.668  0.6416  0.5035 -0.1718
19678TIP3    H280450   4.536   2.704  12.784  0.6152  1.1781 -0.0020
19679TIP3   OH280451   3.092   1.832   5.192  0.1067 -0.1260 -0.7053
19679TIP3    H180452   3.148   1.797   5.123  1.5489  0.1385  0.2849
19679TIP3    H280453   3.020   1.770   5.197  1.0995 -1.3546 -0.9998
19680TIP3   OH280454   4.276   4.328   3.947 -0.2832  0.6292  0.4881
19680TIP3    H180455   4.281   4.383   3.868 -0.0152  0.7648  0.5975
19680TIP3    H280456   4.206   4.368   3.999  0.9810  1.8755  1.3151
19681TIP3   OH280457   4.632   4.924  12.538 -0.3098 -0.5879  0.1950
19681TIP3    H180458   4.580   4.872  12.477 -1.0285 -0.5835  0.7947
19681TIP3    H280459   4.579   4.928  12.618  0.2065  0.1729  0.5127
19682TIP3   OH280460   5.376   3.404   1.940 -0.2044 -0.8788  0.8405
19682TIP3    H180461   5.364   3.463   1.865  1.2269 -2.3263 -0.6109
19682TIP3    H280462   5.444   3.342   1.911 -2.2405 -3.8110  1.9126
19683TIP3   OH280463   5.254   1.892  13.304 -0.5606  0.6965 -0.2869
19683TIP3    H180464   5.292   1.956  13.363 -0.8132 -0.1800  0.8671
19683TIP3    H280465   5.182   1.938  13.261  1.8809  2.5229 -2.8233
19684TIP3   OH280466   5.533   1.200   6.520  0.7974  1.2339  0.1894
19684TIP3    H180467   5.518   1.188   6.426  1.4130 -1.4770  0.3590
19684TIP3    H280468   5.447   1.186   6.559  1.1811 -1.6594  0.2327
19685TIP3   OH280469   2.093   1.899  14.079  0.2941  0.0297  0.3332
19685TIP3    H180470   2.122   1.943  14.000 -0.7261  0.0200 -0.0607
19685TIP3    H280471   2.167   1.843  14.104  0.2365 -0.8182 -1.2450
19686TIP3   OH280472   4.201   4.602   4.320  0.5882 -0.0613  0.3873
19686TIP3    H180473   4.272   4.561   4.369  0.8265  0.4500  0.4780
19686TIP3    H280474   4.209   4.696   4.340  0.6488  0.1506 -0.5583
19687TIP3   OH280475   2.779   4.137   0.849  0.6958  0.0246 -0.4124
19687TIP3    H180476   2.860   4.089   0.831 -0.1908 -1.6759 -0.0777
19687TIP3    H280477   2.732   4.082   0.912  0.5785  2.4144  1.7318
19688TIP3   OH280478   3.873   0.172  12.030  0.8818 -0.0477 -0.0363
19688TIP3    H180479   3.944   0.217  11.983 -0.5837  0.2618 -2.0847
19688TIP3    H280480   3.879   0.204  12.120  1.3088  2.5082 -0.9078
19689TIP3   OH280481   3.333   5.446  13.761 -0.6207  0.4074 -0.3028
19689TIP3    H180482   3.424   5.468  13.783 -0.7492 -0.0264  0.7028
19689TIP3    H280483   3.283   5.470  13.839 -1.4092  0.8634 -0.9395
19690TIP3   OH280484   0.941   6.357  15.050  0.0677 -0.1504  0.4818
19690TIP3    H180485   0.878   6.296  15.012 -0.0498  1.0261 -1.3846
19690TIP3    H280486   1.019   6.346  14.997  0.0380  1.2791  0.0935
19691TIP3   OH280487   4.375   6.668   0.919 -0.3024  0.2775  0.4877
19691TIP3    H180488   4.466   6.693   0.904  0.3681 -1.8751  0.7156
19691TIP3    H280489   4.352   6.712   1.001  0.6992  0.4003  0.7163
19692TIP3   OH280490   6.420   0.660  12.802  0.4383  0.2632 -0.3014
19692TIP3    H180491   6.511   0.632  12.794  0.7921  0.8585  1.2368
19692TIP3    H280492   6.395   0.634  12.890 -0.7040  0.6093 -0.5100
19693TIP3   OH280493   2.394   4.031   6.023  0.0856  0.2045 -0.9192
19693TIP3    H180494   2.423   3.950   6.065 -1.3989  0.8110  1.4741
19693TIP3    H280495   2.376   4.007   5.933 -0.8147 -2.2908 -0.1387
19694TIP3   OH280496   5.946   0.017   3.579 -0.4651 -0.3601  0.5627
19694TIP3    H180497   6.014   0.076   3.612  1.2473 -0.8788 -1.8205
19694TIP3    H280498   5.993  -0.060   3.549 -1.9706 -0.4508 -1.8614
19695TIP3   OH280499   5.826   2.959  15.614  0.0890  0.5420 -0.1607
19695TIP3    H180500   5.848   2.917  15.697  0.2185  1.4634  0.2843
19695TIP3    H280501   5.731   2.961  15.612  0.0730 -0.2854 -0.4548
19696TIP3   OH280502   3.609   3.751   4.439 -0.1890 -0.5625 -0.8346
19696TIP3    H180503   3.522   3.790   4.433  0.3569  0.5447 -1.7844
19696TIP3    H280504   3.670   3.821   4.417  1.1096 -0.7809  1.6667
19697TIP3   OH280505   5.167   6.119   0.307  0.1067 -0.8658  0.1700
19697TIP3    H180506   5.099   6.158   0.362 -1.1751 -2.2153 -0.4203
19697TIP3    H280507   5.189   6.189   0.244 -0.8151 -0.4551  0.2878
19698TIP3   OH280508   3.456   1.092  15.536 -0.3221 -0.3272 -0.0347
19698TIP3    H180509   3.489   1.016  15.489 -1.9563 -1.8516  1.1482
19698TIP3    H280510   3.361   1.086  15.527 -0.5166  1.0724  0.8470
19699TIP3   OH280511   4.751   1.384  15.880  0.4165  0.2885  0.5679
19699TIP3    H180512   4.724   1.398  15.789 -0.5326 -0.0948  0.7814
19699TIP3    H280513   4.751   1.289  15.891  2.0222  0.2504  0.5504
19700TIP3   OH280514   1.734   3.594  15.250 -0.0344 -0.0132  0.4215
19700TIP3    H180515   1.716   3.668  15.309  0.5763 -0.0777  0.7061
19700TIP3    H280516   1.816   3.618  15.206  0.2369 -0.5695  0.6088
19701TIP3   OH280517   5.501   5.522  12.469 -1.0022 -0.7937  0.0182
19701TIP3    H180518   5.493   5.438  12.514 -0.4404 -0.7687  0.1732
19701TIP3    H280519   5.594   5.545  12.478 -1.3415  0.3152  0.8102
19702TIP3   OH280520   5.115   5.800   0.017  0.0666  0.3404  0.1817
19702TIP3    H180521   5.039   5.800   0.075 -1.4906  1.2744 -1.7301
19702TIP3    H280522   5.120   5.889  -0.018  1.5633  0.0845 -0.3520
19703TIP3   OH280523   4.952   4.126   3.786  0.2656  0.4108  0.0087
19703TIP3    H180524   4.916   4.144   3.873 -1.5479  1.8497 -0.9617
19703TIP3    H280525   4.954   4.031   3.780 -1.3222  0.2755  0.9726
19704TIP3   OH280526   6.670   3.249  15.692 -0.6596 -0.3891  0.2053
19704TIP3    H180527   6.686   3.306  15.767  1.2030 -0.4892 -0.0779
19704TIP3    H280528   6.683   3.305  15.615  2.2040 -1.3425 -0.1005
19705TIP3   OH280529   2.728   5.100  11.067 -0.2676  0.5576  0.1321
19705TIP3    H180530   2.700   5.191  11.061  0.6866  0.8766  0.4329
19705TIP3    H280531   2.821   5.102  11.046 -0.3770 -0.4397 -0.5083
19706TIP3   OH280532   5.773   4.484   5.423 -0.0239  0.1178 -0.2316
19706TIP3    H180533   5.729   4.568   5.415 -2.7364 -1.2791 -1.4108
19706TIP3    H280534   5.846   4.500   5.483 -1.0633  3.0265  0.3925
19707TIP3   OH280535   1.187   1.662   3.079  0.2483  0.0531  0.2034
19707TIP3    H180536   1.110   1.714   3.102  0.4490 -0.1844  1.4910
19707TIP3    H280537   1.237   1.655   3.160  1.5192  0.0031 -0.5469
19708TIP3   OH280538   3.843   4.663   6.487  0.2663 -0.2279 -0.1682
19708TIP3    H180539   3.786   4.714   6.545  1.5857 -0.4420  1.3697
19708TIP3    H280540   3.789   4.647   6.409 -1.3350  0.6276  0.7125
19709TIP3   OH280541   6.508   3.199   5.940  0.0104 -0.5668 -0.5317
19709TIP3    H180542   6.536   3.257   6.011 -1.8484 -0.4188  0.1232
19709TIP3    H280543   6.430   3.240   5.904 -0.7254 -2.0914 -0.7787
19710TIP3   OH280544   1.443   6.053  17.077  0.3847 -0.4473 -0.1986
19710TIP3    H180545   1.353   6.023  17.091  0.8727 -1.2789  1.4323
19710TIP3    H280546   1.444   6.141  17.115 -0.0463  0.1087 -1.4196
19711TIP3   OH280547   1.629   2.938   5.421 -0.0201 -0.4297 -0.0912
19711TIP3    H180548   1.677   2.969   5.498  2.8642 -0.6590 -1.6893
19711TIP3    H280549   1.639   2.843   5.424 -1.4274 -0.5961  0.1456
19712TIP3   OH280550   6.470   2.216   4.653  0.0061 -0.0770  0.0776
19712TIP3    H180551   6.534   2.263   4.600 -0.1013 -1.1949 -1.1051
19712TIP3    H280552   6.496   2.233   4.744  0.9025  0.9180 -0.3463
19713TIP3   OH280553   2.150   1.178   0.857 -0.6298 -0.5838  0.0226
19713TIP3    H180554   2.069   1.209   0.816  0.0017 -0.6390 -1.2965
19713TIP3    H280555   2.121   1.110   0.918 -1.6976  0.3018  0.5515
19714TIP3   OH280556   5.663   0.973   5.462  0.0340 -0.8310  0.0373
19714TIP3    H180557   5.752   0.989   5.429 -0.5705  0.9260 -0.8682
19714TIP3    H280558   5.610   0.958   5.384 -0.8016  0.0457  0.4105
19715TIP3   OH280559   3.231   0.563   3.267 -0.6971  0.2469 -0.1035
19715TIP3    H180560   3.163   0.619   3.303  0.1244  1.1600  0.0577
19715TIP3    H280561   3.303   0.622   3.247 -0.3500 -0.5433 -1.2996
19716TIP3   OH280562   4.523   1.885  11.898 -0.1492  0.8431 -0.1757
19716TIP3    H180563   4.513   1.790  11.901  1.8600  0.6105  1.7878
19716TIP3    H280564   4.558   1.902  11.811  0.2955 -0.3070 -0.2437
19717TIP3   OH280565   0.767   5.237  13.034  0.0746  0.1482 -0.1833
19717TIP3    H180566   0.751   5.187  13.115  0.0219 -1.8002 -1.3252
19717TIP3    H280567   0.685   5.283  13.018  0.0240  0.4008  0.7752
19718TIP3   OH280568   6.193   0.782  14.411  0.1047 -0.9079  0.3648
19718TIP3    H180569   6.126   0.821  14.467  0.6383  0.3087  0.1751
19718TIP3    H280570   6.177   0.688  14.418  0.6145 -0.8890  3.1748
19719TIP3   OH280571   5.059   6.651   0.102  0.3376 -0.5021  0.3349
19719TIP3    H180572   5.046   6.709   0.177  3.2080  0.4956  0.2149
19719TIP3    H280573   5.073   6.564   0.140 -2.8049 -1.0129  0.5807
19720TIP3   OH280574   5.991   2.196   6.211 -0.6111  0.3868 -0.1179
19720TIP3    H180575   6.067   2.228   6.259  0.4753 -1.1870 -0.6915
19720TIP3    H280576   5.931   2.165   6.279 -0.2186  0.5620  0.3133
19721TIP3   OH280577   2.446   5.946   2.496  0.3069  0.1709 -0.4061
19721TIP3    H180578   2.523   5.890   2.490  0.3334  0.0685  0.7153
19721TIP3    H280579   2.375   5.887   2.522 -0.5013 -0.0095 -2.7129
19722TIP3   OH280580   1.552   1.404   0.211 -0.5367 -0.1449 -0.2148
19722TIP3    H180581   1.541   1.439   0.299 -0.8739 -0.0554 -0.2879
19722TIP3    H280582   1.638   1.364   0.211 -1.5253 -2.4414  0.9230
19723TIP3   OH280583   2.530   3.530   4.917  0.5596  0.2534 -0.0129
19723TIP3    H180584   2.521   3.510   5.010 -0.4721 -1.3878 -0.4347
19723TIP3    H280585   2.623   3.521   4.899  0.8939  1.4034  1.0165
19724TIP3   OH280586   1.180   3.254   1.612  0.3725 -0.1334  0.2524
19724TIP3    H180587   1.264   3.292   1.585  0.5638  2.3459  3.6133
19724TIP3    H280588   1.204   3.175   1.661  0.4110 -1.3523 -1.6429
19725TIP3   OH280589   0.080   5.155   1.849 -0.4352  0.1348 -0.6102
19725TIP3    H180590  -0.015   5.166   1.856 -0.3837  0.8207 -0.8741
19725TIP3    H280591   0.093   5.120   1.761 -0.4240  0.3939 -0.7142
19726TIP3   OH280592   1.951   0.320  13.544 -0.0182  0.0724  0.3462
19726TIP3    H180593   1.964   0.255  13.613 -0.0643 -1.8890 -1.3961
19726TIP3    H280594   2.024   0.305  13.483  0.3144  2.1020  0.1769
19727TIP3   OH280595   0.439   3.300  16.101 -0.2363 -0.2865  0.0028
19727TIP3    H180596   0.454   3.226  16.161 -0.8745  0.4453  1.1013
19727TIP3    H280597   0.521   3.308  16.052  1.2825  0.6238  2.4922
19728TIP3   OH280598   1.234   1.689   5.660 -0.6281  0.4373  0.2950
19728TIP3    H180599   1.166   1.733   5.711  0.5496  0.0750  2.2929
19728TIP3    H280600   1.306   1.676   5.722  1.2970  0.8212 -1.7304
19729TIP3   OH280601   0.146   2.714  13.394  0.1855 -0.5610 -0.1866
19729TIP3    H180602   0.217   2.777  13.395  0.8314 -1.2524  1.7290
19729TIP3    H280603   0.105   2.725  13.308  2.0562  0.4392 -0.9972
19730TIP3   OH280604   6.722   0.574   3.803  0.6010 -0.1509 -0.7499
19730TIP3    H180605   6.783   0.501   3.796 -0.2323 -1.0753  1.0180
19730TIP3    H280606   6.637   0.538   3.779  0.1668  0.1926  0.2012
19731TIP3   OH280607   3.535   5.410   1.164  0.4199 -0.1454 -0.6297
19731TIP3    H180608   3.507   5.346   1.099 -0.7561  0.5765 -0.8504
19731TIP3    H280609   3.622   5.379   1.192  0.6055 -0.8863 -1.9567
19732TIP3   OH280610   1.709   3.075  11.319  0.1548  0.4462  0.5632
19732TIP3    H180611   1.772   3.008  11.292 -1.9409 -1.7528  0.6971
19732TIP3    H280612   1.670   3.040  11.399 -1.7900  1.2838  0.0512
19733TIP3   OH280613   3.389   4.154   2.929 -0.5384 -0.0536 -0.6646
19733TIP3    H180614   3.371   4.248   2.926 -1.1860 -0.0633  1.4031
19733TIP3    H280615   3.334   4.122   3.001  0.6245 -1.7917 -0.5156
19734TIP3   OH280616   0.468   0.523  14.137 -0.2477 -0.0587  0.1224
19734TIP3    H180617   0.507   0.554  14.218 -0.2287  1.1264 -0.3292
19734TIP3    H280618   0.470   0.427  14.145  2.4186 -0.0778  0.3060
19735TIP3   OH280619   2.093   3.899   6.172  0.2422 -0.3712  0.2820
19735TIP3    H180620   2.011   3.855   6.194 -0.8845  1.6343  0.3534
19735TIP3    H280621   2.086   3.919   6.079  2.3457 -3.4228 -0.6926
19736TIP3   OH280622   1.844   4.762  11.573 -0.1013  0.0213 -0.1573
19736TIP3    H180623   1.910   4.719  11.627  0.0674 -0.3494 -0.6555
19736TIP3    H280624   1.776   4.696  11.561 -0.7250  0.4922  0.6034
19737TIP3   OH280625   1.837   4.382   0.942  0.1897  0.1163 -0.3367
19737TIP3    H180626   1.779   4.333   0.883  0.6129 -1.0120  0.1424
19737TIP3    H280627   1.779   4.440   0.991 -0.5939 -1.1303  0.2751
19738TIP3   OH280628   1.110   6.537  12.052 -0.5031  0.1678 -0.5702
19738TIP3    H180629   1.198   6.502  12.066 -0.7263 -0.2767 -0.2328
19738TIP3    H280630   1.057   6.495  12.121 -0.7356  1.3413 -0.0190
19739TIP3   OH280631   1.160   3.751   3.233 -0.2322  0.0938  0.1674
19739TIP3    H180632   1.214   3.673   3.229 -0.3547 -0.1600  2.3042
19739TIP3    H280633   1.200   3.811   3.170  1.4287 -0.7523  0.3626
19740TIP3   OH280634   3.963   0.270   1.355  0.4304  0.6475  0.3765
19740TIP3    H180635   3.990   0.198   1.412 -0.0867 -0.6871 -0.9824
19740TIP3    H280636   4.043   0.319   1.337  1.6404 -1.8578 -1.7164
19741TIP3   OH280637   2.274   1.488   1.897 -0.1217 -0.8029  0.0588
19741TIP3    H180638   2.246   1.497   1.806  0.7481  0.3843 -0.1182
19741TIP3    H280639   2.298   1.577   1.923 -1.4902 -0.9155  1.8409
19742TIP3   OH280640   1.073   4.231   2.681 -0.1960 -0.0810 -0.3596
19742TIP3    H180641   1.069   4.138   2.657  0.4330 -0.2972  0.3297
19742TIP3    H280642   1.104   4.231   2.772 -0.4990  0.7939 -0.2441
19743TIP3   OH280643   2.561   1.598  11.952  0.2297 -0.1507  0.1024
19743TIP3    H180644   2.650   1.601  11.989  0.8283 -0.4539 -1.2530
19743TIP3    H280645   2.538   1.506  11.953  1.3159 -0.5352 -2.6050
19744TIP3   OH280646   0.158   6.569   6.028 -0.3819 -0.1260  0.2352
19744TIP3    H180647   0.158   6.483   5.986  1.9802 -0.7948  1.4648
19744TIP3    H280648   0.172   6.631   5.957  3.4054 -1.2188 -0.1588
19745TIP3   OH280649   0.356   1.360   4.266 -0.2290  0.1934  0.5728
19745TIP3    H180650   0.330   1.441   4.222  0.6710  1.6488  2.5943
19745TIP3    H280651   0.440   1.336   4.225  0.1716  1.0362  0.8976
19746TIP3   OH280652   1.114   2.926   0.983  0.5131  0.0432  0.0192
19746TIP3    H180653   1.115   2.843   1.031 -1.6112 -0.8633 -1.3794
19746TIP3    H280654   1.175   2.912   0.910  0.1705 -0.2865 -0.2053
19747TIP3   OH280655   5.261   1.851  10.800 -0.1460 -0.1911  0.2751
19747TIP3    H180656   5.222   1.925  10.846 -2.4886 -1.2501  0.1233
19747TIP3    H280657   5.194   1.783  10.803  1.1884 -1.6523 -1.2663
19748TIP3   OH280658   2.698   1.675  15.276  0.2138 -0.2300  0.7863
19748TIP3    H180659   2.715   1.736  15.204  0.8891 -1.7031 -0.3688
19748TIP3    H280660   2.785   1.658  15.313  0.5414 -2.6554 -0.8147
19749TIP3   OH280661   3.857   2.215   3.170  0.0544  0.2059 -0.4511
19749TIP3    H180662   3.870   2.306   3.144 -0.3921  0.8788  1.4951
19749TIP3    H280663   3.940   2.188   3.207  0.3350 -0.3713 -1.4471
19750TIP3   OH280664   4.561   0.973  16.819 -0.2080  0.1437  1.0036
19750TIP3    H180665   4.597   1.050  16.775  1.5779 -1.0596  0.2264
19750TIP3    H280666   4.630   0.946  16.880 -0.4651 -1.2536  0.7128
19751TIP3   OH280667   6.309   0.165   4.930  0.6023  0.4336  0.5426
19751TIP3    H180668   6.382   0.107   4.951  0.4494 -0.7385 -1.9086
19751TIP3    H280669   6.344   0.225   4.865 -0.8873 -1.0879 -1.8194
19752TIP3   OH280670   4.955   1.473   2.365  0.0772 -0.3464  0.2935
19752TIP3    H180671   4.960   1.568   2.353  0.9947 -0.4377 -0.0837
19752TIP3    H280672   4.886   1.445   2.304  1.9420 -0.2936 -2.0030
19753TIP3   OH280673   2.505   3.870   6.494  0.0352  0.2614  0.0888
19753TIP3    H180674   2.477   3.779   6.494 -1.3582  0.6242  2.2973
19753TIP3    H280675   2.434   3.917   6.450  0.3511  0.4105 -0.2738
19754TIP3   OH280676   5.614   1.506  17.107  0.2996 -0.2478  0.3070
19754TIP3    H180677   5.582   1.554  17.029  1.0798 -0.5559 -0.2104
19754TIP3    H280678   5.650   1.425  17.072  1.1491 -0.1534  0.9442
19755TIP3   OH280679   5.575   0.654  13.362 -0.1887  0.4969 -0.0617
19755TIP3    H180680   5.640   0.674  13.430  0.0779  0.9417 -0.4406
19755TIP3    H280681   5.578   0.730  13.303 -1.2058  0.6113  0.0290
19756TIP3   OH280682   3.896   4.302   2.616  0.4307  0.6460 -0.3432
19756TIP3    H180683   3.937   4.264   2.538 -1.0805  0.9621 -1.3208
19756TIP3    H280684   3.902   4.232   2.682 -2.2525 -1.4139 -2.0707
19757TIP3   OH280685   0.887   5.989  15.590 -0.1667  0.4140 -0.1010
19757TIP3    H180686   0.831   6.066  15.587 -0.4132  0.2205 -0.7070
19757TIP3    H280687   0.885   5.961  15.681  0.5470  1.5697  0.2812
19758TIP3   OH280688   5.674   4.275   1.329 -0.1549 -0.0732  0.1475
19758TIP3    H180689   5.637   4.239   1.249  2.0036 -2.5044  0.1063
19758TIP3    H280690   5.664   4.370   1.320 -1.4212 -0.3608 -2.2222
19759TIP3   OH280691   5.807   1.769  15.344  0.7007 -0.0091 -0.1108
19759TIP3    H180692   5.779   1.730  15.427  0.5850  0.5732  0.1376
19759TIP3    H280693   5.899   1.742  15.335  0.7064 -0.1026  0.1949
19760TIP3   OH280694   3.373   4.058  13.260 -0.4239  0.8118  0.2931
19760TIP3    H180695   3.278   4.057  13.254 -0.3476  0.9462 -1.2747
19760TIP3    H280696   3.396   4.151  13.273 -0.4855  0.8581  0.0753
19761TIP3   OH280697   3.842   3.171   5.623  0.1276  0.6439  0.4610
19761TIP3    H180698   3.885   3.095   5.663 -2.1528 -0.7732  0.4232
19761TIP3    H280699   3.880   3.177   5.535 -1.5142 -2.2769 -0.5929
19762TIP3   OH280700   1.736   1.879   0.484  0.3305 -0.0807 -0.2407
19762TIP3    H180701   1.644   1.872   0.506 -0.2000 -0.5314 -2.3920
19762TIP3    H280702   1.760   1.793   0.449  1.5399  0.0537  0.2056
19763TIP3   OH280703   6.233   1.093   5.116 -0.1437 -0.3798 -0.4164
19763TIP3    H180704   6.261   1.166   5.060 -0.4450  0.9227  1.0675
19763TIP3    H280705   6.138   1.098   5.116 -0.1244  0.4278  1.1813
19764TIP3   OH280706   0.255   1.579  15.522 -0.4040 -0.5579 -0.8456
19764TIP3    H180707   0.317   1.538  15.582  1.6451 -0.4375 -2.7192
19764TIP3    H280708   0.177   1.525  15.526  0.1873 -1.3501  0.8255
19765TIP3   OH280709   6.623   0.209  16.153  0.0188  0.2952 -0.9508
19765TIP3    H180710   6.650   0.121  16.127  1.2842  0.6549 -0.8860
19765TIP3    H280711   6.672   0.268  16.096 -1.5701  0.9703 -1.6932
19766TIP3   OH280712   6.441   3.925   1.634  0.2668 -0.6188  0.0888
19766TIP3    H180713   6.402   3.839   1.647 -1.6742 -0.0724 -1.6022
19766TIP3    H280714   6.400   3.980   1.701  1.3296 -0.9176  1.0147
19767TIP3   OH280715   0.120   3.156   1.035  0.5463  0.5269 -0.4870
19767TIP3    H180716   0.173   3.077   1.022  0.6393  0.3531  0.7562
19767TIP3    H280717   0.096   3.152   1.128 -0.6512  1.2221 -0.7589
19768TIP3   OH280718   2.455   1.597   3.771  0.1794 -0.5903  0.1842
19768TIP3    H180719   2.371   1.559   3.745  0.5536 -1.0121 -0.4429
19768TIP3    H280720   2.520   1.543   3.727  0.7204  2.1067 -2.7360
19769TIP3   OH280721   2.670   0.219  13.503 -0.4897  0.0629  0.1181
19769TIP3    H180722   2.672   0.251  13.413 -0.7619 -0.1348  0.0415
19769TIP3    H280723   2.580   0.232  13.532 -0.2715  0.6627  0.5579
19770TIP3   OH280724   2.939   0.554   4.986  0.5789 -0.2440  0.0372
19770TIP3    H180725   2.992   0.570   5.065  1.1360 -1.3897 -0.0874
19770TIP3    H280726   2.850   0.540   5.020  0.4495  1.0827  0.2977
19771TIP3   OH280727   3.028   0.662  15.055  0.2657  0.1787 -0.4327
19771TIP3    H180728   3.077   0.694  15.130 -2.5158 -0.7521  1.9667
19771TIP3    H280729   3.003   0.741  15.007  1.6184  0.8284 -0.1266
19772TIP3   OH280730   5.943   2.170  14.225 -0.1959 -0.3873  0.2135
19772TIP3    H180731   5.939   2.224  14.147 -1.1009  2.3745  2.0231
19772TIP3    H280732   6.028   2.189  14.264 -0.6544  0.0205  1.0373
19773TIP3   OH280733   0.883   5.489   1.186  0.8813  0.3841 -0.0056
19773TIP3    H180734   0.890   5.571   1.137  0.4547  0.8238  0.6428
19773TIP3    H280735   0.889   5.516   1.278 -1.1109 -0.0617  0.3123
19774TIP3   OH280736   1.235   4.593   5.957  0.1497  0.5102  0.4588
19774TIP3    H180737   1.327   4.619   5.953  0.1765  0.3328 -3.1867
19774TIP3    H280738   1.212   4.569   5.867 -4.1589  3.0810  0.5695
19775TIP3   OH280739   6.114   3.198   1.572  0.2936  0.6418  0.3194
19775TIP3    H180740   6.129   3.280   1.525  1.3167  0.3568  0.1159
19775TIP3    H280741   6.069   3.142   1.509 -0.2624  0.9785  0.4058
19776TIP3   OH280742   1.354   3.090   1.817  0.6200 -0.6009 -0.3108
19776TIP3    H180743   1.389   3.105   1.905  0.1639  1.1156 -0.3990
19776TIP3    H280744   1.429   3.104   1.759  0.3526  0.8213 -0.3452
19777TIP3   OH280745   3.680   1.959   4.104  0.0722 -0.3596 -0.1984
19777TIP3    H180746   3.711   2.038   4.060  0.4811 -0.2553  0.2666
19777TIP3    H280747   3.666   1.986   4.195 -1.9508 -0.2513 -0.4928
19778TIP3   OH280748   0.883   5.234  17.362 -0.3577  0.3157 -0.5328
19778TIP3    H180749   0.829   5.305  17.397 -0.9540  0.3842 -1.5736
19778TIP3    H280750   0.832   5.155  17.379  1.4843 -0.3176  3.1653
19779TIP3   OH280751   4.915   2.165  15.062  0.0465 -0.3626  0.7565
19779TIP3    H180752   4.954   2.196  14.981 -0.5425 -1.0945  0.1838
19779TIP3    H280753   4.919   2.241  15.121  0.2920  0.2376 -0.0166
19780TIP3   OH280754   5.262   5.088   1.516 -0.5216 -0.3695 -0.2292
19780TIP3    H180755   5.268   5.129   1.430  0.6979 -0.1494 -0.0602
19780TIP3    H280756   5.317   5.009   1.508  0.2938  0.0959  0.5780
19781TIP3   OH280757   5.760   3.550  10.993 -0.4837 -0.0608 -0.5690
19781TIP3    H180758   5.783   3.619  11.055  1.2096 -0.1200 -1.0833
19781TIP3    H280759   5.816   3.566  10.917 -0.4673 -1.6468 -0.9371
19782TIP3   OH280760   1.959   4.970   1.297  0.0475  0.2674 -0.0488
19782TIP3    H180761   1.951   4.888   1.346  1.9377  0.3643  0.4872
19782TIP3    H280762   2.022   5.022   1.347 -0.8482  1.9315 -0.5636
19783TIP3   OH280763   4.030   5.517  16.882 -0.5590 -0.1770  0.1150
19783TIP3    H180764   3.996   5.499  16.969  0.4568 -1.6633  0.2398
19783TIP3    H280765   3.989   5.452  16.825 -0.2966  0.0081 -0.2936
19784TIP3   OH280766   3.011   0.039   4.635 -0.4322  0.3122 -0.6904
19784TIP3    H180767   3.058   0.008   4.712 -2.0093 -4.0606 -1.2254
19784TIP3    H280768   3.077   0.042   4.566  0.2215  0.2863 -0.0730
19785TIP3   OH280769   5.438   6.685   2.947  0.2302  0.4724  0.0339
19785TIP3    H180770   5.529   6.706   2.970  0.7315 -0.0700 -1.3717
19785TIP3    H280771   5.398   6.770   2.930  0.1056  0.8163  1.8613
19786TIP3   OH280772   2.804   3.155  14.218  0.0450 -0.5801  0.1230
19786TIP3    H180773   2.801   3.221  14.148 -2.0661 -0.6319  0.0936
19786TIP3    H280774   2.806   3.071  14.172  1.1712 -0.5783  0.1530
19787TIP3   OH280775   5.632   4.651  10.818 -0.5074  0.1190  0.1448
19787TIP3    H180776   5.553   4.696  10.849 -0.6618 -0.5779  0.7799
19787TIP3    H280777   5.680   4.718  10.770 -1.9532  0.3267 -1.1176
19788TIP3   OH280778   0.738   0.827   2.523 -0.4233  0.3443  0.1379
19788TIP3    H180779   0.722   0.912   2.564 -0.1407 -0.2081  1.4430
19788TIP3    H280780   0.833   0.818   2.523 -0.4151  0.3784 -0.7513
19789TIP3   OH280781   3.947   0.716  10.950  0.1917 -0.0618 -0.2474
19789TIP3    H180782   3.988   0.796  10.917  0.1216 -0.0654 -0.3413
19789TIP3    H280783   3.854   0.737  10.957  0.2441  0.0353  0.2247
19790TIP3   OH280784   3.796   4.371   1.561  0.2774  0.0404  0.4403
19790TIP3    H180785   3.868   4.367   1.498  1.2175  0.2602  1.4629
19790TIP3    H280786   3.782   4.465   1.574  0.6792  0.0084  1.1799
19791TIP3   OH280787   2.161   4.719   0.400  0.8574 -0.4279  0.1770
19791TIP3    H180788   2.170   4.638   0.451 -2.3879 -0.0590  1.6166
19791TIP3    H280789   2.180   4.789   0.463  1.8107 -0.0241 -0.5446
19792TIP3   OH280790   1.992   0.304   0.191  0.0803 -0.4904 -0.5733
19792TIP3    H180791   2.060   0.331   0.253 -0.9990  0.9966  0.0272
19792TIP3    H280792   1.947   0.385   0.168 -0.0665 -1.1380 -2.7146
19793TIP3   OH280793   2.462   6.420   0.673  0.4897 -0.3150  0.5182
19793TIP3    H180794   2.431   6.485   0.737  1.0001 -0.3324  0.7843
19793TIP3    H280795   2.500   6.350   0.726 -0.0057 -0.8144  0.2311
19794TIP3   OH280796   2.628   3.769  13.441 -0.3348  0.1344  0.4178
19794TIP3    H180797   2.537   3.769  13.469 -0.7931  0.5778 -0.9729
19794TIP3    H280798   2.657   3.860  13.452 -0.7611  0.5037 -1.1525
19795TIP3   OH280799   0.435   1.075  11.208 -0.0143 -0.3985  0.5085
19795TIP3    H180800   0.443   1.095  11.115  1.1994 -0.4112  0.5998
19795TIP3    H280801   0.521   1.095  11.245 -0.4649 -0.4295  1.6253
19796TIP3   OH280802   2.646   5.955  13.419  0.0147 -0.0826 -0.0213
19796TIP3    H180803   2.721   5.988  13.370 -0.8589  0.7841 -0.8004
19796TIP3    H280804   2.578   6.022  13.409 -0.6714 -0.5567  1.1816
19797TIP3   OH280805   6.097   3.942   0.007  0.2802 -0.0955  0.9183
19797TIP3    H180806   6.032   3.872  -0.006  0.7006 -0.4248  0.5209
19797TIP3    H280807   6.047   4.023   0.001  0.2437 -0.2043 -2.1878
19798TIP3   OH280808   6.126   5.294   1.470  0.1296  0.0202 -0.8807
19798TIP3    H180809   6.095   5.206   1.487  0.0924  0.7259  3.9333
19798TIP3    H280810   6.046   5.348   1.470  0.3385  0.3387 -1.4373
19799TIP3   OH280811   6.556   4.772   2.073 -0.2926  0.1257 -0.3147
19799TIP3    H180812   6.546   4.867   2.076  0.8619  0.2674 -0.6127
19799TIP3    H280813   6.641   4.756   2.114 -0.2008 -0.7311 -0.8256
19800TIP3   OH280814   0.773   0.180  13.202 -0.6807  0.0862  0.1195
19800TIP3    H180815   0.752   0.107  13.261 -3.3022  0.4441 -0.2571
19800TIP3    H280816   0.852   0.219  13.240  1.1078 -3.1392  0.0920
19801TIP3   OH280817   4.177   4.390  12.330 -0.6948  0.1178  0.0598
19801TIP3    H180818   4.251   4.370  12.387 -0.2059  0.5162 -0.4210
19801TIP3    H280819   4.196   4.344  12.248 -0.9514  0.2614 -0.0840
19802TIP3   OH280820   5.254   2.026   2.737 -0.4220  0.2595  0.2520
19802TIP3    H180821   5.230   2.074   2.658  0.4200  0.7293  0.2671
19802TIP3    H280822   5.191   2.056   2.803  0.8941  2.4502  0.6314
19803TIP3   OH280823   6.625   4.991  16.364 -0.0531 -0.2155  0.0381
19803TIP3    H180824   6.707   5.039  16.354 -0.0638 -0.2517 -0.2247
19803TIP3    H280825   6.571   5.020  16.291 -0.3144 -0.1157  0.2671
19804TIP3   OH280826   1.874   0.048   3.897 -0.5732 -0.1528 -0.3172
19804TIP3    H180827   1.867   0.056   3.802 -0.2136  0.8490 -0.2681
19804TIP3    H280828   1.919  -0.035   3.911 -0.2824 -0.1189 -1.0347
19805TIP3   OH280829   5.526   4.949   2.579  0.0225 -0.0294 -0.6074
19805TIP3    H180830   5.596   5.011   2.557  0.1454 -0.0559 -0.2943
19805TIP3    H280831   5.523   4.890   2.504  0.6934 -0.3465 -0.3944
19806TIP3   OH280832   6.600   1.604  11.140  0.3004 -0.4317  0.0149
19806TIP3    H180833   6.689   1.628  11.166  0.3604  0.3147 -0.8419
19806TIP3    H280834   6.610   1.570  11.051 -0.2650 -0.4756 -0.0348
19807TIP3   OH280835   5.719   1.339  15.241 -0.5466  0.6808 -0.1487
19807TIP3    H180836   5.627   1.365  15.241 -0.1205  2.3925  1.2942
19807TIP3    H280837   5.758   1.391  15.171 -0.5176  0.5512 -0.2294
19808TIP3   OH280838   0.042   2.207  10.631 -0.3122  0.4384  0.4170
19808TIP3    H180839   0.069   2.145  10.562 -0.1147  2.5902 -1.5633
19808TIP3    H280840  -0.049   2.228  10.610 -1.2320 -0.9881  2.5771
19809TIP3   OH280841   0.444   1.279  16.170  0.6870  0.2441  0.3068
19809TIP3    H180842   0.455   1.291  16.264 -0.0012 -0.0277  0.4229
19809TIP3    H280843   0.452   1.367  16.134 -1.2770  0.6763  0.8448
19810TIP3   OH280844   1.215   1.115  17.307 -0.3079 -0.3722 -0.1912
19810TIP3    H180845   1.273   1.188  17.331  0.8880 -0.4778 -2.4682
19810TIP3    H280846   1.141   1.123  17.367  0.6475  1.6129  0.8325
19811TIP3   OH280847   3.778   5.200   1.247  0.7145  0.3138  0.2138
19811TIP3    H180848   3.734   5.120   1.278  0.9641  0.0293 -0.1514
19811TIP3    H280849   3.852   5.167   1.196  0.3079  0.7677 -0.6948
19812TIP3   OH280850   0.547   3.502  11.562 -0.0928 -0.7354  0.1524
19812TIP3    H180851   0.600   3.434  11.603  0.8860 -0.6124 -0.8687
19812TIP3    H280852   0.607   3.546  11.502 -0.6715  1.1139  0.8618
19813TIP3   OH280853   4.426   3.527   0.057 -0.6189 -0.6241  0.1642
19813TIP3    H180854   4.357   3.465   0.033 -0.3193 -0.9940  0.2433
19813TIP3    H280855   4.421   3.533   0.152 -0.9677 -0.1458  0.1188
19814TIP3   OH280856   1.132   6.372   0.793 -0.4261  0.0049 -0.4938
19814TIP3    H180857   1.151   6.364   0.699  0.4725  0.9014 -0.4050
19814TIP3    H280858   1.044   6.336   0.802  0.2751 -2.1495 -1.3147
19815TIP3   OH280859   0.966   1.950   2.116 -0.0338 -0.1558 -0.0798
19815TIP3    H180860   1.055   1.964   2.083  0.8372 -0.4949  1.9480
19815TIP3    H280861   0.924   2.035   2.106  0.4819  0.0021 -1.1010
19816TIP3   OH280862   6.349   4.160   4.792 -0.6987  0.5360 -0.1169
19816TIP3    H180863   6.360   4.197   4.705 -0.8729  1.5614  0.2880
19816TIP3    H280864   6.431   4.113   4.809 -0.9886 -0.3816 -1.1527
19817TIP3   OH280865   4.844   2.719  15.314 -0.4985 -0.3004  0.0036
19817TIP3    H180866   4.923   2.723  15.261 -1.4246  1.0418 -1.3912
19817TIP3    H280867   4.873   2.735  15.403  0.7552  0.5818 -0.5441
19818TIP3   OH280868   1.296   0.397  14.899 -0.6165 -0.0714  0.1779
19818TIP3    H180869   1.209   0.427  14.873 -0.0026  0.6431 -1.1652
19818TIP3    H280870   1.332   0.356  14.821  1.6603  2.9838 -0.5532
19819TIP3   OH280871   6.654   3.342   2.310  0.6541  0.0872  0.0423
19819TIP3    H180872   6.626   3.372   2.397 -1.7998 -1.9464  0.0710
19819TIP3    H280873   6.680   3.250   2.323  3.4738  0.6353 -0.8592
19820TIP3   OH280874   0.938   5.342   0.267 -0.6555 -0.2723 -0.0559
19820TIP3    H180875   0.881   5.410   0.302 -1.9487 -0.0826 -2.3602
19820TIP3    H280876   0.892   5.260   0.285 -0.4812 -0.3156  0.1988
19821TIP3   OH280877   6.070   4.175   0.366 -0.4468 -0.3107  0.2805
19821TIP3    H180878   6.012   4.251   0.354  0.1873  0.0172 -0.8993
19821TIP3    H280879   6.040   4.112   0.301  0.6691 -0.0255 -0.5433
19822TIP3   OH280880   4.059   2.612  12.982 -0.2424  0.3585  0.1068
19822TIP3    H180881   4.122   2.602  12.911 -0.6001  1.8995 -0.4743
19822TIP3    H280882   4.088   2.550  13.049 -0.2713 -1.5993 -1.6072
19823TIP3   OH280883   1.389   1.883   1.237 -0.0778  0.0746 -0.4608
19823TIP3    H180884   1.388   1.794   1.201  2.1964  0.1334 -0.8190
19823TIP3    H280885   1.444   1.876   1.316 -1.6585  0.7578  0.7482
19824TIP3   OH280886   2.809   2.595   0.674 -0.0239 -0.1438 -0.2901
19824TIP3    H180887   2.852   2.605   0.759  1.3743 -1.5434 -0.7713
19824TIP3    H280888   2.816   2.681   0.633  1.0446  0.0420  0.2531
19825TIP3   OH280889   3.796   0.645   0.149 -0.0448  0.2817  0.1762
19825TIP3    H180890   3.740   0.653   0.226 -1.5591 -1.3353 -0.6894
19825TIP3    H280891   3.812   0.551   0.140  1.2859  0.5615 -0.6827
19826TIP3   OH280892   2.612   4.338  11.721 -0.0151 -0.5776  0.2906
19826TIP3    H180893   2.704   4.360  11.706 -0.1262 -0.6941 -0.6135
19826TIP3    H280894   2.588   4.285  11.645 -1.4582  1.3153 -0.6537
19827TIP3   OH280895   0.887   2.598  16.589  0.0727  0.6510 -0.2530
19827TIP3    H180896   0.961   2.542  16.612 -0.2720 -0.1737 -1.0956
19827TIP3    H280897   0.852   2.561  16.508 -1.2533  1.0312  0.1067
19828TIP3   OH280898   0.707   2.183   4.883 -0.1736 -0.0968  0.2071
19828TIP3    H180899   0.662   2.185   4.798 -0.9833 -0.0902  0.6274
19828TIP3    H280900   0.637   2.193   4.948  0.3840 -0.5737  0.8962
19829TIP3   OH280901   0.718   4.225  16.625  0.1444 -0.3211  0.3513
19829TIP3    H180902   0.660   4.289  16.584 -0.1681 -1.9850 -2.0230
19829TIP3    H280903   0.689   4.220  16.716  0.1989  2.8400  0.6320
19830TIP3   OH280904   0.679   0.546   3.703 -0.3185 -0.4239  0.0644
19830TIP3    H180905   0.707   0.622   3.753  1.5693 -1.2066  0.2803
19830TIP3    H280906   0.747   0.480   3.719 -0.0723 -0.9922 -2.8185
19831TIP3   OH280907   3.686   0.808  10.965 -0.2396  0.2020  0.1038
19831TIP3    H180908   3.675   0.901  10.987  1.4439  0.9973 -2.0925
19831TIP3    H280909   3.666   0.803  10.872 -0.6149 -1.7411  0.2578
19832TIP3   OH280910   1.306   5.509  12.060 -0.0295  0.6780 -1.3721
19832TIP3    H180911   1.265   5.588  12.094 -0.9116 -0.2225 -0.2514
19832TIP3    H280912   1.390   5.503  12.105 -0.5099  0.3257 -0.5071
19833TIP3   OH280913   0.628   2.526  13.500  0.9402  0.2387 -0.0859
19833TIP3    H180914   0.653   2.608  13.458 -0.2495  0.8257  0.3260
19833TIP3    H280915   0.698   2.510  13.563  1.0880  1.0379 -0.0334
19834TIP3   OH280916   6.669   0.881   6.067 -0.2851 -0.1895 -0.3693
19834TIP3    H180917   6.738   0.831   6.110  1.0797  0.3806 -1.8324
19834TIP3    H280918   6.625   0.817   6.010 -0.9358 -0.5306  0.4946
19835TIP3   OH280919   4.527   1.642   5.756  0.2540 -0.0528 -0.1593
19835TIP3    H180920   4.596   1.576   5.757  1.3714  1.0736 -0.2739
19835TIP3    H280921   4.512   1.660   5.663  1.1420  1.0342 -0.1068
19836TIP3   OH280922   3.488   1.324   1.384 -0.2386 -0.3512  0.0191
19836TIP3    H180923   3.546   1.331   1.309  0.2394 -0.0225  0.4082
19836TIP3    H280924   3.459   1.233   1.384  2.5234 -1.3912  1.4086
19837TIP3   OH280925   0.749   0.207  14.520  0.5358  0.5497  0.0732
19837TIP3    H180926   0.726   0.151  14.446 -0.5451  1.0856 -0.0172
19837TIP3    H280927   0.831   0.249  14.493 -0.4271  1.6133 -1.3363
19838TIP3   OH280928   4.294   6.540  11.992 -0.6074  0.1377  0.9618
19838TIP3    H180929   4.367   6.595  12.021  0.3804 -0.2720 -0.5936
19838TIP3    H280930   4.293   6.467  12.054 -0.5002  0.7719  1.7233
19839TIP3   OH280931   0.948   5.249   5.414  0.9022  0.1298 -0.2580
19839TIP3    H180932   0.987   5.309   5.350  0.4845 -0.4703 -1.1018
19839TIP3    H280933   1.000   5.169   5.406 -0.2620 -0.5730 -1.1703
19840TIP3   OH280934   5.320   6.530   3.318 -0.3216  0.0384 -0.1691
19840TIP3    H180935   5.413   6.551   3.324 -0.4124  0.2617  0.5664
19840TIP3    H280936   5.300   6.535   3.224  0.0140  1.7413 -0.1793
19841TIP3   OH280937   6.569   3.289  13.102  0.1775 -0.4782 -0.3097
19841TIP3    H180938   6.558   3.328  13.189  1.5681  0.7852 -0.6667
19841TIP3    H280939   6.583   3.196  13.119 -1.7542 -0.6461  0.6567
19842TIP3   OH280940   5.809   0.235  11.959  0.1148  0.2204 -0.2334
19842TIP3    H180941   5.761   0.222  12.041 -0.6754 -2.5333 -1.0395
19842TIP3    H280942   5.873   0.164  11.957 -0.9108 -0.7326 -2.6457
19843TIP3   OH280943   0.501   3.363   2.449 -0.2816  0.6122 -0.4701
19843TIP3    H180944   0.505   3.459   2.449  0.0181  0.5998  0.0175
19843TIP3    H280945   0.410   3.343   2.471 -1.3553  0.8080 -4.0591
19844TIP3   OH280946   2.701   4.892   1.507 -0.1173 -0.2947 -0.4111
19844TIP3    H180947   2.660   4.935   1.432 -0.1161  1.1062  0.3789
19844TIP3    H280948   2.633   4.834   1.541  0.4236 -2.3440 -2.5187
19845TIP3   OH280949   5.057   4.929  12.048  0.5153  0.3741  0.1401
19845TIP3    H180950   5.143   4.968  12.031  1.4919 -1.3230  0.8745
19845TIP3    H280951   5.077   4.843  12.086 -1.4353 -1.3290 -2.2782
19846TIP3   OH280952   1.920   6.351  11.930  0.2828 -0.1649 -0.0408
19846TIP3    H180953   2.010   6.366  11.903  0.6011 -2.3340 -0.4007
19846TIP3    H280954   1.907   6.257  11.918 -1.6169 -0.1262  1.2658
19847TIP3   OH280955   3.171   5.477  15.535 -0.4146  0.2148  0.4862
19847TIP3    H180956   3.220   5.480  15.617 -0.1051  0.6963  0.2843
19847TIP3    H280957   3.088   5.520  15.555 -1.2812 -1.6274  1.1587
19848TIP3   OH280958   1.925   5.967  13.101  0.2247 -0.1164  0.3105
19848TIP3    H180959   1.877   5.922  13.032  2.4144  1.6469 -2.6270
19848TIP3    H280960   2.007   5.918  13.109  0.5161  0.4284  0.7596
19849TIP3   OH280961   0.187   2.799   1.468  0.2394 -0.4507 -0.2989
19849TIP3    H180962   0.254   2.776   1.532  0.4129  0.7551 -0.0336
19849TIP3    H280963   0.225   2.774   1.383  0.8276 -0.1957 -0.1104
19850TIP3   OH280964   2.086   5.576  10.836  0.5074 -0.5618  0.4792
19850TIP3    H180965   2.117   5.499  10.789 -0.4581 -0.2875 -0.6433
19850TIP3    H280966   2.015   5.543  10.892  0.4766 -0.5922  0.4224
19851TIP3   OH280967   5.107   3.373  15.193  0.0166 -0.3016 -0.4275
19851TIP3    H180968   5.170   3.302  15.203  0.5391  0.1613 -0.3341
19851TIP3    H280969   5.070   3.360  15.105  1.1385  0.1072 -0.9856
19852TIP3   OH280970   5.576   3.542  14.471 -0.6605  0.7436  0.0111
19852TIP3    H180971   5.653   3.585  14.510 -0.2758  2.3033 -2.2375
19852TIP3    H280972   5.611   3.494  14.396 -1.6679 -0.0531  0.0357
19853TIP3   OH280973   5.195   4.180   4.803 -0.8548  0.3822 -0.4816
19853TIP3    H180974   5.108   4.143   4.820 -1.0960  1.3722  0.5368
19853TIP3    H280975   5.254   4.104   4.806 -1.4812 -0.0850  0.3783
19854TIP3   OH280976   1.569   5.210  13.052 -0.0554  0.2712 -0.4240
19854TIP3    H180977   1.527   5.289  13.085  1.0019  0.3041  0.9496
19854TIP3    H280978   1.584   5.226  12.959  1.0010  2.0976  0.0157
19855TIP3   OH280979   4.936   0.375  11.233  0.1842  0.1116  0.4120
19855TIP3    H180980   5.003   0.412  11.290  0.1841 -0.1055  0.5505
19855TIP3    H280981   4.919   0.445  11.169  1.7239 -0.4216 -0.6303
19856TIP3   OH280982   6.337   3.082  17.316 -0.0955  0.0145 -0.5449
19856TIP3    H180983   6.271   3.144  17.344  0.1029 -0.0837  0.1528
19856TIP3    H280984   6.378   3.123  17.240  0.8893  1.3269  0.6472
19857TIP3   OH280985   4.508   0.839  12.773 -0.0450  0.3058 -0.5564
19857TIP3    H180986   4.490   0.812  12.863 -0.7078 -0.0315 -0.7801
19857TIP3    H280987   4.548   0.925  12.781  0.3023  0.0922  0.0805
19858TIP3   OH280988   3.388   4.611   2.085  0.1502 -0.0880 -0.2913
19858TIP3    H180989   3.390   4.515   2.089  0.3258 -0.0624  0.3960
19858TIP3    H280990   3.444   4.633   2.010 -0.6127 -0.5412 -1.0134
19859TIP3   OH280991   2.958   0.822  15.892  0.3508  0.0776 -0.1208
19859TIP3    H180992   2.867   0.848  15.877  0.3933  0.6946  0.6070
19859TIP3    H280993   2.979   0.859  15.978  0.5454 -2.0832  0.8309
19860TIP3   OH280994   3.483   5.848   0.234  0.2474  0.7497  0.4806
19860TIP3    H180995   3.547   5.784   0.265 -0.1306 -1.8746 -3.4853
19860TIP3    H280996   3.535   5.914   0.188  0.3727  1.3965  1.5144
19861TIP3   OH280997   5.134   0.217   2.898 -0.5512  0.0846 -0.0628
19861TIP3    H180998   5.085   0.298   2.912 -0.7027 -0.2314  1.4173
19861TIP3    H280999   5.150   0.214   2.804 -1.0213  1.5519 -0.2080
19862TIP3   OH281000   4.528   1.869   4.939 -0.2634  0.7000  0.3808
19862TIP3    H181001   4.475   1.914   4.873  0.7569 -2.4969 -3.0102
19862TIP3    H281002   4.616   1.867   4.901  0.4512 -1.0898  1.9857
19863TIP3   OH281003   2.284   4.517   6.206 -0.1349  0.1070  0.1684
19863TIP3    H181004   2.228   4.590   6.178  0.1251  0.3580  0.2948
19863TIP3    H281005   2.359   4.521   6.147  0.1609  0.3097  0.5528
19864TIP3   OH281006   3.949   2.133   2.606 -0.2648  0.1947 -0.9197
19864TIP3    H181007   3.901   2.129   2.689 -0.7222 -0.7623 -1.2145
19864TIP3    H281008   4.002   2.053   2.604  0.4488  0.6650 -1.1371
19865TIP3   OH281009   2.468   3.695  14.749  0.1465  0.4125  0.4771
19865TIP3    H181010   2.539   3.754  14.723  2.4443 -2.0540  0.7323
19865TIP3    H281011   2.429   3.667  14.666 -0.9063  2.1170  0.3521
19866TIP3   OH281012   2.141   4.908   0.647  0.4614 -0.0743  0.3061
19866TIP3    H181013   2.051   4.879   0.635  1.0949 -1.7760 -0.5505
19866TIP3    H281014   2.134   4.981   0.710 -1.4222 -0.5919  0.7619
19867TIP3   OH281015   0.336   3.254   4.788 -0.2683 -0.3761  0.2411
19867TIP3    H181016   0.356   3.324   4.725  0.2589  0.2629  1.0989
19867TIP3    H281017   0.332   3.174   4.734 -1.0603  0.3179 -0.7817
19868TIP3   OH281018   1.528   0.469  15.970  0.2814 -0.5775  0.0129
19868TIP3    H181019   1.501   0.453  15.880 -0.4451 -0.6228  0.2335
19868TIP3    H281020   1.449   0.499  16.014  0.9425  0.7806  0.3187
19869TIP3   OH281021   3.316   0.627  11.233 -0.5274  0.1324 -0.6510
19869TIP3    H181022   3.296   0.609  11.141  0.6412  2.1502 -1.3499
19869TIP3    H281023   3.410   0.609  11.241 -0.5336  0.3868  0.0460
19870TIP3   OH281024   5.037   3.836   5.057 -0.3437  0.3697 -0.3593
19870TIP3    H181025   5.014   3.744   5.042 -0.5199  0.4814 -0.7919
19870TIP3    H281026   5.107   3.833   5.121 -1.0813 -0.0169  0.4539
19871TIP3   OH281027   4.028   2.349   4.975  0.0945 -0.6742  0.0513
19871TIP3    H181028   3.940   2.316   4.961 -1.7849  3.2590  1.2252
19871TIP3    H281029   4.049   2.324   5.065 -0.3106 -0.6177  0.1617
19872TIP3   OH281030   1.914   0.034  16.945  0.6634 -0.6376 -0.4670
19872TIP3    H181031   1.908   0.054  17.038  0.1963  2.0706 -0.9939
19872TIP3    H281032   1.939   0.117  16.904  0.3725 -1.6213 -2.8232
19873TIP3   OH281033   5.518   0.156  16.059  0.1471  0.2812  0.1500
19873TIP3    H181034   5.495   0.071  16.021 -0.5359  1.0768 -1.3026
19873TIP3    H281035   5.434   0.195  16.084  0.3851  0.8279  0.1180
19874TIP3   OH281036   4.450   5.754   0.692  0.0987  0.2327 -0.7766
19874TIP3    H181037   4.515   5.811   0.732  1.9929  0.0132 -3.2953
19874TIP3    H281038   4.402   5.811   0.632  0.4628 -0.3067 -1.6073
19875TIP3   OH281039   1.908   5.155   1.618  0.3276  0.0447  0.0150
19875TIP3    H181040   1.950   5.144   1.703 -0.5536  1.7976  0.7358
19875TIP3    H281041   1.977   5.135   1.555  0.9153 -1.5781  1.1001
19876TIP3   OH281042   2.290   1.441  12.277  0.5890 -0.4487 -0.1855
19876TIP3    H181043   2.302   1.432  12.371 -0.0022 -3.1310 -0.2690
19876TIP3    H281044   2.361   1.389  12.239  0.7420  0.4838 -1.2252
19877TIP3   OH281045   4.853   2.081   0.913  0.5341 -0.3520 -0.1729
19877TIP3    H181046   4.790   2.012   0.891 -1.9315  1.9922 -1.0996
19877TIP3    H281047   4.886   2.112   0.829  1.8146 -0.5194  0.2453
19878TIP3   OH281048   0.103   0.066  14.498 -0.1741 -0.3797 -0.0266
19878TIP3    H181049   0.192   0.031  14.486 -0.6042 -1.7667  0.6980
19878TIP3    H281050   0.051  -0.009  14.527 -1.5313  0.4832 -0.1477
19879TIP3   OH281051   2.744   6.169  16.193 -0.2187  0.3397 -0.3162
19879TIP3    H181052   2.652   6.164  16.166 -0.2950  0.4051 -0.0669
19879TIP3    H281053   2.793   6.152  16.113 -0.4150  2.8521 -1.0361
19880TIP3   OH281054   2.147   6.247   3.252  0.3558 -1.2024 -0.2118
19880TIP3    H181055   2.167   6.165   3.208 -0.0932 -1.2979 -0.2340
19880TIP3    H281056   2.067   6.279   3.210 -0.6283 -1.7706  1.1594
19881TIP3   OH281057   0.120   1.701  11.583  0.7728  0.5097  0.1498
19881TIP3    H181058   0.169   1.621  11.562  0.1971  0.4270 -1.0037
19881TIP3    H281059   0.038   1.691  11.534 -0.6682  0.3838  2.4563
19882TIP3   OH281060   5.555   3.950  16.281 -0.5431 -0.6959 -0.1703
19882TIP3    H181061   5.496   3.951  16.205 -0.7332  2.1268 -0.0772
19882TIP3    H281062   5.497   3.933  16.355 -0.6132 -1.7582 -0.4499
19883TIP3   OH281063   2.003   6.510  16.292  0.4236  0.4196  0.1222
19883TIP3    H181064   2.023   6.470  16.208  1.0892 -0.2833  0.5947
19883TIP3    H281065   1.909   6.499  16.302  0.5154 -0.5995  0.0078
19884TIP3   OH281066   0.892   2.019  13.711  0.0345  0.4335  0.8035
19884TIP3    H181067   0.852   2.061  13.635  0.3371 -2.5221 -1.1692
19884TIP3    H281068   0.822   1.968  13.750  0.3881  0.2461  1.1990
19885TIP3   OH281069   4.957   2.492   1.237 -0.2355  0.4097 -0.0389
19885TIP3    H181070   5.002   2.408   1.234  0.1882  0.6652 -1.8288
19885TIP3    H281071   4.943   2.509   1.331  1.7425 -0.5485  0.4758
19886TIP3   OH281072   1.830   3.562   4.793  0.1443  0.7660 -0.2542
19886TIP3    H181073   1.785   3.645   4.811  0.3769  0.7440  0.4418
19886TIP3    H281074   1.849   3.566   4.699  0.0863  1.4706 -0.2446
19887TIP3   OH281075   5.181   1.246   2.042 -0.1827 -0.2560  0.0762
19887TIP3    H181076   5.250   1.184   2.018 -1.6204 -1.4440 -1.1855
19887TIP3    H281077   5.142   1.210   2.121 -1.1740 -1.1630 -0.7874
19888TIP3   OH281078   6.739   1.221   0.863  0.2164 -0.4383 -0.3235
19888TIP3    H181079   6.772   1.309   0.882 -0.2203 -0.3314 -0.0328
19888TIP3    H281080   6.653   1.236   0.823  0.5118 -0.7103 -1.0738
19889TIP3   OH281081   5.208   4.321   1.740 -0.3263  0.1666  0.1640
19889TIP3    H181082   5.253   4.390   1.692 -0.4017  0.5845  0.6738
19889TIP3    H281083   5.222   4.241   1.689 -0.2464  0.5639 -0.4351
19890TIP3   OH281084   3.713   5.475   2.213  0.5231 -0.2536  0.0172
19890TIP3    H181085   3.652   5.499   2.144 -0.1539  1.0931  1.0376
19890TIP3    H281086   3.799   5.500   2.179  0.2256  0.1642 -0.4443
19891TIP3   OH281087   6.478   5.448   5.513 -0.0625 -0.1126  0.5852
19891TIP3    H181088   6.530   5.396   5.452 -2.0203 -1.8535  0.3384
19891TIP3    H281089   6.414   5.494   5.458 -0.4825 -0.0388  1.1273
19892TIP3   OH281090   1.176   5.022  11.189 -0.1749 -0.5260  0.1251
19892TIP3    H181091   1.125   4.966  11.248  0.1480 -2.4384 -1.2964
19892TIP3    H281092   1.261   5.029  11.231 -0.8661  0.7611  1.3849
19893TIP3   OH281093   4.486   3.521   4.450 -0.7645 -0.4699  0.1313
19893TIP3    H181094   4.550   3.512   4.380 -0.2323  0.6376  0.4495
19893TIP3    H281095   4.476   3.433   4.486  2.1319 -0.3800  1.4105
19894TIP3   OH281096   6.522   6.632  15.212 -0.1602  0.0910 -0.4238
19894TIP3    H181097   6.466   6.649  15.287 -1.6972 -0.6801 -1.3547
19894TIP3    H281098   6.560   6.546  15.229 -1.7567 -0.8084 -1.2202
19895TIP3   OH281099   1.771   0.154  12.265 -0.0870  0.0225  0.3668
19895TIP3    H181100   1.680   0.126  12.254  0.3086 -1.4634  0.6234
19895TIP3    H281101   1.819   0.106  12.197  0.7325 -0.4654  1.2637
19896TIP3   OH281102   4.110   0.220  10.955  0.0640  0.3785  0.3246
19896TIP3    H181103   4.064   0.305  10.959 -1.4744 -0.3898 -0.2129
19896TIP3    H281104   4.189   0.238  10.903 -0.6099  1.3377 -0.4056
19897TIP3   OH281105   1.640   2.772  13.500  0.6815 -0.0712 -0.9497
19897TIP3    H181106   1.730   2.751  13.475  0.8538  0.4478 -0.7698
19897TIP3    H281107   1.642   2.865  13.522  0.0072  0.0415 -1.3502
19898TIP3   OH281108   3.701   0.024  10.447  0.0461 -0.2788 -0.2419
19898TIP3    H181109   3.652   0.090  10.399  2.1835  0.0819 -2.0830
19898TIP3    H281110   3.700   0.054  10.538 -0.4760  1.3261 -0.7498
19899TIP3   OH281111   1.309   0.926   4.927  0.3060 -0.4323 -0.5475
19899TIP3    H181112   1.327   0.994   4.863  0.1460 -0.2233 -0.3717
19899TIP3    H281113   1.214   0.912   4.922  0.5053 -1.6635 -1.6099
19900TIP3   OH281114   0.949   6.650  12.799  0.3794 -0.2466 -0.3287
19900TIP3    H181115   0.872   6.602  12.769 -1.0888 -0.0943  2.8956
19900TIP3    H281116   0.933   6.740  12.773 -1.0104 -0.0553  1.0963
19901TIP3   OH281117   1.111   1.189   4.915  0.6283 -0.2173 -0.1795
19901TIP3    H181118   1.096   1.096   4.929  2.2932 -0.9724 -2.6864
19901TIP3    H281119   1.027   1.230   4.936 -0.2928 -2.3297  0.5376
19902TIP3   OH281120   1.174   1.242   5.795 -0.2655  0.4313  0.3574
19902TIP3    H181121   1.123   1.209   5.869 -0.3208 -3.6195 -1.2399
19902TIP3    H281122   1.110   1.253   5.724  0.3605  0.1198 -0.2719
19903TIP3   OH281123   1.975   4.842   0.046 -0.1488 -0.1291  0.4506
19903TIP3    H181124   1.924   4.905  -0.005 -0.4880 -1.9100 -1.5083
19903TIP3    H281125   2.048   4.818  -0.011 -0.6611 -2.3525  0.6522
19904TIP3   OH281126   0.839   0.736   3.842 -0.3880 -0.1293 -0.4376
19904TIP3    H181127   0.849   0.669   3.910  1.4670  0.9236  0.3967
19904TIP3    H281128   0.928   0.756   3.814 -0.9181  1.6224 -1.0241
19905TIP3   OH281129   0.247   6.759   6.204  0.0770  0.2746  0.3052
19905TIP3    H181130   0.226   6.695   6.136 -0.4134 -0.1323  0.8289
19905TIP3    H281131   0.282   6.706   6.276  0.0799  0.6434  0.5758
19906TIP3   OH281132   0.837   1.894  14.137 -0.1937  0.1784  0.2651
19906TIP3    H181133   0.823   1.934  14.223 -0.2738  2.8353 -0.8635
19906TIP3    H281134   0.932   1.888  14.128 -0.1948 -0.6591  0.7532
19907TIP3   OH281135   0.058   2.157  12.167  0.5252 -0.6647 -0.8171
19907TIP3    H181136   0.026   2.071  12.140  0.0585 -1.2075  1.2993
19907TIP3    H281137   0.150   2.143  12.190  0.1565 -0.8930  0.6136
19908TIP3   OH281138   0.174   2.197   6.013 -0.0018  0.3090 -0.2608
19908TIP3    H181139   0.086   2.179   6.046  0.4089 -1.2366  0.0386
19908TIP3    H281140   0.229   2.201   6.091  0.2456  1.0624 -0.4642
19909TIP3   OH281141   1.086   5.598  13.165  0.1465 -0.3421  0.0443
19909TIP3    H181142   1.126   5.582  13.079  2.3082 -0.5710  1.0411
19909TIP3    H281143   1.098   5.692  13.179  0.9967 -0.5354  0.6525
19910TIP3   OH281144   5.734   1.685  13.916 -0.0788  0.3415 -0.1988
19910TIP3    H181145   5.638   1.683  13.916 -0.1281  1.6700  0.9284
19910TIP3    H281146   5.757   1.768  13.875  0.6997 -0.9574 -2.6266
19911TIP3   OH281147   4.163   4.769  10.887  0.3766  0.0971 -0.4588
19911TIP3    H181148   4.085   4.810  10.851  0.2440  2.2421  1.9954
19911TIP3    H281149   4.129   4.702  10.947  0.2172  1.9782  1.7097
19912TIP3   OH281150   0.156   2.130  16.803  0.0825 -0.3914 -0.0824
19912TIP3    H181151   0.144   2.076  16.882  0.5053  0.2926  0.4675
19912TIP3    H281152   0.218   2.081  16.750  2.5172  0.6611  1.5696
19913TIP3   OH281153   5.876   2.518   3.613  0.5267  0.1520 -0.3555
19913TIP3    H181154   5.884   2.480   3.700 -4.7186 -1.7022 -0.3239
19913TIP3    H281155   5.864   2.443   3.555  0.4818  1.4680 -2.1339
19914TIP3   OH281156   0.371   6.238  16.237  0.4138  0.0453  0.3372
19914TIP3    H181157   0.428   6.293  16.183  1.7863 -0.2558  1.4137
19914TIP3    H281158   0.296   6.219  16.180  1.5761  0.0931 -1.3008
19915TIP3   OH281159   0.120   5.642   1.680  0.0874  0.2994 -0.0175
19915TIP3    H181160   0.158   5.730   1.688  0.2505  0.2230  0.0502
19915TIP3    H281161   0.195   5.585   1.660  0.1831 -0.0132  1.1384
19916TIP3   OH281162   5.969   6.135  15.294 -0.0229  0.8546 -0.3150
19916TIP3    H181163   5.994   6.159  15.383  2.4810 -2.4606  0.0243
19916TIP3    H281164   5.987   6.214  15.242  2.5111  1.5643  1.4692
19917TIP3   OH281165   3.003   1.047   3.700 -0.6473  0.3323 -0.0395
19917TIP3    H181166   2.961   1.105   3.636  1.3844  2.1796  0.1752
19917TIP3    H281167   2.987   1.089   3.784  0.5949  0.4547  0.1539
19918TIP3   OH281168   0.702   3.287  15.932 -0.4341 -0.3470  0.2290
19918TIP3    H181169   0.653   3.207  15.912  2.0292 -1.3444 -2.7836
19918TIP3    H281170   0.686   3.344  15.857  2.4281 -0.5675 -0.6961
19919TIP3   OH281171   3.357   3.730   3.399 -0.5116  0.0216  0.0215
19919TIP3    H181172   3.263   3.714   3.410 -0.8924  1.4547 -0.8774
19919TIP3    H281173   3.366   3.757   3.308  0.3165  2.6488  0.7829
19920TIP3   OH281174   1.249   2.967  15.251  0.0899  0.5377 -0.4565
19920TIP3    H181175   1.306   3.036  15.217  1.2442  1.4665  2.9412
19920TIP3    H281176   1.179   3.014  15.297  0.3921 -0.5065  1.1464
19921TIP3   OH281177   2.975   0.641   4.269 -0.5060 -0.1886  0.1451
19921TIP3    H181178   3.013   0.630   4.356  0.7057 -1.8903 -0.5461
19921TIP3    H281179   3.026   0.711   4.229  0.6418 -1.1022 -0.0552
19922TIP3   OH281180   1.783   3.162  13.382 -0.2841 -0.0768 -0.2497
19922TIP3    H181181   1.709   3.105  13.400 -0.5677  0.2333 -0.4102
19922TIP3    H281182   1.770   3.190  13.291  0.2352 -0.3208 -0.3997
19923TIP3   OH281183   0.969   3.100  10.622  0.3831 -0.3026  0.0960
19923TIP3    H181184   0.950   3.055  10.705  1.3625 -0.6483  0.1460
19923TIP3    H281185   0.929   3.186  10.632  1.5675  0.1314  1.4700
19924TIP3   OH281186   1.217   4.673  16.194  0.1457 -0.3864  0.1272
19924TIP3    H181187   1.146   4.631  16.146  0.8200  1.0146 -2.2700
19924TIP3    H281188   1.271   4.715  16.127  3.4108 -1.5502  1.7811
19925TIP3   OH281189   4.709   1.431   1.110  0.0345 -0.3275 -0.4070
19925TIP3    H181190   4.617   1.407   1.100  0.0667 -0.9177  0.5760
19925TIP3    H281191   4.710   1.486   1.189  0.5581 -0.5608 -0.2482
19926TIP3   OH281192   4.671   0.931  15.812  0.2091  0.2510  0.0649
19926TIP3    H181193   4.604   0.995  15.837 -0.2452 -0.7355  1.4936
19926TIP3    H281194   4.669   0.866  15.881  0.1563 -1.7214 -1.6822
19927TIP3   OH281195   6.101   1.822   5.803  0.0188  0.0831  0.3192
19927TIP3    H181196   6.091   1.842   5.710 -0.4825  0.5433  0.4659
19927TIP3    H281197   6.162   1.887   5.835  0.7511 -0.5184  0.1689
19928TIP3   OH281198   1.521   6.027   0.938 -0.5411  0.2006 -0.0047
19928TIP3    H181199   1.554   5.949   0.983 -0.9456  0.6129  1.0562
19928TIP3    H281200   1.525   6.005   0.845 -0.9650 -1.2114  0.2896
19929TIP3   OH281201   3.593   0.927  15.390 -0.4625 -0.0736 -0.2902
19929TIP3    H181202   3.623   0.891  15.474 -2.5595 -0.2081  0.4730
19929TIP3    H281203   3.648   0.885  15.324  1.2275  0.0142  0.9940
19930TIP3   OH281204   1.854   1.529   2.891  0.4233  0.3091  0.5875
19930TIP3    H181205   1.790   1.475   2.936  0.6445 -0.2299  0.2729
19930TIP3    H281206   1.938   1.501   2.927  0.7271 -1.0771 -1.0450
19931TIP3   OH281207   0.462   2.477   5.109  0.1558  0.2075 -0.2240
19931TIP3    H181208   0.528   2.506   5.046  1.0813  1.2322  1.1436
19931TIP3    H281209   0.380   2.511   5.074  0.8780  2.3038 -0.0444
19932TIP3   OH281210   2.826   2.972   3.866  0.0003 -0.2740 -0.0412
19932TIP3    H181211   2.847   2.880   3.883  0.0739 -0.1649  0.4857
19932TIP3    H281212   2.794   3.005   3.950  0.1851  0.2391 -0.1665
19933TIP3   OH281213   6.612   2.023  12.684 -0.8255  0.1839 -0.2622
19933TIP3    H181214   6.617   1.956  12.616 -0.5696  0.4175 -0.4796
19933TIP3    H281215   6.591   2.103  12.636  0.9373  0.6711 -0.2907
19934TIP3   OH281216   5.694   6.425  16.799 -0.1807 -0.1864  0.4885
19934TIP3    H181217   5.736   6.350  16.758  2.1370  1.1370  0.2857
19934TIP3    H281218   5.667   6.481  16.726  1.1174  0.7059  0.6668
19935TIP3   OH281219   6.162   2.825   6.129  0.1790 -0.4563  0.2006
19935TIP3    H181220   6.204   2.905   6.161 -0.0329  0.6446 -2.0381
19935TIP3    H281221   6.217   2.754   6.162  1.4706  0.7230  0.6918
19936TIP3   OH281222   5.852   2.776   3.529  0.4233 -0.6385 -0.5810
19936TIP3    H181223   5.846   2.681   3.523 -1.9261 -0.5378 -0.7758
19936TIP3    H281224   5.828   2.796   3.619  1.6959 -0.2291 -0.3053
19937TIP3   OH281225   5.821   4.434   2.818 -0.5783  0.2338  0.2643
19937TIP3    H181226   5.770   4.514   2.808  0.5624  0.7164 -2.6783
19937TIP3    H281227   5.869   4.426   2.735  2.1079 -1.5733  1.8583
19938TIP3   OH281228   6.660   5.355  12.027 -0.0321  0.0861 -0.2078
19938TIP3    H181229   6.718   5.298  12.077 -1.8932 -1.3721  0.3600
19938TIP3    H281230   6.606   5.295  11.976 -0.5575  1.4398 -1.2973
19939TIP3   OH281231   5.449   3.312  12.180 -0.2959 -0.1539 -0.7585
19939TIP3    H181232   5.518   3.368  12.214 -1.2091  0.7816 -0.3797
19939TIP3    H281233   5.387   3.373  12.139 -1.4217 -0.8666 -0.1564
19940TIP3   OH281234   6.616   0.556   3.472 -0.0692  0.4373 -0.0275
19940TIP3    H181235   6.607   0.464   3.450  0.8741  0.4500 -0.4833
19940TIP3    H281236   6.659   0.595   3.396 -0.7994  1.3297  0.0011
19941TIP3   OH281237   6.625   3.699   2.525 -0.1651 -0.2241 -0.6799
19941TIP3    H181238   6.601   3.776   2.576  1.2938 -1.8235  2.7578
19941TIP3    H281239   6.717   3.711   2.504  0.0194 -0.9071 -0.2999
19942TIP3   OH281240   3.023   1.430   0.167 -0.3890  0.2660 -0.1645
19942TIP3    H181241   3.025   1.349   0.116 -0.2303  0.4211 -0.4050
19942TIP3    H281242   3.096   1.421   0.228 -0.2345  0.3268 -0.3414
19943TIP3   OH281243   3.392   0.624  15.168 -0.1135 -0.4807  0.4044
19943TIP3    H181244   3.388   0.649  15.260 -0.3716 -0.8805  0.5045
19943TIP3    H281245   3.316   0.567  15.155 -1.0815  0.9140 -0.4621
19944TIP3   OH281246   6.738   2.833   2.986  0.2906  1.5384  0.4845
19944TIP3    H181247   6.646   2.840   2.960  0.7074 -1.7822 -2.5676
19944TIP3    H281248   6.786   2.882   2.920  0.9774 -2.2287 -2.1076
19945TIP3   OH281249   2.951   4.260  15.017 -0.1276 -0.5667  0.0054
19945TIP3    H181250   2.953   4.301  15.104 -0.5008  0.3513 -0.4129
19945TIP3    H281251   3.012   4.186  15.025  0.3582 -0.0942  0.8490
19946TIP3   OH281252   6.532   3.309  14.511 -0.1241  0.3822 -0.0129
19946TIP3    H181253   6.599   3.338  14.573  1.6924 -0.6468 -1.4209
19946TIP3    H281254   6.581   3.278  14.435 -2.1265 -2.0427 -0.4271
19947TIP3   OH281255   6.594   0.713  11.289  0.4487 -0.2012  0.1188
19947TIP3    H181256   6.654   0.770  11.241  0.5178  0.0127  0.4610
19947TIP3    H281257   6.638   0.697  11.372 -1.0678  2.0023  1.4463
19948TIP3   OH281258   2.425   0.749   2.193 -0.1884 -0.2545  0.5852
19948TIP3    H181259   2.415   0.654   2.185 -1.8486 -0.0628 -0.1377
19948TIP3    H281260   2.339   0.784   2.167  0.7081  1.4974 -0.1944
19949TIP3   OH281261   0.891   3.048   0.346 -0.5669  0.2646  0.0015
19949TIP3    H181262   0.982   3.067   0.322  0.1283  0.2963  2.4162
19949TIP3    H281263   0.897   3.001   0.429 -2.7850  0.8313  0.5588
19950TIP3   OH281264   1.231   0.955  12.833  0.2385  0.6200 -0.5215
19950TIP3    H181265   1.158   0.940  12.894 -0.2181 -0.3579 -1.2896
19950TIP3    H281266   1.237   1.050  12.826 -2.0181  0.7194 -1.6776
19951TIP3   OH281267   6.178   5.008   1.475 -0.0050  0.1382 -0.1085
19951TIP3    H181268   6.126   5.006   1.555 -1.0018  0.2748 -0.7383
19951TIP3    H281269   6.152   4.930   1.427  0.9421 -0.2005 -0.0920
19952TIP3   OH281270   4.209   1.490  11.439 -0.9831  0.2526 -0.3106
19952TIP3    H181271   4.251   1.550  11.377  1.8638 -0.1424  1.0864
19952TIP3    H281272   4.215   1.534  11.523  1.2450 -1.8642  0.7736
19953TIP3   OH281273   6.325   5.518   3.999  0.0115  0.2779  0.7881
19953TIP3    H181274   6.270   5.445   4.026  0.4968 -0.7248 -0.7736
19953TIP3    H281275   6.409   5.478   3.977  0.5804  1.4369  0.7711
19954TIP3   OH281276   2.371   3.897  15.395 -0.7115  0.0928 -0.3921
19954TIP3    H181277   2.408   3.946  15.469 -1.4626 -0.3585  0.2857
19954TIP3    H281278   2.440   3.835  15.371  0.9694  2.4522 -2.3280
19955TIP3   OH281279   1.117   5.208  11.531  0.4335 -0.1066 -0.0713
19955TIP3    H181280   1.082   5.212  11.442  0.6479 -0.9898 -0.2072
19955TIP3    H281281   1.058   5.264  11.582 -0.2599 -0.3447 -0.5886
19956TIP3   OH281282   5.263   5.830   4.298  0.3797  0.0011  0.1319
19956TIP3    H181283   5.312   5.752   4.271  1.9729  1.5719 -1.8740
19956TIP3    H281284   5.315   5.867   4.370  0.8011  0.3065 -0.3186
19957TIP3   OH281285   0.294   2.786   4.429 -0.1695  0.0744  0.3805
19957TIP3    H181286   0.203   2.793   4.458  0.0119  2.0144  0.6178
19957TIP3    H281287   0.292   2.816   4.338  0.3957  1.5022  0.8051
19958TIP3   OH281288   4.970   3.690  13.554 -0.1324  0.3939 -0.2102
19958TIP3    H181289   5.016   3.660  13.476  0.6833  0.5771  0.1858
19958TIP3    H281290   4.947   3.610  13.601 -1.9944  0.2043 -1.3764
19959TIP3   OH281291   5.939   6.728  16.731 -0.2775 -0.0281  0.1881
19959TIP3    H181292   5.940   6.639  16.695  0.8169 -0.4963  1.3219
19959TIP3    H281293   6.015   6.732  16.788  0.5957  2.1594 -1.0158
19960TIP3   OH281294   1.039   5.169   6.177  0.4567  0.1832  0.1129
19960TIP3    H181295   0.995   5.097   6.222  2.7012 -0.3685  1.6026
19960TIP3    H281296   1.083   5.127   6.103  1.8495 -0.0443  1.0399
19961TIP3   OH281297   1.960   6.151   0.693 -0.0868 -0.3164 -0.4135
19961TIP3    H181298   1.923   6.064   0.678  1.9955 -1.1761 -0.9178
19961TIP3    H281299   1.891   6.199   0.739 -1.1428 -2.3579  0.2553
19962TIP3   OH281300   4.117   3.284   4.121 -0.6215  0.0479  0.4069
19962TIP3    H181301   4.148   3.328   4.042  0.9701  0.6962  1.3193
19962TIP3    H281302   4.047   3.226   4.092 -1.2195  1.4994 -1.1982
19963TIP3   OH281303   2.568   6.047  15.652 -0.1712  0.2390 -0.0979
19963TIP3    H181304   2.583   5.984  15.581  1.8002  0.5994 -0.0723
19963TIP3    H281305   2.584   6.132  15.612 -1.1642  0.6195  0.2836
19964TIP3   OH281306   1.796   4.567   4.885  0.4386  0.6704 -0.0566
19964TIP3    H181307   1.713   4.547   4.840  0.2755  0.1935  0.4495
19964TIP3    H281308   1.838   4.631   4.828  0.2180  0.1094 -0.8757
19965TIP3   OH281309   3.914   6.534   1.314 -0.3554 -0.2532 -0.8023
19965TIP3    H181310   3.939   6.511   1.403  0.9388  0.5663 -0.9303
19965TIP3    H281311   3.830   6.577   1.323 -1.2212 -1.9711 -0.2135
19966TIP3   OH281312   4.836   4.265   0.595  0.0723 -0.2956 -0.4664
19966TIP3    H181313   4.851   4.214   0.515  1.4084  0.3431 -0.6460
19966TIP3    H281314   4.921   4.304   0.615  0.2398 -1.8041  2.2525
19967TIP3   OH281315   3.696   0.647  14.753  0.5682 -0.1289 -0.0766
19967TIP3    H181316   3.712   0.675  14.663  1.5240  1.0882  0.4471
19967TIP3    H281317   3.777   0.668  14.800 -0.1808 -0.0361  1.2238
19968TIP3   OH281318   5.792   6.189  13.333 -0.0759 -0.0965  0.1074
19968TIP3    H181319   5.865   6.192  13.394  0.8372 -0.8031 -0.9219
19968TIP3    H281320   5.739   6.114  13.361  1.0803 -1.2768 -0.7488
19969TIP3   OH281321   4.779   3.153  12.082  0.5150  0.0671  0.8874
19969TIP3    H181322   4.840   3.203  12.027  0.3130  1.4749  1.8875
19969TIP3    H281323   4.741   3.088  12.022  2.0751 -0.0400 -0.0424
19970TIP3   OH281324   4.196   1.455  16.198 -0.0206 -1.1831 -0.0288
19970TIP3    H181325   4.131   1.477  16.265 -2.2478  1.4796 -2.7846
19970TIP3    H281326   4.152   1.392  16.141  1.3287 -2.3567  0.1761
19971TIP3   OH281327   2.740   3.766  11.311 -0.2138 -0.7523 -0.0530
19971TIP3    H181328   2.711   3.786  11.222 -0.9674  0.9178  0.5375
19971TIP3    H281329   2.805   3.696  11.299  0.1938 -0.1141 -1.9656
19972TIP3   OH281330   3.441   4.973   2.571  0.0771  0.0141  0.6848
19972TIP3    H181331   3.533   4.999   2.567 -0.2239  1.0104 -0.7088
19972TIP3    H281332   3.396   5.037   2.516 -1.6182  0.2188  2.2193
19973TIP3   OH281333   2.548   1.009   1.438  0.4076 -0.2893  0.1714
19973TIP3    H181334   2.577   1.068   1.508 -0.9773 -1.1344  1.5176
19973TIP3    H281335   2.602   0.931   1.448 -0.0811 -0.5801  0.5969
19974TIP3   OH281336   1.043   4.784   2.818  0.4967  0.4876 -0.0886
19974TIP3    H181337   1.045   4.691   2.796  2.5619  0.5644 -0.4410
19974TIP3    H281338   1.011   4.787   2.908  0.6868 -0.5826  0.0247
19975TIP3   OH281339   3.497   3.155   4.046 -0.6137 -0.3528 -0.5915
19975TIP3    H181340   3.581   3.184   4.083 -0.7664  0.6037 -0.9645
19975TIP3    H281341   3.455   3.107   4.117 -0.2090  0.0784 -0.0525
19976TIP3   OH281342   2.658   0.271  16.108  0.3515 -0.1768 -0.4685
19976TIP3    H181343   2.749   0.273  16.139  0.6901 -2.2586 -1.1565
19976TIP3    H281344   2.606   0.288  16.187  1.2986 -0.9820  0.3630
19977TIP3   OH281345   2.520   5.341   3.414  0.2618 -0.2028 -0.1205
19977TIP3    H181346   2.438   5.319   3.459  1.1427 -3.9283 -0.0066
19977TIP3    H281347   2.501   5.324   3.322  0.7038 -0.4349 -0.1689
19978LIG     O181348   3.639   3.202  16.601  0.0692 -0.2149  0.1678
19978LIG     O281349   3.611   3.436  16.607  0.4387 -0.4590 -0.0179
19978LIG     O381350   3.431   3.391  16.750  0.0472  0.5079  0.0477
19978LIG     O481351   3.826   3.305  16.352  0.1744 -0.0808 -0.2866
19978LIG     O581352   3.594   3.210  16.237  0.4509 -0.2024  0.6873
19978LIG     O681353   3.723   3.600  16.815 -0.2639  0.0767 -0.3283
19978LIG     O781354   3.518   3.725  16.633 -0.2556 -0.3861 -0.4413
19978LIG     O881355   3.260   3.721  16.717  0.8724  0.0624  0.0648
19978LIG     O981356   3.893   3.467  16.636 -0.0899  0.1124  0.2276
19978LIG    O1081357   3.389   3.116  16.594  0.1417  0.0457  0.1810
19978LIG    O1181358   3.105   3.495  16.647  0.0930 -0.2513 -0.3482
19978LIG     C181359   3.696   3.331  16.569  0.0458  0.7582  0.2733
19978LIG     C281360   3.701   3.346  16.411  0.4098  0.1808  0.4256
19978LIG     C381361   3.591   3.259  16.370 -0.2288  0.2112  0.3995
19978LIG     C481362   3.597   3.154  16.475 -1.0156 -0.3460  0.1710
19978LIG     C581363   3.569   3.431  16.749 -0.1368  0.2498 -0.3919
19978LIG     C681364   3.583   3.564  16.820 -0.3007  0.3555 -0.0762
19978LIG     C781365   3.493   3.675  16.766  0.2422  0.3327 -0.7063
19978LIG     C881366   3.352   3.627  16.770  0.3055 -0.2775 -0.2555
19978LIG     C981367   3.337   3.487  16.704 -0.2889  0.0053  0.2335
19978LIG    C1081368   3.832   3.331  16.638 -0.1739 -0.7188  0.6479
19978LIG    C1181369   3.475   3.069  16.484  1.1205  0.7013  0.2122
19978LIG    C1281370   3.200   3.421  16.717  0.2478 -0.5938  0.1165
19978LIG     H181371   3.682   3.452  16.388  0.6255  0.0463 -0.4141
19978LIG     H281372   3.499   3.318  16.380 -0.1786  0.6714 -1.4708
19978LIG     H381373   3.680   3.085  16.452 -0.5728  0.3323 -0.2926
19978LIG     H481374   3.622   3.355  16.811 -0.2865  0.7577  0.3714
19978LIG     H581375   3.569   3.545  16.928  1.0648  0.3998  0.1327
19978LIG     H681376   3.499   3.762  16.834 -1.9494 -0.2670  0.3402
19978LIG     H781377   3.324   3.607  16.876 -0.1081 -1.3374 -0.5533
19978LIG     H881378   3.348   3.500  16.594  2.5439  0.8673  0.5290
19978LIG     H981379   3.832   3.299  16.745 -1.9951 -0.1391  0.8529
19978LIG    H1081380   3.898   3.253  16.595  1.4401  1.8347 -1.9036
19978LIG    H1181381   3.416   3.067  16.390  0.2641 -1.7105  0.7250
19978LIG    H1281382   3.507   2.963  16.499  1.5197  0.9762  1.4306
19978LIG    H1381383   3.190   3.315  16.686 -1.2243 -1.0509  1.9417
19978LIG    H1481384   3.163   3.414  16.822  0.5338 -0.7324  0.2069
19978LIG    H1581385   3.874   3.379  16.314  1.8380 -0.4675  0.9209
19978LIG    H1681386   3.684   3.187  16.211  0.0569 -1.9300  0.6934
19978LIG    H1781387   3.724   3.661  16.889 -1.9223 -2.1413  1.6696
19978LIG    H1881388   3.445   3.787  16.624 -1.5356 -1.6783  0.5201
19978LIG    H1981389   3.182   3.673  16.688  0.8724 -0.7907  1.4195
19978LIG    H2081390   3.825   3.526  16.669 -0.6930  0.2796 -1.2055
19978LIG    H2181391   3.457   3.138  16.658  2.3551 -3.4629 -0.7053
19978LIG    H2281392   3.030   3.437  16.628 -1.5242  1.9377 -1.0249
   6.76100   6.76100  17.38623
